   * xtb version 6.5.1 (579679a) compiled by 'ehlert@majestix' on 2022-07-11
          program call               : /lustre/hpc/kemi/ree/PhD/git/ReactivityQM/dep/xtb-6.5.1/bin/xtb --gfn 1 /lustre/hpc/kemi/ree/PhD/git/ReactivityQM/calculations/R02methylcation/reac01prodN07/conf07/R02methylcation_reac01prodN07_conf07_gfn1.xyz --opt --vfukui --chrg 0 --uhf 0 --alpb DMSO

   ID    Z sym.   atoms
    1    6 C      1, 3, 5, 7-10, 12, 14, 17-19, 22, 24
    2    8 O      2, 4, 13, 20, 23, 25
    3    7 N      6, 11, 15, 16, 21
    4    1 H      26-42

      * Solvation model:               ALPB
        Solvent                        DMSO
        Solvent mass                       7.8130E+01 g/mol
          :  Hamiltonian                  GFN1-xTB          :
 * total energy  :   -82.9493466 Eh     change       -0.2783906E-10 Eh
 * total energy  :   -82.9657070 Eh     change       -0.1636046E-01 Eh
 * total energy  :   -82.9728601 Eh     change       -0.7153027E-02 Eh
 * total energy  :   -82.9744118 Eh     change       -0.1551757E-02 Eh
 * total energy  :   -82.9753950 Eh     change       -0.9832167E-03 Eh
 * total energy  :   -82.9757405 Eh     change       -0.3455021E-03 Eh
 * total energy  :   -82.9759864 Eh     change       -0.2458183E-03 Eh
 * total energy  :   -82.9761457 Eh     change       -0.1593268E-03 Eh
 * total energy  :   -82.9762551 Eh     change       -0.1094595E-03 Eh
 * total energy  :   -82.9763236 Eh     change       -0.6846033E-04 Eh
 * total energy  :   -82.9769209 Eh     change       -0.1709905E-04 Eh
 * total energy  :   -82.9769394 Eh     change       -0.1852771E-04 Eh
 * total energy  :   -82.9769586 Eh     change       -0.1915643E-04 Eh
 * total energy  :   -82.9769832 Eh     change       -0.2458479E-04 Eh
 * total energy  :   -82.9770150 Eh     change       -0.3178127E-04 Eh
 * total energy  :   -82.9770405 Eh     change       -0.2552187E-04 Eh
 * total energy  :   -82.9770585 Eh     change       -0.1805971E-04 Eh
 * total energy  :   -82.9770701 Eh     change       -0.1157735E-04 Eh
 * total energy  :   -82.9770726 Eh     change       -0.2517384E-05 Eh
   *** GEOMETRY OPTIMIZATION CONVERGED AFTER 38 ITERATIONS ***

 final structure:
================
42
 xtb: 6.5.1 (579679a)
C            5.88917316645195        1.82424054095488       -0.76922091824181
O            4.75209252771396        1.02002873697982       -0.48429842750336
C            4.68519487230970       -0.17054992949719       -1.15436456417841
O            5.56325869402560       -0.48626233058694       -1.94054146213570
C            3.50007082843104       -0.93874211614557       -0.80604520397242
N            2.64933153880038       -0.33512006063500        0.09842532200875
C            1.57996155753987       -0.92425041118364        0.48776771040890
C            0.66751361295291       -0.23417357307988        1.48665944700537
C            1.28475789987560        1.10542566732616        1.89049702883221
C            0.42120526676620       -1.09356172609753        2.73009321965591
N           -0.62124781742842        0.08721591266631        0.82300475061865
C           -1.60796681300756       -0.77524530511935        0.57131818015894
O           -1.63080405232394       -1.97113799991788        0.78426658269283
C           -2.78473677923812       -0.08066361558746       -0.06372215490687
N           -2.85369868921647        1.14814814398029       -0.48595432794855
N           -4.10520714732980        1.28022905187780       -0.96340561973578
C           -4.55028021468733        2.54474214392171       -1.50938010092391
C           -4.76194456346945        0.14684113522526       -0.82199836347991
C           -6.15244390483392       -0.16119654770547       -1.19186508462063
O           -3.94964608690156       -0.72433937981425       -0.26328443738036
N            1.22954934469567       -2.17632430979898        0.03112698090528
C            1.96530428109382       -2.88449744157694       -0.88553464913488
O            1.57403433170595       -3.98564841083393       -1.26252130300012
C            3.23918503046151       -2.22016856795636       -1.36367330676660
O            3.95039415257928       -2.81747608036669       -2.18851510802190
H            6.81262707412570        1.30028053703436       -0.50036366715217
H            5.79373234734742        2.73103667268811       -0.17351744366682
H            5.92481736710104        2.08305328864816       -1.83250291074883
H            0.62603113461442        1.62930363570681        2.57973449139409
H            1.45206534752778        1.72393576043700        1.00978186284144
H            2.24399688203509        0.93040222062093        2.37577286828776
H            1.36142155964242       -1.21580978274540        3.26633416347246
H            0.03689619031579       -2.07695086595861        2.46981842337894
H           -0.29581434226198       -0.59848687464106        3.38227155926533
H           -0.77611158531181        1.05511046841712        0.59519979287310
H           -3.72070184304351        3.24430190655196       -1.45176814638653
H           -5.39411745558541        2.90320488279510       -0.92256016855842
H           -4.85725790913760        2.39622900951051       -2.54333001748254
H           -6.38831564329902       -1.18689375312638       -0.91249138195175
H           -6.82963748865075        0.52690979916506       -0.68306698417949
H           -6.28972968702443       -0.02793142925030       -2.26667084269463
H            0.36704701463322       -2.59520700287318        0.34668921097514

          :  Hamiltonian                  GFN1-xTB          :
         :: total energy             -82.977072628259 Eh    ::
         :: gradient norm              0.000874367309 Eh/a0 ::
         :: HOMO-LUMO gap              0.421674642928 eV    ::
         :: SCC energy               -83.764880187170 Eh    ::
         :: -> Gsolv                  -0.137854602909 Eh    ::
         :: repulsion energy           0.812924469705 Eh    ::

    * Orbital Energies and Occupations

         #    Occupation            Energy/Eh            Energy/eV
      -------------------------------------------------------------
         1        2.0000           -0.9347983             -25.4372
       ...           ...                  ...                  ...
        55        2.0000           -0.5084468             -13.8355
        56        2.0000           -0.5022145             -13.6660
        57        2.0000           -0.4981352             -13.5549
        58        2.0000           -0.4895109             -13.3203
        59        2.0000           -0.4828878             -13.1400
        60        2.0000           -0.4700836             -12.7916
        61        2.0000           -0.4681389             -12.7387
        62        2.0000           -0.4594747             -12.5029
        63        2.0000           -0.4438993             -12.0791
        64        2.0000           -0.4410703             -12.0021
        65        2.0000           -0.4221525             -11.4874
        66        2.0000           -0.3818075             -10.3895
        67        1.9994           -0.3708468             -10.0913 (HOMO)
        68        0.0006           -0.3553505              -9.6696 (LUMO)
        69                         -0.3422592              -9.3133
        70                         -0.2737306              -7.4486
        71                         -0.2474401              -6.7332
        72                         -0.2377789              -6.4703
        73                         -0.2000508              -5.4437
        74                         -0.1837998              -5.0014
        75                         -0.1707828              -4.6472
        76                         -0.1318374              -3.5875
        77                         -0.1254513              -3.4137
        78                         -0.1240252              -3.3749
       ...                                ...                  ...
       134                          0.7647503              20.8099
      -------------------------------------------------------------
                  HL-Gap            0.0154963 Eh            0.4217 eV

Wiberg/Mayer (AO) data.
largest (>0.10) Wiberg bond orders for each atom

     #   Z sym  total        # sym  WBO       # sym  WBO       # sym  WBO
 ---------------------------------------------------------------------------
     1   6 C    3.897 --    27 H    0.987    28 H    0.981    26 H    0.980
                             2 O    0.925
     2   8 O    2.138 --     3 C    1.028     1 C    0.925     4 O    0.110
     3   6 C    3.850 --     4 O    1.597     5 C    1.113     2 O    1.028
     4   8 O    1.871 --     3 C    1.597     2 O    0.110
     5   6 C    3.908 --    24 C    1.260     6 N    1.161     3 C    1.113
                            25 O    0.127
     6   7 N    3.032 --     7 C    1.625     5 C    1.161
     7   6 C    3.934 --     6 N    1.625    21 N    1.102     8 C    0.966
     8   6 C    3.913 --     9 C    1.002    10 C    0.991     7 C    0.966
                            11 N    0.887
     9   6 C    3.992 --     8 C    1.002    29 H    0.986    30 H    0.982
                            31 H    0.981
    10   6 C    3.988 --     8 C    0.991    34 H    0.985    32 H    0.984
                            33 H    0.978
    11   7 N    3.389 --    12 C    1.309    35 H    0.895     8 C    0.887
                            13 O    0.201
    12   6 C    3.925 --    13 O    1.589    11 N    1.309    14 C    0.953
    13   8 O    1.937 --    12 C    1.589    11 N    0.201
    14   6 C    3.833 --    15 N    1.601    20 O    1.064    12 C    0.953
    15   7 N    2.983 --    14 C    1.601    16 N    1.149
    16   7 N    3.631 --    18 C    1.422    15 N    1.149    17 C    0.910
    17   6 C    3.886 --    36 H    0.978    38 H    0.969    37 H    0.969
                            16 N    0.910
    18   6 C    3.843 --    16 N    1.422    20 O    1.157    19 C    1.041
    19   6 C    3.962 --    18 C    1.041    39 H    0.973    40 H    0.946
                            41 H    0.945
    20   8 O    2.388 --    18 C    1.157    14 C    1.064
    21   7 N    3.429 --    22 C    1.161     7 C    1.102    42 H    0.883
                            23 O    0.136
    22   6 C    3.878 --    23 O    1.582    21 N    1.161    24 C    0.965
    23   8 O    1.860 --    22 C    1.582    21 N    0.136
    24   6 C    3.940 --    25 O    1.533     5 C    1.260    22 C    0.965
    25   8 O    1.832 --    24 C    1.533     5 C    0.127
    26   1 H    1.013 --     1 C    0.980
    27   1 H    1.016 --     1 C    0.987
    28   1 H    1.013 --     1 C    0.981
    29   1 H    1.000 --     9 C    0.986
    30   1 H    1.010 --     9 C    0.982
    31   1 H    1.009 --     9 C    0.981
    32   1 H    1.001 --    10 C    0.984
    33   1 H    1.008 --    10 C    0.978
    34   1 H    0.999 --    10 C    0.985
    35   1 H    0.940 --    11 N    0.895
    36   1 H    0.992 --    17 C    0.978
    37   1 H    0.989 --    17 C    0.969
    38   1 H    0.990 --    17 C    0.969
    39   1 H    0.986 --    19 C    0.973
    40   1 H    0.986 --    19 C    0.946
    41   1 H    0.986 --    19 C    0.945
    42   1 H    0.950 --    21 N    0.883
 ---------------------------------------------------------------------------

           -------------------------------------------------
          | TOTAL ENERGY              -82.977072628259 Eh   |
          | GRADIENT NORM               0.000874367309 Eh/α |
          | HOMO-LUMO GAP               0.421674642928 eV   |
           -------------------------------------------------

 * finished run on 2023/06/21 at 17:37:55.416
