   * xtb version 6.5.1 (579679a) compiled by 'ehlert@majestix' on 2022-07-11
          program call               : /lustre/hpc/kemi/ree/PhD/git/ReactivityQM/dep/xtb-6.5.1/bin/xtb --gfn 1 /lustre/hpc/kemi/ree/PhD/git/ReactivityQM/calculations/R02methylcation/reac01prodE08/conf17/R02methylcation_reac01prodE08_conf17_gfn1.xyz --opt --vfukui --chrg -2 --uhf 0 --alpb DMSO

   ID    Z sym.   atoms
    1    6 C      1, 3, 5, 7-10, 12, 14, 15, 18, 19, 22, 24
    2    8 O      2, 4, 13, 20, 23, 25
    3    7 N      6, 11, 16, 17, 21
    4    1 H      26-42

      * Solvation model:               ALPB
        Solvent                        DMSO
        Solvent mass                       7.8130E+01 g/mol
          :  Hamiltonian                  GFN1-xTB          :
 * total energy  :   -83.6244896 Eh     change       -0.2380318E-10 Eh
 * total energy  :   -83.6358120 Eh     change       -0.1132248E-01 Eh
 * total energy  :   -83.6397154 Eh     change       -0.3903361E-02 Eh
 * total energy  :   -83.6403134 Eh     change       -0.5979427E-03 Eh
 * total energy  :   -83.6408422 Eh     change       -0.5288255E-03 Eh
 * total energy  :   -83.6410786 Eh     change       -0.2364036E-03 Eh
 * total energy  :   -83.6412561 Eh     change       -0.1775449E-03 Eh
 * total energy  :   -83.6413583 Eh     change       -0.1021757E-03 Eh
 * total energy  :   -83.6414274 Eh     change       -0.6914568E-04 Eh
 * total energy  :   -83.6414976 Eh     change       -0.7019264E-04 Eh
 * total energy  :   -83.6437548 Eh     change       -0.2926857E-04 Eh
 * total energy  :   -83.6437773 Eh     change       -0.2251426E-04 Eh
 * total energy  :   -83.6437870 Eh     change       -0.9760075E-05 Eh
 * total energy  :   -83.6437966 Eh     change       -0.9530917E-05 Eh
 * total energy  :   -83.6438086 Eh     change       -0.1199743E-04 Eh
 * total energy  :   -83.6438160 Eh     change       -0.7460545E-05 Eh
 * total energy  :   -83.6438237 Eh     change       -0.7664330E-05 Eh
 * total energy  :   -83.6438295 Eh     change       -0.5783618E-05 Eh
 * total energy  :   -83.6438335 Eh     change       -0.4029452E-05 Eh
   *** GEOMETRY OPTIMIZATION CONVERGED AFTER 49 ITERATIONS ***

 final structure:
================
42
 xtb: 6.5.1 (579679a)
C            5.24809187004094        2.07002154839146       -1.49096255941435
O            4.17998101729457        1.37144124068167       -0.87137362957891
C            4.19791734987259        1.36645578938295        0.50075457044481
O            5.08882250107247        1.94963185412243        1.10156490918873
C            3.09002461657456        0.62341962335704        1.07109768548745
N            2.22269405249044        0.05672997030778        0.15514551890982
C            1.20891867499745       -0.62280331894769        0.54501929033541
C            0.26584427500607       -1.25822013153389       -0.46094635652101
C            0.24936683498248       -2.78383896229330       -0.25978466950087
C            0.74429967683224       -0.91309736433822       -1.87655180885474
N           -1.06886145430990       -0.70187871313457       -0.22749931888599
C           -2.16867430015661       -1.07144129330136       -0.93629787801311
O           -2.12053169042147       -1.79727672569985       -1.93226947086804
C           -3.46327144250087       -0.34848195333845       -0.51783758257461
C           -4.66802635514856       -1.30138888536270       -0.63624136345051
N           -3.56771650217123        0.78833274726625       -1.44219222655184
N           -3.54798128698063        1.89952969000888       -0.65522331851114
C           -3.44705744262556        1.58156772587349        0.58122483089330
C           -3.43025965962974        2.48386599592669        1.76553823072131
O           -3.36162715890944        0.18737407578970        0.79562789964406
N            0.93543430595410       -0.81180444716511        1.88749775255311
C            1.72434902657067       -0.33355393304491        2.90115503966761
O            1.43394359784987       -0.58361491426071        4.06978089198096
C            2.92141292847896        0.48654150059953        2.47482144551636
O            3.66137093076919        0.96763612376390        3.35311495909541
H            5.10771833320118        1.98251406205206       -2.56772566413238
H            6.21282726277433        1.63489212882809       -1.21000134822783
H            5.24337374162004        3.12672486676616       -1.20333589636524
H           -0.13242145728022       -3.03275568145423        0.72870182159537
H           -0.38716493871626       -3.25288225241455       -1.00821582984991
H            1.25950789647813       -3.17867756941689       -0.35720517887338
H            1.77267651162957       -1.25039466146196       -2.00015381275835
H            0.12063067981453       -1.40275177031017       -2.62201505129190
H            0.71177009267403        0.16568545154103       -2.03060451135766
H           -1.23742342637820       -0.29973677314901        0.68527305537156
H           -4.60337747662996       -2.08530149548788        0.11669119110148
H           -5.58722338014185       -0.73794014049903       -0.48951762149289
H           -4.67457085941920       -1.74936798378046       -1.62840363820639
H           -3.60161686094380        3.50748737118611        1.43551914514877
H           -4.21195131282463        2.20703470504415        2.47636602527439
H           -2.47276312484801        2.43958921911638        2.29166192506509
H            0.15154295307648       -1.37926771962643        2.16684154729362

          :  Hamiltonian                  GFN1-xTB          :
         :: total energy             -83.643833512013 Eh    ::
         :: gradient norm              0.000720636534 Eh/a0 ::
         :: HOMO-LUMO gap              0.294369867105 eV    ::
         :: SCC energy               -84.382974139144 Eh    ::
         :: -> Gsolv                  -0.263232486085 Eh    ::
         :: repulsion energy           0.765513017366 Eh    ::

    * Orbital Energies and Occupations

         #    Occupation            Energy/Eh            Energy/eV
      -------------------------------------------------------------
         1        2.0000           -0.7931710             -21.5833
       ...           ...                  ...                  ...
        56        2.0000           -0.4484662             -12.2034
        57        2.0000           -0.4468010             -12.1581
        58        2.0000           -0.4328343             -11.7780
        59        2.0000           -0.4321091             -11.7583
        60        2.0000           -0.4096590             -11.1474
        61        2.0000           -0.4067025             -11.0669
        62        2.0000           -0.4022759             -10.9465
        63        2.0000           -0.3995258             -10.8717
        64        2.0000           -0.3778967             -10.2831
        65        2.0000           -0.3712955             -10.1035
        66        2.0000           -0.3592107              -9.7746
        67        2.0000           -0.3492015              -9.5023
        68        1.9933           -0.2753831              -7.4936 (HOMO)
        69        0.0067           -0.2645652              -7.1992 (LUMO)
        70                         -0.2310678              -6.2877
        71                         -0.2079892              -5.6597
        72                         -0.1909455              -5.1959
        73                         -0.1619374              -4.4065
        74                         -0.1208465              -3.2884
        75                         -0.1108939              -3.0176
        76                         -0.1072847              -2.9194
        77                         -0.1026003              -2.7919
        78                         -0.0999120              -2.7187
        79                         -0.0882996              -2.4028
       ...                                ...                  ...
       134                          0.7691099              20.9285
      -------------------------------------------------------------
                  HL-Gap            0.0108179 Eh            0.2944 eV

Wiberg/Mayer (AO) data.
largest (>0.10) Wiberg bond orders for each atom

     #   Z sym  total        # sym  WBO       # sym  WBO       # sym  WBO
 ---------------------------------------------------------------------------
     1   6 C    3.902 --    26 H    0.987    27 H    0.980    28 H    0.980
                             2 O    0.930
     2   8 O    2.132 --     3 C    1.018     1 C    0.930     4 O    0.107
     3   6 C    3.847 --     4 O    1.586     5 C    1.127     2 O    1.018
     4   8 O    1.863 --     3 C    1.586     2 O    0.107
     5   6 C    3.916 --    24 C    1.267     6 N    1.150     3 C    1.127
                            25 O    0.129
     6   7 N    3.027 --     7 C    1.637     5 C    1.150
     7   6 C    3.929 --     6 N    1.637    21 N    1.089     8 C    0.977
     8   6 C    3.952 --    10 C    0.997     9 C    0.982     7 C    0.977
                            11 N    0.933
     9   6 C    3.992 --    31 H    0.987    29 H    0.984     8 C    0.982
                            30 H    0.981
    10   6 C    3.995 --     8 C    0.997    32 H    0.987    34 H    0.986
                            33 H    0.982
    11   7 N    3.297 --    12 C    1.219     8 C    0.933    35 H    0.903
                            13 O    0.142
    12   6 C    3.866 --    13 O    1.555    11 N    1.219    14 C    0.922
    13   8 O    1.862 --    12 C    1.555    11 N    0.142
    14   6 C    3.896 --    16 N    0.977    15 C    0.971    20 O    0.923
                            12 C    0.922
    15   6 C    3.995 --    36 H    0.988    37 H    0.987    38 H    0.986
                            14 C    0.971
    16   7 N    2.613 --    17 N    1.194    14 C    0.977    18 C    0.209
    17   7 N    3.019 --    18 C    1.666    16 N    1.194
    18   6 C    3.859 --    17 N    1.666    19 C    1.017    20 O    0.918
                            16 N    0.209
    19   6 C    3.996 --    18 C    1.017    39 H    0.987    40 H    0.978
                            41 H    0.976
    20   8 O    2.063 --    14 C    0.923    18 C    0.918
    21   7 N    3.426 --    22 C    1.163     7 C    1.089    42 H    0.898
                            23 O    0.135
    22   6 C    3.876 --    23 O    1.574    21 N    1.163    24 C    0.969
    23   8 O    1.851 --    22 C    1.574    21 N    0.135
    24   6 C    3.941 --    25 O    1.520     5 C    1.267    22 C    0.969
    25   8 O    1.822 --    24 C    1.520     5 C    0.129
    26   1 H    1.017 --     1 C    0.987
    27   1 H    1.015 --     1 C    0.980
    28   1 H    1.015 --     1 C    0.980
    29   1 H    1.005 --     9 C    0.984
    30   1 H    1.014 --     9 C    0.981
    31   1 H    1.005 --     9 C    0.987
    32   1 H    1.016 --    10 C    0.987
    33   1 H    1.020 --    10 C    0.982
    34   1 H    1.014 --    10 C    0.986
    35   1 H    0.964 --    11 N    0.903
    36   1 H    1.010 --    15 C    0.988
    37   1 H    1.020 --    15 C    0.987
    38   1 H    1.019 --    15 C    0.986
    39   1 H    1.010 --    19 C    0.987
    40   1 H    1.009 --    19 C    0.978
    41   1 H    1.010 --    19 C    0.976
    42   1 H    0.947 --    21 N    0.898
 ---------------------------------------------------------------------------

           -------------------------------------------------
          | TOTAL ENERGY              -83.643833512013 Eh   |
          | GRADIENT NORM               0.000720636534 Eh/α |
          | HOMO-LUMO GAP               0.294369867105 eV   |
           -------------------------------------------------

 * finished run on 2023/06/21 at 17:18:58.078
