                         Program Version 5.0.1 -  RELEASE  -
|  1> # ORCA input file
|  2> ! SP r2SCAN-3c CPCM
|  3>
|  4> %maxcore 1875.0
|  5> %pal nprocs 4 end
|  6> %cpcm smd true SMDsolvent "DMSO" end
|  7>
|  8> *xyz -1 1
|  9> C      -3.109225   -0.046787    0.043466
| 10> C      -1.617504   -0.030149   -0.116382
| 11> F      -3.788895   -2.276420    2.037840
| 12> C      -0.804211    0.500792    0.885267
| 13> C       0.575814    0.497508    0.755508
| 14> C       1.182397   -0.028784   -0.382842
| 15> C       2.687647   -0.049693   -0.519366
| 16> N       3.305435    1.029603    0.256053
| 17> C       0.374325   -0.556149   -1.386546
| 18> C      -1.007598   -0.558768   -1.252661
| 19> H      -3.467160    0.912003    0.421820
| 20> H      -3.601754   -0.255706   -0.906472
| 21> H      -3.397343   -0.827958    0.765731
| 22> H      -1.254259    0.929471    1.776137
| 23> H       1.196517    0.919684    1.539838
| 24> H       3.069441   -1.002802   -0.131650
| 25> H       2.971564    0.011733   -1.580638
| 26> H       4.299505    0.862945    0.299369
| 27> H       3.174945    1.903571   -0.235735
| 28> H       0.827123   -0.964362   -2.284127
| 29> H      -1.616767   -0.969729   -2.051772
| 30> **                         ****END OF INPUT****

CARTESIAN COORDINATES (ANGSTROEM)
---------------------------------
  C     -3.109225   -0.046787    0.043466
  C     -1.617504   -0.030149   -0.116382
  F     -3.788895   -2.276420    2.037840
  C     -0.804211    0.500792    0.885267
  C      0.575814    0.497508    0.755508
  C      1.182397   -0.028784   -0.382842
  C      2.687647   -0.049693   -0.519366
  N      3.305435    1.029603    0.256053
  C      0.374325   -0.556149   -1.386546
  C     -1.007598   -0.558768   -1.252661
  H     -3.467160    0.912003    0.421820
  H     -3.601754   -0.255706   -0.906472
  H     -3.397343   -0.827958    0.765731
  H     -1.254259    0.929471    1.776137
  H      1.196517    0.919684    1.539838
  H      3.069441   -1.002802   -0.131650
  H      2.971564    0.011733   -1.580638
  H      4.299505    0.862945    0.299369
  H      3.174945    1.903571   -0.235735
  H      0.827123   -0.964362   -2.284127
  H     -1.616767   -0.969729   -2.051772

 Total Charge           Charge          ....   -1
 Multiplicity           Mult            ....    1
 Number of Electrons    NEL             ....   76
 Basis Dimension        Dim             ....  255

ORBITAL ENERGIES
----------------

  NO   OCC          E(Eh)            E(eV)
   0   2.0000     -24.279091      -660.6677
   1   2.0000     -14.130480      -384.5099
   2   2.0000     -10.048748      -273.4403
   3   2.0000     -10.032730      -273.0045
   4   2.0000     -10.030367      -272.9402
   5   2.0000     -10.024416      -272.7782
   6   2.0000     -10.022676      -272.7309
   7   2.0000     -10.022242      -272.7191
   8   2.0000     -10.021630      -272.7024
   9   2.0000     -10.000497      -272.1273
  10   2.0000      -0.913606       -24.8605
  11   2.0000      -0.847138       -23.0518
  12   2.0000      -0.814332       -22.1591
  13   2.0000      -0.733984       -19.9727
  14   2.0000      -0.705146       -19.1880
  15   2.0000      -0.656757       -17.8713
  16   2.0000      -0.596520       -16.2321
  17   2.0000      -0.566630       -15.4188
  18   2.0000      -0.530574       -14.4377
  19   2.0000      -0.464659       -12.6440
  20   2.0000      -0.437154       -11.8956
  21   2.0000      -0.434065       -11.8115
  22   2.0000      -0.407037       -11.0760
  23   2.0000      -0.384284       -10.4569
  24   2.0000      -0.377363       -10.2686
  25   2.0000      -0.375259       -10.2113
  26   2.0000      -0.366020        -9.9599
  27   2.0000      -0.343021        -9.3341
  28   2.0000      -0.333102        -9.0642
  29   2.0000      -0.313324        -8.5260
  30   2.0000      -0.295914        -8.0522
  31   2.0000      -0.294543        -8.0149
  32   2.0000      -0.231635        -6.3031
  33   2.0000      -0.219989        -5.9862
  34   2.0000      -0.205240        -5.5849
  35   2.0000      -0.201936        -5.4950
  36   2.0000      -0.201842        -5.4924
  37   2.0000      -0.191952        -5.2233
  38   0.0000      -0.028403        -0.7729
  39   0.0000      -0.019045        -0.5183
  40   0.0000       0.082798         2.2530
  41   0.0000       0.096363         2.6222
  42   0.0000       0.111964         3.0467

MULLIKEN ATOMIC CHARGES
-----------------------
   0 C :   -0.646410
   1 C :    0.186329
   2 F :   -0.941055
   3 C :   -0.255815
   4 C :   -0.261825
   5 C :    0.215735
   6 C :   -0.303643
   7 N :   -0.647035
   8 C :   -0.277142
   9 C :   -0.255680
  10 H :    0.161913
  11 H :    0.161250
  12 H :    0.243536
  13 H :    0.175812
  14 H :    0.192792
  15 H :    0.174066
  16 H :    0.156770
  17 H :    0.283883
  18 H :    0.285459
  19 H :    0.175571
  20 H :    0.175488
Sum of atomic charges:   -1.0000000

LOEWDIN ATOMIC CHARGES
----------------------
   0 C :   -0.436073
   1 C :   -0.111320
   2 F :   -0.949608
   3 C :   -0.178982
   4 C :   -0.167182
   5 C :   -0.089993
   6 C :   -0.046270
   7 N :   -0.750094
   8 C :   -0.172118
   9 C :   -0.181644
  10 H :    0.162873
  11 H :    0.159532
  12 H :    0.193886
  13 H :    0.178510
  14 H :    0.186651
  15 H :    0.187898
  16 H :    0.168505
  17 H :    0.244480
  18 H :    0.244289
  19 H :    0.178916
  20 H :    0.177743

  Mayer bond orders larger than 0.100000
B(  0-C ,  1-C ) :   0.7976 B(  0-C , 10-H ) :   0.9804 B(  0-C , 11-H ) :   0.9948
B(  0-C , 12-H ) :   0.9235 B(  1-C ,  3-C ) :   1.3502 B(  1-C ,  9-C ) :   1.3716
B(  3-C ,  4-C ) :   1.3980 B(  3-C , 13-H ) :   0.9645 B(  4-C ,  5-C ) :   1.3757
B(  4-C , 14-H ) :   0.9655 B(  5-C ,  6-C ) :   0.7976 B(  5-C ,  7-N ) :  -0.1394
B(  5-C ,  8-C ) :   1.3820 B(  6-C ,  7-N ) :   1.0180 B(  6-C , 15-H ) :   0.9724
B(  6-C , 16-H ) :   1.0149 B(  7-N , 17-H ) :   0.9021 B(  7-N , 18-H ) :   0.9062
B(  8-C ,  9-C ) :   1.4109 B(  8-C , 19-H ) :   0.9570 B(  9-C , 20-H ) :   0.9576

Dispersion correction           -0.006837450
FINAL SINGLE POINT ENERGY      -466.112548772776

DIPOLE MOMENT
-------------
                                X             Y             Z
Electronic contribution:     -1.87477      -1.96029       1.25804
Nuclear contribution   :      8.55139       5.58894      -5.21216
                        -----------------------------------------
Total Dipole Moment    :      6.67662       3.62865      -3.95412
                        -----------------------------------------
Magnitude (a.u.)       :      8.56618
Magnitude (Debye)      :     21.77350

Rotational constants in cm-1:     0.087202     0.017856     0.016799
Rotational constants in MHz :  2614.245663   535.299907   503.619054

                             ****ORCA TERMINATED NORMALLY****
TOTAL RUN TIME: 0 days 0 hours 0 minutes 17 seconds 255 msec
