   * xtb version 6.5.1 (579679a) compiled by 'ehlert@majestix' on 2022-07-11
          program call               : /lustre/hpc/kemi/ree/PhD/git/ReactivityQM/dep/xtb-6.5.1/bin/xtb --gfn 1 /lustre/hpc/kemi/ree/PhD/git/ReactivityQM/calculations/R03/reac01prodE04/conf07/R03_reac01prodE04_conf07_gfn1.xyz --opt --vfukui --chrg -1 --uhf 0 --alpb DMSO

   ID    Z sym.   atoms
    1    6 C      1, 2, 4-7, 9, 10
    2    9 F      3
    3    7 N      8
    4    1 H      11-21

      * Solvation model:               ALPB
        Solvent                        DMSO
        Solvent mass                       7.8130E+01 g/mol
          :  Hamiltonian                  GFN1-xTB          :
 * total energy  :   -31.4695035 Eh     change       -0.1864109E-10 Eh
 * total energy  :   -31.4757256 Eh     change       -0.6222157E-02 Eh
 * total energy  :   -31.4791058 Eh     change       -0.3380160E-02 Eh
 * total energy  :   -31.4811543 Eh     change       -0.2048501E-02 Eh
 * total energy  :   -31.4838514 Eh     change       -0.2697093E-02 Eh
 * total energy  :   -31.4895487 Eh     change       -0.5697268E-02 Eh
 * total energy  :   -31.4959583 Eh     change       -0.6409655E-02 Eh
 * total energy  :   -31.4995259 Eh     change       -0.3567547E-02 Eh
 * total energy  :   -31.5016760 Eh     change       -0.2150158E-02 Eh
 * total energy  :   -31.5036014 Eh     change       -0.1925365E-02 Eh
 * total energy  :   -31.5131551 Eh     change       -0.3448506E-04 Eh
 * total energy  :   -31.5131736 Eh     change       -0.1852352E-04 Eh
 * total energy  :   -31.5131837 Eh     change       -0.1006800E-04 Eh
 * total energy  :   -31.5131950 Eh     change       -0.1127340E-04 Eh
 * total energy  :   -31.5132072 Eh     change       -0.1227466E-04 Eh
 * total energy  :   -31.5132229 Eh     change       -0.1563794E-04 Eh
 * total energy  :   -31.5132427 Eh     change       -0.1980956E-04 Eh
 * total energy  :   -31.5132508 Eh     change       -0.8133590E-05 Eh
 * total energy  :   -31.5132535 Eh     change       -0.2688926E-05 Eh
   *** GEOMETRY OPTIMIZATION CONVERGED AFTER 61 ITERATIONS ***

 final structure:
================
21
 xtb: 6.5.1 (579679a)
C           -3.10922544036419       -0.04678735921892        0.04346606646410
C           -1.61750397430254       -0.03014877465246       -0.11638193010003
F           -3.78889525057128       -2.27642039451345        2.03783997487981
C           -0.80421067994678        0.50079249245479        0.88526736078998
C            0.57581404977877        0.49750753743514        0.75550835081718
C            1.18239743857927       -0.02878429494350       -0.38284228893643
C            2.68764714922017       -0.04969284891605       -0.51936570969592
N            3.30543486480925        1.02960259051549        0.25605274792425
C            0.37432517206058       -0.55614887930883       -1.38654551025045
C           -1.00759769164307       -0.55876815073046       -1.25266124519663
H           -3.46715961794718        0.91200272075076        0.42181963928420
H           -3.60175366707089       -0.25570644189755       -0.90647184358837
H           -3.39734314464464       -0.82795836405332        0.76573065632940
H           -1.25425914629668        0.92947056971798        1.77613735466083
H            1.19651657412348        0.91968387715979        1.53983840607815
H            3.06944083214982       -1.00280170101551       -0.13165034860729
H            2.97156392404808        0.01173300873196       -1.58063827166615
H            4.29950533000762        0.86294528455862        0.29936932870321
H            3.17494541470811        1.90357053188117       -0.23573464824795
H            0.82712264478965       -0.96436190198085       -2.28412716929764
H           -1.61676678159370       -0.96972850191010       -2.05177192044901

          :  Hamiltonian                  GFN1-xTB          :
         :: total energy             -31.513253504327 Eh    ::
         :: gradient norm              0.000643588279 Eh/a0 ::
         :: HOMO-LUMO gap              2.449118595956 eV    ::
         :: SCC energy               -31.916312170521 Eh    ::
         :: -> Gsolv                  -0.130819268881 Eh    ::
         :: repulsion energy           0.412639108571 Eh    ::

    * Orbital Energies and Occupations

         #    Occupation            Energy/Eh            Energy/eV
      -------------------------------------------------------------
         1        2.0000           -0.7381959             -20.0873
       ...           ...                  ...                  ...
        16        2.0000           -0.5068571             -13.7923
        17        2.0000           -0.5005780             -13.6214
        18        2.0000           -0.4823565             -13.1256
        19        2.0000           -0.4783510             -13.0166
        20        2.0000           -0.4691451             -12.7661
        21        2.0000           -0.4474755             -12.1764
        22        2.0000           -0.4463173             -12.1449
        23        2.0000           -0.4198349             -11.4243
        24        2.0000           -0.4050384             -11.0217
        25        2.0000           -0.3955555             -10.7636
        26        2.0000           -0.3321663              -9.0387
        27        2.0000           -0.3321638              -9.0386
        28        2.0000           -0.3317530              -9.0275 (HOMO)
        29                         -0.2417495              -6.5783 (LUMO)
        30                         -0.2370496              -6.4504
        31                         -0.1172772              -3.1913
        32                         -0.1065127              -2.8984
        33                         -0.0986825              -2.6853
        34                         -0.0894087              -2.4329
        35                         -0.0854898              -2.3263
        36                         -0.0773574              -2.1050
        37                         -0.0696542              -1.8954
        38                         -0.0557613              -1.5173
        39                         -0.0476833              -1.2975
       ...                                ...                  ...
        62                          0.6649499              18.0942
      -------------------------------------------------------------
                  HL-Gap            0.0900035 Eh            2.4491 eV

Wiberg/Mayer (AO) data.
largest (>0.10) Wiberg bond orders for each atom

     #   Z sym  total        # sym  WBO       # sym  WBO       # sym  WBO
 ---------------------------------------------------------------------------
     1   6 C    3.990 --     2 C    1.029    12 H    0.987    11 H    0.980
                            13 H    0.933
     2   6 C    3.988 --    10 C    1.410     4 C    1.403     1 C    1.029
                             6 C    0.106
     3   9 F    0.094
     4   6 C    3.996 --     5 C    1.456     2 C    1.403    14 H    0.974
                             9 C    0.109
     5   6 C    3.996 --     4 C    1.456     6 C    1.410    15 H    0.972
                            10 C    0.107
     6   6 C    3.988 --     9 C    1.416     5 C    1.410     7 C    1.004
                             2 C    0.106
     7   6 C    3.979 --     6 C    1.004     8 N    0.993    17 H    0.973
                            16 H    0.968
     8   7 N    2.950 --     7 C    0.993    19 H    0.952    18 H    0.948
     9   6 C    3.995 --    10 C    1.447     6 C    1.416    20 H    0.973
                             4 C    0.109
    10   6 C    3.995 --     9 C    1.447     2 C    1.410    21 H    0.973
                             5 C    0.107
    11   1 H    1.007 --     1 C    0.980
    12   1 H    1.006 --     1 C    0.987
    13   1 H    1.040 --     1 C    0.933
    14   1 H    1.003 --     4 C    0.974
    15   1 H    1.018 --     5 C    0.972
    16   1 H    1.013 --     7 C    0.968
    17   1 H    1.006 --     7 C    0.973
    18   1 H    0.961 --     8 N    0.948
    19   1 H    0.965 --     8 N    0.952
    20   1 H    1.003 --     9 C    0.973
    21   1 H    1.004 --    10 C    0.973
 ---------------------------------------------------------------------------

           -------------------------------------------------
          | TOTAL ENERGY              -31.513253504327 Eh   |
          | GRADIENT NORM               0.000643588279 Eh/α |
          | HOMO-LUMO GAP               2.449118595956 eV   |
           -------------------------------------------------

 * finished run on 2023/06/20 at 15:13:49.883
