   * xtb version 6.5.1 (579679a) compiled by 'ehlert@majestix' on 2022-07-11
          program call               : /lustre/hpc/kemi/ree/PhD/git/ReactivityQM/dep/xtb-6.5.1/bin/xtb --gfn 1 /lustre/hpc/kemi/ree/PhD/git/ReactivityQM/calculations/R03/reac02prodN01/conf18/R03_reac02prodN01_conf18_gfn1.xyz --opt --vfukui --chrg 1 --uhf 0 --alpb DMSO

   ID    Z sym.   atoms
    1    6 C      1, 3, 5, 7-10, 12, 14, 17, 18, 20, 22, 23, 25
    2    8 O      2, 4, 13, 19, 24, 26
    3    7 N      6, 11, 15, 16, 21
    4    1 H      27-46

      * Solvation model:               ALPB
        Solvent                        DMSO
        Solvent mass                       7.8130E+01 g/mol
          :  Hamiltonian                  GFN1-xTB          :
 * total energy  :   -86.2630459 Eh     change       -0.3652190E-11 Eh
 * total energy  :   -86.2817795 Eh     change       -0.1873358E-01 Eh
 * total energy  :   -86.2903184 Eh     change       -0.8538916E-02 Eh
 * total energy  :   -86.2928622 Eh     change       -0.2543802E-02 Eh
 * total energy  :   -86.2945481 Eh     change       -0.1685913E-02 Eh
 * total energy  :   -86.2953602 Eh     change       -0.8120605E-03 Eh
 * total energy  :   -86.2959517 Eh     change       -0.5915191E-03 Eh
 * total energy  :   -86.2963535 Eh     change       -0.4018078E-03 Eh
 * total energy  :   -86.2965839 Eh     change       -0.2303990E-03 Eh
 * total energy  :   -86.2967259 Eh     change       -0.1419370E-03 Eh
 * total energy  :   -86.2977733 Eh     change       -0.9525793E-04 Eh
 * total energy  :   -86.2978572 Eh     change       -0.8392202E-04 Eh
 * total energy  :   -86.2979398 Eh     change       -0.8255619E-04 Eh
 * total energy  :   -86.2979590 Eh     change       -0.1927616E-04 Eh
 * total energy  :   -86.2979839 Eh     change       -0.2488765E-04 Eh
 * total energy  :   -86.2979920 Eh     change       -0.8103044E-05 Eh
 * total energy  :   -86.2979994 Eh     change       -0.7357888E-05 Eh
 * total energy  :   -86.2980059 Eh     change       -0.6564188E-05 Eh
 * total energy  :   -86.2980102 Eh     change       -0.4291575E-05 Eh
   *** GEOMETRY OPTIMIZATION CONVERGED AFTER 37 ITERATIONS ***

 final structure:
================
46
 xtb: 6.5.1 (579679a)
C           -5.94952494007948       -1.27412346381733       -2.01574398357004
O           -4.80081700625994       -0.79111855248726       -1.30765198338395
C           -4.87082877362079        0.44535576708835       -0.83979649536261
O           -5.84328626339253        1.16371995856986       -0.99067877235184
C           -3.66085922506289        0.88448854741174       -0.10636498462811
N           -2.61872615643650        0.00611807925863       -0.01407565187867
C           -1.53861369517720        0.32626897782062        0.62042540933161
C           -0.47100512280133       -0.75757785768091        0.68193881759904
C           -0.42579603597647       -1.36309578200242        2.09128147025826
C           -0.79126357499323       -1.85151067756780       -0.34521789045296
N            0.82465807331041       -0.16026318248117        0.30287683518129
C            1.98638821951029       -0.82141893023804        0.36770886498201
O            2.18569233592410       -1.92746993456299        0.82921414755673
C            3.10016801732890        0.00186146645053       -0.19935162149055
N            3.06405648533227        1.17449527224028       -0.70848561906080
N            4.32719472889193        1.52842245029370       -1.09193142227643
C            5.12959878574574        0.57197747038495       -0.81610820922651
C            6.58073522723117        0.48034688325962       -1.03592200794751
O            4.41034438781836       -0.47579651007291       -0.22741396378151
C            4.88007330462175       -1.77426796012613        0.26254853017322
N           -1.39735544057813        1.54104649123710        1.23700097266968
C           -0.22467898261604        1.97657507826060        1.99842441977522
C           -2.38910861588119        2.52501260260885        1.18960497692483
O           -2.21145422386366        3.60240455898068        1.73492325031028
C           -3.59277139784248        2.13226023959024        0.46074231855142
O           -4.56685379588458        3.03925259435722        0.40300185119505
H           -6.13310310456551       -0.65305734380148       -2.89525411223455
H           -5.72303297941527       -2.29605140846095       -2.31191409206623
H           -6.82587658622292       -1.24957641631895       -1.36404894494866
H           -0.04930137877926       -0.65044701429672        2.82065978732605
H            0.21225928822242       -2.24378268707391        2.10262000514830
H           -1.43565488786859       -1.65770393829343        2.37504138585873
H           -1.74823844054773       -2.31116942042196       -0.10488619479123
H           -0.84493544735687       -1.42156937404955       -1.34380286147310
H           -0.01201297349023       -2.61022216983579       -0.32172002416171
H            0.80628425414069        0.69792087806637       -0.22778410082518
H            6.92128753204571        1.40736664024659       -1.49462929435939
H            7.10144541140975        0.32946962427217       -0.08966265341493
H            6.81498665367629       -0.35827053456465       -1.69250030672355
H            5.94850984526560       -1.80880762098872        0.07632844428615
H            4.65132379736942       -1.82157755770305        1.32488603119897
H            4.34733768114154       -2.54245075839874       -0.29374559852566
H            0.20834889651677        2.84391068834289        1.49953822749206
H           -0.55298101036797        2.26939482921279        2.99638450539475
H            0.51098916504459        1.18787297490437        2.06822440013121
H           -5.33360003146857        2.68578802238552       -0.10522186240854

          :  Hamiltonian                  GFN1-xTB          :
         :: total energy             -86.298010235115 Eh    ::
         :: gradient norm              0.000676960761 Eh/a0 ::
         :: HOMO-LUMO gap              1.806262188074 eV    ::
         :: SCC energy               -87.134712549524 Eh    ::
         :: -> Gsolv                  -0.124585397069 Eh    ::
         :: repulsion energy           0.865950385924 Eh    ::

    * Orbital Energies and Occupations

         #    Occupation            Energy/Eh            Energy/eV
      -------------------------------------------------------------
         1        2.0000           -0.9704978             -26.4086
       ...           ...                  ...                  ...
        58        2.0000           -0.5218908             -14.2014
        59        2.0000           -0.5190866             -14.1251
        60        2.0000           -0.5174715             -14.0811
        61        2.0000           -0.5148910             -14.0109
        62        2.0000           -0.5119908             -13.9320
        63        2.0000           -0.5031784             -13.6922
        64        2.0000           -0.4976819             -13.5426
        65        2.0000           -0.4937626             -13.4360
        66        2.0000           -0.4840463             -13.1716
        67        2.0000           -0.4800175             -13.0619
        68        2.0000           -0.4661402             -12.6843
        69        2.0000           -0.4520191             -12.3001
        70        2.0000           -0.4349443             -11.8354 (HOMO)
        71                         -0.3685654             -10.0292 (LUMO)
        72                         -0.3312399              -9.0135
        73                         -0.3164090              -8.6099
        74                         -0.2932390              -7.9794
        75                         -0.2494606              -6.7882
        76                         -0.2479425              -6.7469
        77                         -0.1913736              -5.2075
        78                         -0.1766553              -4.8070
        79                         -0.1651063              -4.4928
        80                         -0.1501253              -4.0851
        81                         -0.1402471              -3.8163
       ...                                ...                  ...
       144                          0.7134000              19.4126
      -------------------------------------------------------------
                  HL-Gap            0.0663789 Eh            1.8063 eV

Wiberg/Mayer (AO) data.
largest (>0.10) Wiberg bond orders for each atom

     #   Z sym  total        # sym  WBO       # sym  WBO       # sym  WBO
 ---------------------------------------------------------------------------
     1   6 C    3.864 --    28 H    0.986    27 H    0.979    29 H    0.979
                             2 O    0.890
     2   8 O    2.218 --     3 C    1.139     1 C    0.890     4 O    0.131
     3   6 C    3.849 --     4 O    1.609     2 O    1.139     5 C    1.017
     4   8 O    1.944 --     3 C    1.609     2 O    0.131
     5   6 C    3.963 --    25 C    1.475     6 N    1.186     3 C    1.017
     6   7 N    3.033 --     7 C    1.572     5 C    1.186
     7   6 C    3.935 --     6 N    1.572    21 N    1.176     8 C    0.977
     8   6 C    3.915 --    10 C    0.988     9 C    0.982     7 C    0.977
                            11 N    0.901
     9   6 C    3.985 --    32 H    0.983     8 C    0.982    30 H    0.979
                            31 H    0.977
    10   6 C    3.986 --     8 C    0.988    34 H    0.984    35 H    0.982
                            33 H    0.981
    11   7 N    3.383 --    12 C    1.291     8 C    0.901    36 H    0.891
                            13 O    0.191
    12   6 C    3.926 --    13 O    1.591    11 N    1.291    14 C    0.969
    13   8 O    1.948 --    12 C    1.591    11 N    0.191
    14   6 C    3.802 --    15 N    1.703    12 C    0.969    19 O    0.888
    15   7 N    3.045 --    14 C    1.703    16 N    1.148
    16   7 N    3.024 --    17 C    1.694    15 N    1.148
    17   6 C    3.801 --    16 N    1.694    18 C    1.044    19 O    0.877
    18   6 C    3.968 --    17 C    1.044    37 H    0.969    38 H    0.950
                            39 H    0.950
    19   8 O    2.656 --    14 C    0.888    17 C    0.877    20 C    0.744
    20   6 C    3.721 --    40 H    0.974    42 H    0.967    41 H    0.967
                            19 O    0.744
    21   7 N    3.500 --     7 C    1.176    23 C    1.103    22 C    0.930
                            24 O    0.136
    22   6 C    3.922 --    45 H    0.979    43 H    0.975    44 H    0.974
                            21 N    0.930
    23   6 C    3.911 --    24 O    1.592    21 N    1.103    25 C    1.068
    24   8 O    1.907 --    23 C    1.592    21 N    0.136
    25   6 C    3.923 --     5 C    1.475    26 O    1.129    23 C    1.068
    26   8 O    2.097 --    25 C    1.129    46 H    0.776
    27   1 H    1.006 --     1 C    0.979
    28   1 H    1.010 --     1 C    0.986
    29   1 H    1.006 --     1 C    0.979
    30   1 H    1.000 --     9 C    0.979
    31   1 H    1.007 --     9 C    0.977
    32   1 H    1.000 --     9 C    0.983
    33   1 H    1.010 --    10 C    0.981
    34   1 H    1.006 --    10 C    0.984
    35   1 H    1.002 --    10 C    0.982
    36   1 H    0.939 --    11 N    0.891
    37   1 H    0.989 --    18 C    0.969
    38   1 H    0.988 --    18 C    0.950
    39   1 H    0.988 --    18 C    0.950
    40   1 H    0.990 --    20 C    0.974
    41   1 H    0.998 --    20 C    0.967
    42   1 H    0.998 --    20 C    0.967
    43   1 H    1.003 --    22 C    0.975
    44   1 H    1.003 --    22 C    0.974
    45   1 H    1.008 --    22 C    0.979
    46   1 H    0.850 --    26 O    0.776
 ---------------------------------------------------------------------------

           -------------------------------------------------
          | TOTAL ENERGY              -86.298010235115 Eh   |
          | GRADIENT NORM               0.000676960761 Eh/α |
          | HOMO-LUMO GAP               1.806262188074 eV   |
           -------------------------------------------------

 * finished run on 2023/06/20 at 15:36:32.742
