   * xtb version 6.5.1 (579679a) compiled by 'ehlert@majestix' on 2022-07-11
          program call               : /lustre/hpc/kemi/ree/PhD/git/ReactivityQM/dep/xtb-6.5.1/bin/xtb --gfn 1 /lustre/hpc/kemi/ree/PhD/git/ReactivityQM/calculations/R02oxygendeprot/reac01prodN04/conf17/R02oxygendeprot_reac01prodN04_conf17_gfn1.xyz --opt --vfukui --chrg 0 --uhf 0 --alpb DMSO

   ID    Z sym.   atoms
    1    6 C      1, 3, 5, 6, 8-11, 13, 15, 18, 19, 22, 24
    2    8 O      2, 4, 14, 20, 23, 25
    3    7 N      7, 12, 16, 17, 21
    4    1 H      26-42

      * Solvation model:               ALPB
        Solvent                        DMSO
        Solvent mass                       7.8130E+01 g/mol
          :  Hamiltonian                  GFN1-xTB          :
 * total energy  :   -82.9636474 Eh     change       -0.1026024E-10 Eh
 * total energy  :   -82.9800892 Eh     change       -0.1644182E-01 Eh
 * total energy  :   -82.9857302 Eh     change       -0.5641029E-02 Eh
 * total energy  :   -82.9868994 Eh     change       -0.1169222E-02 Eh
 * total energy  :   -82.9876125 Eh     change       -0.7131219E-03 Eh
 * total energy  :   -82.9880140 Eh     change       -0.4014462E-03 Eh
 * total energy  :   -82.9884026 Eh     change       -0.3886339E-03 Eh
 * total energy  :   -82.9886950 Eh     change       -0.2923448E-03 Eh
 * total energy  :   -82.9888865 Eh     change       -0.1915490E-03 Eh
 * total energy  :   -82.9890096 Eh     change       -0.1231028E-03 Eh
 * total energy  :   -82.9899114 Eh     change       -0.1123858E-04 Eh
 * total energy  :   -82.9899174 Eh     change       -0.6023545E-05 Eh
 * total energy  :   -82.9899317 Eh     change       -0.1427500E-04 Eh
 * total energy  :   -82.9899397 Eh     change       -0.8061867E-05 Eh
 * total energy  :   -82.9899472 Eh     change       -0.7458647E-05 Eh
 * total energy  :   -82.9899559 Eh     change       -0.8672529E-05 Eh
 * total energy  :   -82.9899598 Eh     change       -0.3900924E-05 Eh
 * total energy  :   -82.9899621 Eh     change       -0.2347251E-05 Eh
 * total energy  :   -82.9899668 Eh     change       -0.4659565E-05 Eh
   *** GEOMETRY OPTIMIZATION CONVERGED AFTER 44 ITERATIONS ***

 final structure:
================
42
 xtb: 6.5.1 (579679a)
C           -5.21083454043322       -1.97955879991157       -0.46416856489715
O           -4.98622195416378       -0.59354016149502       -0.74143167382242
C           -3.87083883373185        0.06593922435873       -0.52231859224860
O           -3.74511047864468        1.16164561136832       -1.24994810463581
C           -4.75040865599717        1.48614644417967       -2.21316682626840
C           -2.81054261253089       -0.24146473242067        0.34642812505080
N           -1.67684021778655        0.53539626266934        0.10612550414562
C           -0.61611425831793        0.37546129608743        0.79748737713523
C            0.59833612154026        1.24429962235810        0.54795545673641
C            0.74415384875149        2.22647917740387        1.71951984088280
C            0.44434963129093        1.99197485704209       -0.77952121922721
N            1.76265348497501        0.35134038164988        0.48711514406954
C            3.03041604169849        0.79186651948583        0.32495186748336
O            3.38607183632188        1.95606992304508        0.32832568457304
C            3.96334026896657       -0.35137671379113        0.14937279756508
N            3.63249097402811       -1.60614581294524        0.08351048026315
N            4.78668620290609       -2.30796824258941       -0.09278426604722
C            5.74844504518809       -1.43561779443177       -0.12537618974353
C            7.19569066648063       -1.69291454508939       -0.29289471948738
O            5.29169020756736       -0.18314464775831        0.02115349505595
N           -0.52250576498479       -0.55104064262264        1.81513320204482
C           -1.55815825481234       -1.35660538443112        2.20699590885442
O           -1.41342373692877       -2.17716271927713        3.09404918991560
C           -2.86783588703964       -1.14171041647517        1.46429124799261
O           -3.88130862694384       -1.69906614874463        1.88280194924999
H           -4.27532087320823       -2.53842897340312       -0.49319191218497
H           -5.88249777644019       -2.33256697941990       -1.24743977207353
H           -5.68829355258320       -2.09157757903438        0.51045855795979
H           -4.39677272938255        2.37671485842606       -2.72931696977043
H           -4.87765256041105        0.66330767160241       -2.91932243710517
H           -5.70032770473598        1.68949837421287       -1.71433217008410
H           -0.17141115697671        2.80855956191905        1.81436537663988
H            1.57750349036055        2.90385669655708        1.54459908073303
H            0.91565119473309        1.68200684277779        2.64611780597386
H            0.33467647962937        1.28128137048216       -1.59693841455685
H           -0.44623613091362        2.61711245738899       -0.73863788884549
H            1.31584598833785        2.61865997112721       -0.95878638418845
H            1.59641342606490       -0.63535220103971        0.35512082367683
H            7.36326617222787       -2.75808385312737       -0.43274131997567
H            7.73870854950388       -1.35103111015811        0.58871468385702
H            7.57425287831454       -1.14529747830550       -1.15603809064858
H            0.34801579807665       -0.65795818765843        2.31279991595472

          :  Hamiltonian                  GFN1-xTB          :
         :: total energy             -82.989966767623 Eh    ::
         :: gradient norm              0.000419693472 Eh/a0 ::
         :: HOMO-LUMO gap              2.339282574736 eV    ::
         :: SCC energy               -83.769314572722 Eh    ::
         :: -> Gsolv                  -0.055184414069 Eh    ::
         :: repulsion energy           0.804597948086 Eh    ::

    * Orbital Energies and Occupations

         #    Occupation            Energy/Eh            Energy/eV
      -------------------------------------------------------------
         1        2.0000           -0.8637022             -23.5025
       ...           ...                  ...                  ...
        55        2.0000           -0.5057753             -13.7628
        56        2.0000           -0.5042427             -13.7211
        57        2.0000           -0.5000698             -13.6076
        58        2.0000           -0.4931974             -13.4206
        59        2.0000           -0.4826347             -13.1332
        60        2.0000           -0.4770568             -12.9814
        61        2.0000           -0.4657285             -12.6731
        62        2.0000           -0.4610152             -12.5449
        63        2.0000           -0.4533445             -12.3361
        64        2.0000           -0.4502581             -12.2521
        65        2.0000           -0.4470439             -12.1647
        66        2.0000           -0.4240369             -11.5386
        67        2.0000           -0.4155629             -11.3080 (HOMO)
        68                         -0.3295959              -8.9688 (LUMO)
        69                         -0.3111004              -8.4655
        70                         -0.2738168              -7.4509
        71                         -0.2569249              -6.9913
        72                         -0.2522088              -6.8630
        73                         -0.1992451              -5.4217
        74                         -0.1601653              -4.3583
        75                         -0.1478402              -4.0229
        76                         -0.1420062              -3.8642
        77                         -0.1378187              -3.7502
        78                         -0.1262577              -3.4356
       ...                                ...                  ...
       134                          0.7502911              20.4165
      -------------------------------------------------------------
                  HL-Gap            0.0859671 Eh            2.3393 eV

Wiberg/Mayer (AO) data.
largest (>0.10) Wiberg bond orders for each atom

     #   Z sym  total        # sym  WBO       # sym  WBO       # sym  WBO
 ---------------------------------------------------------------------------
     1   6 C    3.843 --    26 H    0.982    27 H    0.980    28 H    0.969
                             2 O    0.871
     2   8 O    2.227 --     3 C    1.150     1 C    0.871
     3   6 C    3.830 --     6 C    1.313     2 O    1.150     4 O    1.147
     4   8 O    2.228 --     3 C    1.147     5 C    0.888
     5   6 C    3.861 --    29 H    0.984    31 H    0.978    30 H    0.978
                             4 O    0.888
     6   6 C    3.923 --     3 C    1.313    24 C    1.184     7 N    1.105
     7   7 N    3.027 --     8 C    1.669     6 C    1.105
     8   6 C    3.932 --     7 N    1.669    21 N    1.098     9 C    0.979
     9   6 C    3.933 --    11 C    0.992    10 C    0.980     8 C    0.979
                            12 N    0.919
    10   6 C    3.987 --    32 H    0.985    34 H    0.984     9 C    0.980
                            33 H    0.978
    11   6 C    3.990 --     9 C    0.992    35 H    0.985    36 H    0.984
                            37 H    0.983
    12   7 N    3.335 --    13 C    1.245     9 C    0.919    38 H    0.895
                            14 O    0.175
    13   6 C    3.916 --    14 O    1.599    12 N    1.245    15 C    0.988
    14   8 O    1.915 --    13 C    1.599    12 N    0.175
    15   6 C    3.875 --    16 N    1.610    20 O    1.065    13 C    0.988
    16   7 N    3.018 --    15 C    1.610    17 N    1.200
    17   7 N    2.981 --    18 C    1.605    16 N    1.200
    18   6 C    3.871 --    17 N    1.605    20 O    1.083    19 C    1.031
    19   6 C    3.986 --    18 C    1.031    39 H    0.983    41 H    0.964
                            40 H    0.962
    20   8 O    2.331 --    18 C    1.083    15 C    1.065
    21   7 N    3.432 --    22 C    1.162     8 C    1.098    42 H    0.887
                            23 O    0.139
    22   6 C    3.885 --    23 O    1.636    21 N    1.162    24 C    0.942
    23   8 O    1.912 --    22 C    1.636    21 N    0.139
    24   6 C    3.920 --    25 O    1.601     6 C    1.184    22 C    0.942
    25   8 O    1.924 --    24 C    1.601
    26   1 H    1.007 --     1 C    0.982
    27   1 H    1.009 --     1 C    0.980
    28   1 H    1.022 --     1 C    0.969
    29   1 H    1.009 --     5 C    0.984
    30   1 H    1.004 --     5 C    0.978
    31   1 H    1.005 --     5 C    0.978
    32   1 H    1.002 --    10 C    0.985
    33   1 H    1.010 --    10 C    0.978
    34   1 H    1.001 --    10 C    0.984
    35   1 H    1.006 --    11 C    0.985
    36   1 H    1.010 --    11 C    0.984
    37   1 H    1.006 --    11 C    0.983
    38   1 H    0.952 --    12 N    0.895
    39   1 H    0.998 --    19 C    0.983
    40   1 H    0.997 --    19 C    0.962
    41   1 H    0.997 --    19 C    0.964
    42   1 H    0.933 --    21 N    0.887
 ---------------------------------------------------------------------------

           -------------------------------------------------
          | TOTAL ENERGY              -82.989966767623 Eh   |
          | GRADIENT NORM               0.000419693472 Eh/α |
          | HOMO-LUMO GAP               2.339282574736 eV   |
           -------------------------------------------------

 * finished run on 2023/06/21 at 17:20:14.911
