   * xtb version 6.5.1 (579679a) compiled by 'ehlert@majestix' on 2022-07-11
          program call               : /lustre/hpc/kemi/ree/PhD/git/ReactivityQM/dep/xtb-6.5.1/bin/xtb --gfn 1 /lustre/hpc/kemi/ree/PhD/git/ReactivityQM/calculations/RaltegravirCLI/reac02prodE06/conf13/RaltegravirCLI_reac02prodE06_conf13_gfn1.xyz --opt --vfukui --chrg -1 --uhf 0 --alpb DMSO

   ID    Z sym.   atoms
    1    6 C      1, 3-6, 9, 10, 13-18, 20-22, 24
    2    7 N      2, 7, 8, 12
    3    8 O      11, 23, 25
    4    9 F      19
    5    1 H      26-47

      * Solvation model:               ALPB
        Solvent                        DMSO
        Solvent mass                       7.8130E+01 g/mol
          :  Hamiltonian                  GFN1-xTB          :
 * total energy  :   -80.1710390 Eh     change       -0.1400963E-08 Eh
 * total energy  :   -80.1772622 Eh     change       -0.6223163E-02 Eh
 * total energy  :   -80.1788459 Eh     change       -0.1583715E-02 Eh
 * total energy  :   -80.1790407 Eh     change       -0.1948438E-03 Eh
 * total energy  :   -80.1791685 Eh     change       -0.1278025E-03 Eh
 * total energy  :   -80.1792336 Eh     change       -0.6507077E-04 Eh
 * total energy  :   -80.1793083 Eh     change       -0.7473001E-04 Eh
 * total energy  :   -80.1793548 Eh     change       -0.4649003E-04 Eh
 * total energy  :   -80.1793889 Eh     change       -0.3407249E-04 Eh
 * total energy  :   -80.1794159 Eh     change       -0.2700360E-04 Eh
 * total energy  :   -80.1859481 Eh     change       -0.2607020E-04 Eh
 * total energy  :   -80.1859674 Eh     change       -0.1932117E-04 Eh
 * total energy  :   -80.1859804 Eh     change       -0.1303454E-04 Eh
 * total energy  :   -80.1859920 Eh     change       -0.1157375E-04 Eh
 * total energy  :   -80.1860033 Eh     change       -0.1130687E-04 Eh
 * total energy  :   -80.1860121 Eh     change       -0.8842644E-05 Eh
 * total energy  :   -80.1860189 Eh     change       -0.6756898E-05 Eh
 * total energy  :   -80.1860243 Eh     change       -0.5379037E-05 Eh
 * total energy  :   -80.1860291 Eh     change       -0.4856738E-05 Eh
   *** GEOMETRY OPTIMIZATION CONVERGED AFTER 86 ITERATIONS ***

 final structure:
================
47
 xtb: 6.5.1 (579679a)
C           -4.30020757402808        1.93231952450566       -0.04900776105330
N           -2.96217651759845        1.54522051952110       -0.48584390501394
C           -2.39157719674197        0.33293274507912       -0.18213445557474
C           -3.07551947604415       -0.75456854559942        0.65975630051774
C           -4.50438266998133       -1.09222886294186        0.21116953396335
C           -3.02573185325325       -0.38199823527292        2.14922359170874
N           -2.30312847543671       -1.98757391299455        0.51401189165561
N           -1.19402769887475        0.03158212066378       -0.57235246179670
C           -0.45067491403932        0.91222329520236       -1.31440452955666
C            0.90530065773059        0.51864614016189       -1.69076707691336
O            1.66446690788068        1.28105921550676       -2.33089729415958
N            1.23902258818954       -0.75552872961355       -1.36947243750074
C            2.61229961751723       -1.18035697226331       -1.28885028498398
C            3.19234961744515       -1.05125186649343        0.18924060475513
C            2.49823769809835       -2.14398502573949        1.03770621293016
C            4.67347453108118       -1.30809030908262        0.10559264433563
C            5.60719366836764       -0.33485328252922        0.33396249306408
C            5.20865974812502        0.93788112982744        0.74056520939832
F            6.16931377140779        1.89181160539313        0.99093888014915
C            3.86853156227159        1.24499880903495        0.98358815306736
C            2.89804565134917        0.31117095506138        0.75839029599728
C           -0.97642659283987        2.13934689918858       -1.68274114383689
O           -0.26687201950462        3.01908067839093       -2.42734462532031
C           -2.30498967838762        2.50927749922120       -1.28840668224793
O           -2.87833528417956        3.56380106459824       -1.58060280304701
H           -5.05395391386178        1.50269665674401       -0.70954135313880
H           -4.47782509430018        1.61334057458771        0.97288843416909
H           -4.37384850328053        3.01974766059021       -0.09473023409592
H           -4.74330233812598       -2.09706385828612        0.55978082793857
H           -4.58032532977031       -1.07700216702002       -0.87533043529307
H           -5.24029951615539       -0.41082500188918        0.63028806486399
H           -3.63304808388091        0.49317732399854        2.36907292749821
H           -1.99673790644975       -0.17680721037832        2.44417830387639
H           -3.39811085320475       -1.22031911225174        2.73712140616024
H           -2.26972245353030       -2.24097320444923       -0.46673133630436
H           -1.34483582667883       -1.81420240169405        0.80599892542455
H            0.56898951433168       -1.25016955377210       -0.79561295839034
H            3.21026454681771       -0.55728947745278       -1.96086767631834
H            2.69237524367129       -2.22413071940773       -1.60520929027631
H            1.42095250797587       -1.97810662070864        1.07147025581817
H            2.68747720122153       -3.13470186415804        0.62311157224201
H            2.88402689308872       -2.11346043796813        2.05666008875561
H            4.98128356304990       -2.30602801141842       -0.18849442806787
H            6.66536106078338       -0.55335488959127        0.22927543945660
H            3.61159469218852        2.22292958173215        1.37986077439272
H            1.86059948811038        0.53069536022083        0.98792247038924
H            0.62624103943583        2.59092991374231       -2.58243312963026

          :  Hamiltonian                  GFN1-xTB          :
         :: total energy             -80.186029135705 Eh    ::
         :: gradient norm              0.000354145491 Eh/a0 ::
         :: HOMO-LUMO gap              0.334963490729 eV    ::
         :: SCC energy               -81.033997670244 Eh    ::
         :: -> Gsolv                  -0.095541075328 Eh    ::
         :: repulsion energy           0.880059616658 Eh    ::

    * Orbital Energies and Occupations

         #    Occupation            Energy/Eh            Energy/eV
      -------------------------------------------------------------
         1        2.0000           -0.8015294             -21.8107
       ...           ...                  ...                  ...
        56        2.0000           -0.4580239             -12.4635
        57        2.0000           -0.4444252             -12.0934
        58        2.0000           -0.4411878             -12.0053
        59        2.0000           -0.4387493             -11.9390
        60        2.0000           -0.4312572             -11.7351
        61        2.0000           -0.4250773             -11.5669
        62        2.0000           -0.4173316             -11.3562
        63        2.0000           -0.4081209             -11.1055
        64        2.0000           -0.4045282             -11.0078
        65        2.0000           -0.3973987             -10.8138
        66        2.0000           -0.3951537             -10.7527
        67        2.0000           -0.3895386             -10.5999
        68        1.9969           -0.2992248              -8.1423 (HOMO)
        69        0.0031           -0.2869151              -7.8074 (LUMO)
        70                         -0.2494992              -6.7892
        71                         -0.2098372              -5.7100
        72                         -0.2004681              -5.4550
        73                         -0.1350921              -3.6760
        74                         -0.1290095              -3.5105
        75                         -0.1225762              -3.3355
        76                         -0.1157218              -3.1490
        77                         -0.1093641              -2.9759
        78                         -0.1087914              -2.9604
        79                         -0.0918959              -2.5006
       ...                                ...                  ...
       144                          0.7067352              19.2312
      -------------------------------------------------------------
                  HL-Gap            0.0123097 Eh            0.3350 eV

Wiberg/Mayer (AO) data.
largest (>0.10) Wiberg bond orders for each atom

     #   Z sym  total        # sym  WBO       # sym  WBO       # sym  WBO
 ---------------------------------------------------------------------------
     1   6 C    3.940 --    26 H    0.979    27 H    0.978    28 H    0.973
                             2 N    0.945
     2   7 N    3.420 --     3 C    1.166    24 C    1.053     1 C    0.945
                            25 O    0.115
     3   6 C    3.913 --     8 N    1.570     2 N    1.166     4 C    0.963
     4   6 C    3.969 --     7 N    0.993     5 C    0.992     6 C    0.986
                             3 C    0.963
     5   6 C    3.994 --     4 C    0.992    30 H    0.986    29 H    0.983
                            31 H    0.983
     6   6 C    3.994 --     4 C    0.986    33 H    0.985    34 H    0.984
                            32 H    0.979
     7   7 N    2.963 --     4 C    0.993    35 H    0.947    36 H    0.944
     8   7 N    3.051 --     3 C    1.570     9 C    1.171
     9   6 C    3.911 --    22 C    1.394     8 N    1.171    10 C    1.078
    10   6 C    3.917 --    11 O    1.439    12 N    1.227     9 C    1.078
    11   8 O    1.861 --    10 C    1.439    12 N    0.135    47 H    0.103
    12   7 N    3.349 --    10 C    1.227    13 C    0.968    37 H    0.905
                            11 O    0.135
    13   6 C    3.927 --    39 H    0.978    38 H    0.977    12 N    0.968
                            14 C    0.893
    14   6 C    3.981 --    21 C    1.027    16 C    1.024    15 C    0.976
                            13 C    0.893
    15   6 C    3.986 --    42 H    0.986    41 H    0.985    40 H    0.982
                            14 C    0.976
    16   6 C    3.862 --    17 C    1.585    14 C    1.024    43 H    0.976
    17   6 C    3.994 --    16 C    1.585    18 C    1.320    44 H    0.971
    18   6 C    3.692 --    17 C    1.320    20 C    1.310    19 F    0.860
    19   9 F    0.950 --    18 C    0.860
    20   6 C    3.994 --    21 C    1.599    18 C    1.310    45 H    0.971
    21   6 C    3.922 --    20 C    1.599    14 C    1.027    46 H    0.975
    22   6 C    3.862 --     9 C    1.394    24 C    1.151    23 O    1.078
    23   8 O    2.018 --    22 C    1.078    47 H    0.761
    24   6 C    3.860 --    25 O    1.516    22 C    1.151     2 N    1.053
    25   8 O    1.811 --    24 C    1.516     2 N    0.115
    26   1 H    1.004 --     1 C    0.979
    27   1 H    1.010 --     1 C    0.978
    28   1 H    1.013 --     1 C    0.973
    29   1 H    1.009 --     5 C    0.983
    30   1 H    1.002 --     5 C    0.986
    31   1 H    1.006 --     5 C    0.983
    32   1 H    1.006 --     6 C    0.979
    33   1 H    1.003 --     6 C    0.985
    34   1 H    1.006 --     6 C    0.984
    35   1 H    0.971 --     7 N    0.947
    36   1 H    0.983 --     7 N    0.944
    37   1 H    0.975 --    12 N    0.905
    38   1 H    1.028 --    13 C    0.977
    39   1 H    1.012 --    13 C    0.978
    40   1 H    1.007 --    15 C    0.982
    41   1 H    1.007 --    15 C    0.985
    42   1 H    1.018 --    15 C    0.986
    43   1 H    1.002 --    16 C    0.976
    44   1 H    1.005 --    17 C    0.971
    45   1 H    1.006 --    20 C    0.971
    46   1 H    1.005 --    21 C    0.975
    47   1 H    0.874 --    23 O    0.761    11 O    0.103
 ---------------------------------------------------------------------------

           -------------------------------------------------
          | TOTAL ENERGY              -80.186029135705 Eh   |
          | GRADIENT NORM               0.000354145491 Eh/α |
          | HOMO-LUMO GAP               0.334963490729 eV   |
           -------------------------------------------------

 * finished run on 2023/06/20 at 15:03:17.706
