   * xtb version 6.5.1 (579679a) compiled by 'ehlert@majestix' on 2022-07-11
          program call               : /lustre/hpc/kemi/ree/PhD/git/ReactivityQM/dep/xtb-6.5.1/bin/xtb --gfn 1 /lustre/hpc/kemi/ree/PhD/git/ReactivityQM/calculations/R02deprot/reac01prodE04/conf20/R02deprot_reac01prodE04_conf20_gfn1.xyz --opt --vfukui --chrg -2 --uhf 0 --alpb DMSO

   ID    Z sym.   atoms
    1    6 C      1, 3, 5, 6, 8-11, 13, 15, 18, 19, 22, 24
    2    8 O      2, 4, 14, 20, 23, 25
    3    7 N      7, 12, 16, 17, 21
    4    1 H      26-42

      * Solvation model:               ALPB
        Solvent                        DMSO
        Solvent mass                       7.8130E+01 g/mol
          :  Hamiltonian                  GFN1-xTB          :
 * total energy  :   -83.5716060 Eh     change       -0.2495426E-10 Eh
 * total energy  :   -83.5889406 Eh     change       -0.1733460E-01 Eh
 * total energy  :   -83.5955189 Eh     change       -0.6578337E-02 Eh
 * total energy  :   -83.5969240 Eh     change       -0.1405040E-02 Eh
 * total energy  :   -83.5976850 Eh     change       -0.7610044E-03 Eh
 * total energy  :   -83.5980125 Eh     change       -0.3274960E-03 Eh
 * total energy  :   -83.5982342 Eh     change       -0.2217711E-03 Eh
 * total energy  :   -83.5984490 Eh     change       -0.2147998E-03 Eh
 * total energy  :   -83.5986907 Eh     change       -0.2416193E-03 Eh
 * total energy  :   -83.5990104 Eh     change       -0.3197798E-03 Eh
 * total energy  :   -83.6018075 Eh     change       -0.2404012E-04 Eh
 * total energy  :   -83.6018325 Eh     change       -0.2502617E-04 Eh
 * total energy  :   -83.6018517 Eh     change       -0.1922949E-04 Eh
 * total energy  :   -83.6018670 Eh     change       -0.1533429E-04 Eh
 * total energy  :   -83.6018806 Eh     change       -0.1356318E-04 Eh
 * total energy  :   -83.6018880 Eh     change       -0.7385950E-05 Eh
 * total energy  :   -83.6018939 Eh     change       -0.5940246E-05 Eh
 * total energy  :   -83.6018999 Eh     change       -0.6000435E-05 Eh
 * total energy  :   -83.6019045 Eh     change       -0.4558748E-05 Eh
   *** GEOMETRY OPTIMIZATION CONVERGED AFTER 39 ITERATIONS ***

 final structure:
================
42
 xtb: 6.5.1 (579679a)
C           -4.33556283210797        3.05729156423790        0.11784684216573
O           -3.63847124510675        2.09068706360039       -0.65450855432024
C           -2.69874816957896        1.35392424757317        0.00611786115697
O           -2.44222757417556        1.57538640809262        1.18100038485103
C           -2.20136140269908        0.15789709565815       -0.82130249645458
C           -2.08296120065707        0.51250110860102       -2.31479918527921
N           -0.91361976181496       -0.28809678176844       -0.32627142443375
C           -0.90562159086751       -1.28854055001459        0.52344790720075
C            0.47571053682891       -1.67250278447720        1.08434932788642
C            0.42460237472876       -1.63674190158764        2.61850971348948
C            0.82844025003897       -3.08554717326500        0.59466014947422
N            1.44651765891901       -0.70524924546035        0.58630635907433
C            2.77123201122756       -0.72282656752130        0.83094787875885
O            3.34880447018438       -1.54248374437186        1.55939595690080
C            3.46462080875109        0.36777651891122        0.13739640889069
N            2.91119438405781        1.28702401044897       -0.62498681246413
N            3.92233529056381        2.10096563086799       -1.05518728356828
C            5.01810757628713        1.64282514989085       -0.54181122980225
C            6.38627301531726        2.18585095853779       -0.71389671963604
O            4.81464102407779        0.55165738826342        0.22329413792183
N           -1.88547681874776       -2.06147453175874        0.96741203255264
C           -3.15040925812427       -1.87182112991390        0.39704199054199
O           -4.11259438671796       -2.66388066202555        0.66118643222746
C           -3.28736573656963       -0.82632466225636       -0.51655074826944
O           -4.53229179421028       -0.64262750009062       -1.15681289434674
H           -4.99444306639735        3.59765866374269       -0.56134319062854
H           -3.63655782381109        3.75938180334445        0.58559719226148
H           -4.93041292725927        2.57690535257396        0.90260357404635
H           -1.72603002051563       -0.36061571811197       -2.86041239146228
H           -3.04951628100657        0.81138090632504       -2.71776675478606
H           -1.36994400769705        1.32539994513787       -2.45233413021889
H            0.25422458622140       -0.61655536631245        2.96459976688120
H           -0.40002992661407       -2.26584965422621        2.95663392804515
H            1.35472115848980       -2.00473105073596        3.05045326060984
H            0.93652499408570       -3.08951891567611       -0.49028576280282
H            0.01942977922519       -3.76333137379459        0.87030170428534
H            1.75750886908113       -3.43677272961369        1.04258160846375
H            1.06375017791101       -0.01913740390059       -0.06668963072190
H            7.03783313707338        1.43451223685786       -1.15958566174050
H            6.80581786858530        2.46439405913535        0.25254895028760
H            6.35205592308696        3.06116097752140       -1.35773478221875
H           -5.10069207006815       -1.34995264244128       -0.80543871481886

          :  Hamiltonian                  GFN1-xTB          :
         :: total energy             -83.601904497519 Eh    ::
         :: gradient norm              0.000959432124 Eh/a0 ::
         :: HOMO-LUMO gap              0.092674173857 eV    ::
         :: SCC energy               -84.326436808850 Eh    ::
         :: -> Gsolv                  -0.278422408842 Eh    ::
         :: repulsion energy           0.750805464577 Eh    ::

    * Orbital Energies and Occupations

         #    Occupation            Energy/Eh            Energy/eV
      -------------------------------------------------------------
         1        2.0000           -0.8253772             -22.4597
       ...           ...                  ...                  ...
        56        2.0000           -0.4370766             -11.8935
        57        2.0000           -0.4331486             -11.7866
        58        2.0000           -0.4238054             -11.5323
        59        2.0000           -0.4234439             -11.5225
        60        2.0000           -0.4184477             -11.3865
        61        2.0000           -0.4092575             -11.1365
        62        2.0000           -0.4034260             -10.9778
        63        2.0000           -0.3933944             -10.7048
        64        2.0000           -0.3827315             -10.4147
        65        2.0000           -0.3511732              -9.5559
        66        2.0000           -0.3238908              -8.8135
        67        2.0000           -0.3226110              -8.7787
        68        1.7144           -0.2772340              -7.5439 (HOMO)
        69        0.2856           -0.2738283              -7.4512 (LUMO)
        70                         -0.2274226              -6.1885
        71                         -0.2110353              -5.7426
        72                         -0.1696007              -4.6151
        73                         -0.1551815              -4.2227
        74                         -0.1315837              -3.5806
        75                         -0.1197337              -3.2581
        76                         -0.0935735              -2.5463
        77                         -0.0898363              -2.4446
        78                         -0.0875117              -2.3813
        79                         -0.0816590              -2.2221
       ...                                ...                  ...
       134                          0.7111802              19.3522
      -------------------------------------------------------------
                  HL-Gap            0.0034057 Eh            0.0927 eV

Wiberg/Mayer (AO) data.
largest (>0.10) Wiberg bond orders for each atom

     #   Z sym  total        # sym  WBO       # sym  WBO       # sym  WBO
 ---------------------------------------------------------------------------
     1   6 C    3.902 --    26 H    0.987    27 H    0.981    28 H    0.981
                             2 O    0.925
     2   8 O    2.146 --     3 C    1.033     1 C    0.925     4 O    0.106
     3   6 C    3.768 --     4 O    1.603     2 O    1.033     5 C    0.911
                            24 C    0.112
     4   8 O    1.859 --     3 C    1.603     2 O    0.106
     5   6 C    3.972 --     7 N    0.992     6 C    0.977    24 C    0.963
                             3 C    0.911
     6   6 C    3.984 --    31 H    0.988    29 H    0.987    30 H    0.986
                             5 C    0.977
     7   7 N    2.892 --     8 C    1.490     5 C    0.992    21 N    0.173
     8   6 C    3.958 --     7 N    1.490    21 N    1.397     9 C    0.953
     9   6 C    3.925 --    10 C    0.987    11 C    0.984     8 C    0.953
                            12 N    0.927
    10   6 C    3.995 --     9 C    0.987    32 H    0.987    34 H    0.985
                            33 H    0.984
    11   6 C    3.994 --    35 H    0.987    37 H    0.985    36 H    0.984
                             9 C    0.984
    12   7 N    3.312 --    13 C    1.251     9 C    0.927    38 H    0.878
                            14 O    0.163
    13   6 C    3.853 --    14 O    1.489    12 N    1.251    15 C    1.041
    14   8 O    1.774 --    13 C    1.489    12 N    0.163
    15   6 C    3.750 --    16 N    1.513    13 C    1.041    20 O    1.016
    16   7 N    2.869 --    15 C    1.513    17 N    1.185
    17   7 N    2.980 --    18 C    1.625    16 N    1.185
    18   6 C    3.845 --    17 N    1.625    20 O    1.065    19 C    1.026
    19   6 C    3.992 --    18 C    1.026    41 H    0.985    40 H    0.969
                            39 H    0.969
    20   8 O    2.246 --    18 C    1.065    15 C    1.016
    21   7 N    2.869 --     8 C    1.397    22 C    1.091     7 N    0.173
    22   6 C    3.914 --    23 O    1.358    24 C    1.342    21 N    1.091
    23   8 O    1.656 --    22 C    1.358    24 C    0.103
    24   6 C    3.612 --    22 C    1.342     5 C    0.963    25 O    0.954
                             3 C    0.112    23 O    0.103
    25   8 O    1.898 --    24 C    0.954    42 H    0.853
    26   1 H    1.016 --     1 C    0.987
    27   1 H    1.016 --     1 C    0.981
    28   1 H    1.013 --     1 C    0.981
    29   1 H    1.018 --     6 C    0.987
    30   1 H    1.018 --     6 C    0.986
    31   1 H    1.013 --     6 C    0.988
    32   1 H    1.009 --    10 C    0.987
    33   1 H    1.028 --    10 C    0.984
    34   1 H    1.017 --    10 C    0.985
    35   1 H    1.009 --    11 C    0.987
    36   1 H    1.025 --    11 C    0.984
    37   1 H    1.016 --    11 C    0.985
    38   1 H    1.001 --    12 N    0.878
    39   1 H    0.999 --    19 C    0.969
    40   1 H    0.999 --    19 C    0.969
    41   1 H    1.002 --    19 C    0.985
    42   1 H    0.905 --    25 O    0.853
 ---------------------------------------------------------------------------

           -------------------------------------------------
          | TOTAL ENERGY              -83.601904497519 Eh   |
          | GRADIENT NORM               0.000959432124 Eh/α |
          | HOMO-LUMO GAP               0.092674173857 eV   |
           -------------------------------------------------

 * finished run on 2023/06/20 at 17:37:42.484
