   * xtb version 6.5.1 (579679a) compiled by 'ehlert@majestix' on 2022-07-11
          program call               : /lustre/hpc/kemi/ree/PhD/git/ReactivityQM/dep/xtb-6.5.1/bin/xtb --gfn 1 /lustre/hpc/kemi/ree/PhD/git/ReactivityQM/calculations/R02oxygendeprot/reac01prodN05/conf04/R02oxygendeprot_reac01prodN05_conf04_gfn1.xyz --opt --vfukui --chrg 0 --uhf 0 --alpb DMSO

   ID    Z sym.   atoms
    1    6 C      1, 3, 5, 6, 8, 11-14, 16, 18, 21, 22, 25
    2    8 O      2, 4, 7, 9, 17, 23
    3    7 N      10, 15, 19, 20, 24
    4    1 H      26-42

      * Solvation model:               ALPB
        Solvent                        DMSO
        Solvent mass                       7.8130E+01 g/mol
          :  Hamiltonian                  GFN1-xTB          :
 * total energy  :   -82.9806203 Eh     change       -0.4148148E-10 Eh
 * total energy  :   -82.9924188 Eh     change       -0.1179844E-01 Eh
 * total energy  :   -82.9976002 Eh     change       -0.5181461E-02 Eh
 * total energy  :   -82.9992355 Eh     change       -0.1635258E-02 Eh
 * total energy  :   -83.0005276 Eh     change       -0.1292050E-02 Eh
 * total energy  :   -83.0012473 Eh     change       -0.7197804E-03 Eh
 * total energy  :   -83.0016594 Eh     change       -0.4120478E-03 Eh
 * total energy  :   -83.0018976 Eh     change       -0.2382355E-03 Eh
 * total energy  :   -83.0020272 Eh     change       -0.1295921E-03 Eh
 * total energy  :   -83.0021194 Eh     change       -0.9222556E-04 Eh
 * total energy  :   -83.0026202 Eh     change       -0.2230997E-03 Eh
 * total energy  :   -83.0026314 Eh     change       -0.1119471E-04 Eh
 * total energy  :   -83.0026574 Eh     change       -0.2601292E-04 Eh
 * total energy  :   -83.0026720 Eh     change       -0.1458095E-04 Eh
 * total energy  :   -83.0025469 Eh     change        0.1250852E-03 Eh
 * total energy  :   -83.0026866 Eh     change       -0.1397118E-03 Eh
 * total energy  :   -83.0026951 Eh     change       -0.8494470E-05 Eh
 * total energy  :   -83.0027023 Eh     change       -0.7166223E-05 Eh
 * total energy  :   -83.0027066 Eh     change       -0.4366342E-05 Eh
   *** GEOMETRY OPTIMIZATION CONVERGED AFTER 34 ITERATIONS ***

 final structure:
================
42
 xtb: 6.5.1 (579679a)
C           -4.92134049213914        2.11590624739771       -1.68449757234131
O           -4.41425870810448        1.25120768117148       -0.66885970037440
C           -3.08499652372589        1.10765684067533       -0.62888507784210
O           -2.36193236745245        1.68513137386257       -1.42603064279952
C           -2.63039929212604        0.17868004481373        0.41340658215001
C           -3.51457313262369       -0.78692309561600        0.96939359316718
O           -4.72948125720987       -0.85670205263513        0.77628800337551
C           -2.87023276398663       -1.82728276409718        1.85090901677372
O           -3.46194202378679       -2.68776872721804        2.46969892532259
N           -1.48529586169952       -1.78554484140420        1.89683978931637
C           -0.68899686052058       -0.81854683288979        1.38837756550447
C            0.80247848252025       -0.97023341242511        1.66677026484093
C            1.20425869595986       -0.17550142551140        2.91487939836337
C            1.18913874001460       -2.44564903490080        1.86978490878775
N            1.56044559312893       -0.48071591513103        0.51813486886984
C            1.33312455797312       -0.98548674274489       -0.72052207262326
O            0.41252137184150       -1.73689430152290       -0.99134817444740
C            2.29362666137521       -0.48540735318626       -1.72710897875283
N            2.35043982896928       -0.77194585237791       -2.99034306923393
N            3.39456576343558       -0.06785770101105       -3.50615473400125
C            3.91176910745864        0.60800826226429       -2.52683990211726
C            5.06052540234994        1.53770051609206       -2.56933583108563
O            3.26071722113767        0.38892180759796       -1.37318912657723
N           -1.25648111573354        0.16678071793335        0.72596132924005
C           -0.48446840698790        1.36520374042977        0.37835072608217
H           -6.00139828693094        2.15355859680461       -1.55302633869065
H           -4.49400691862889        3.11590685664477       -1.57673060027169
H           -4.67423290913817        1.72645986469782       -2.67575589890658
H           -1.06767778929083       -2.50629294521541        2.46392882233977
H            0.63553453608934       -0.53527615531360        3.77043354944980
H            2.26424113910441       -0.32646002634782        3.10839785108500
H            1.02123972636780        0.88954843274910        2.79556832057308
H            2.27463439420741       -2.51657519888799        1.84570893330366
H            0.84956103241076       -2.81060730156952        2.83669176755079
H            0.77824555493111       -3.06690092798319        1.07538207044094
H            2.40974421553881        0.02595571904329        0.69818425350632
H            5.71657518017588        1.35439018323673       -1.72019889014162
H            4.70527199036661        2.56678051470076       -2.50473035457892
H            5.60838037149808        1.40603394632506       -3.49932565405608
H           -1.11867083235035        2.23803038064140        0.51050858951481
H           -0.14569150809484        1.30863524077609       -0.65444901377988
H            0.36903748366212        1.45407764011285        1.03703550305633

          :  Hamiltonian                  GFN1-xTB          :
         :: total energy             -83.002706625171 Eh    ::
         :: gradient norm              0.000353420291 Eh/a0 ::
         :: HOMO-LUMO gap              2.516769500594 eV    ::
         :: SCC energy               -83.785028833207 Eh    ::
         :: -> Gsolv                  -0.084220844017 Eh    ::
         :: repulsion energy           0.810110176534 Eh    ::

    * Orbital Energies and Occupations

         #    Occupation            Energy/Eh            Energy/eV
      -------------------------------------------------------------
         1        2.0000           -0.8699084             -23.6714
       ...           ...                  ...                  ...
        55        2.0000           -0.5099439             -13.8763
        56        2.0000           -0.5095698             -13.8661
        57        2.0000           -0.4932719             -13.4226
        58        2.0000           -0.4901662             -13.3381
        59        2.0000           -0.4885812             -13.2950
        60        2.0000           -0.4853215             -13.2063
        61        2.0000           -0.4756387             -12.9428
        62        2.0000           -0.4720978             -12.8464
        63        2.0000           -0.4665873             -12.6965
        64        2.0000           -0.4573718             -12.4457
        65        2.0000           -0.4550991             -12.3839
        66        2.0000           -0.4250436             -11.5660
        67        2.0000           -0.4136422             -11.2558 (HOMO)
        68                         -0.3211526              -8.7390 (LUMO)
        69                         -0.3191282              -8.6839
        70                         -0.3025285              -8.2322
        71                         -0.2603414              -7.0842
        72                         -0.2378147              -6.4713
        73                         -0.2059384              -5.6039
        74                         -0.1656621              -4.5079
        75                         -0.1472093              -4.0058
        76                         -0.1437875              -3.9127
        77                         -0.1428970              -3.8884
        78                         -0.1338704              -3.6428
       ...                                ...                  ...
       134                          0.7506150              20.4253
      -------------------------------------------------------------
                  HL-Gap            0.0924896 Eh            2.5168 eV

Wiberg/Mayer (AO) data.
largest (>0.10) Wiberg bond orders for each atom

     #   Z sym  total        # sym  WBO       # sym  WBO       # sym  WBO
 ---------------------------------------------------------------------------
     1   6 C    3.879 --    26 H    0.986    27 H    0.980    28 H    0.980
                             2 O    0.905
     2   8 O    2.198 --     3 C    1.100     1 C    0.905     4 O    0.119
     3   6 C    3.865 --     4 O    1.582     2 O    1.100     5 C    1.086
     4   8 O    1.894 --     3 C    1.582     2 O    0.119
     5   6 C    3.852 --     6 C    1.261     3 C    1.086    24 N    1.052
                             7 O    0.140
     6   6 C    3.945 --     7 O    1.569     5 C    1.261     8 C    0.954
     7   8 O    1.879 --     6 C    1.569     5 C    0.140
     8   6 C    3.868 --     9 O    1.657    10 N    1.092     6 C    0.954
     9   8 O    1.928 --     8 C    1.657    10 N    0.117
    10   7 N    3.455 --    11 C    1.206     8 C    1.092    29 H    0.879
                             9 O    0.117
    11   6 C    3.915 --    24 N    1.436    10 N    1.206    12 C    0.976
    12   6 C    3.938 --    14 C    0.985    13 C    0.981    11 C    0.976
                            15 N    0.937
    13   6 C    3.983 --    30 H    0.982    12 C    0.981    31 H    0.979
                            32 H    0.976
    14   6 C    3.986 --    12 C    0.985    35 H    0.980    33 H    0.980
                            34 H    0.979
    15   7 N    3.329 --    16 C    1.229    12 C    0.937    36 H    0.887
                            17 O    0.169
    16   6 C    3.913 --    17 O    1.594    15 N    1.229    18 C    1.001
    17   8 O    1.897 --    16 C    1.594    15 N    0.169
    18   6 C    3.875 --    19 N    1.617    23 O    1.047    16 C    1.001
    19   7 N    3.004 --    18 C    1.617    20 N    1.204
    20   7 N    2.982 --    21 C    1.604    19 N    1.204
    21   6 C    3.866 --    20 N    1.604    23 O    1.074    22 C    1.032
    22   6 C    3.985 --    21 C    1.032    39 H    0.981    37 H    0.969
                            38 H    0.957
    23   8 O    2.318 --    21 C    1.074    18 C    1.047
    24   7 N    3.593 --    11 C    1.436     5 C    1.052    25 C    0.920
    25   6 C    3.913 --    40 H    0.976    42 H    0.976    41 H    0.969
                            24 N    0.920
    26   1 H    1.012 --     1 C    0.986
    27   1 H    1.010 --     1 C    0.980
    28   1 H    1.009 --     1 C    0.980
    29   1 H    0.933 --    10 N    0.879
    30   1 H    0.998 --    13 C    0.982
    31   1 H    0.993 --    13 C    0.979
    32   1 H    0.999 --    13 C    0.976
    33   1 H    0.998 --    14 C    0.980
    34   1 H    0.997 --    14 C    0.979
    35   1 H    1.004 --    14 C    0.980
    36   1 H    0.928 --    15 N    0.887
    37   1 H    0.996 --    22 C    0.969
    38   1 H    0.996 --    22 C    0.957
    39   1 H    0.998 --    22 C    0.981
    40   1 H    1.005 --    25 C    0.976
    41   1 H    1.014 --    25 C    0.969
    42   1 H    1.008 --    25 C    0.976
 ---------------------------------------------------------------------------

           -------------------------------------------------
          | TOTAL ENERGY              -83.002706625171 Eh   |
          | GRADIENT NORM               0.000353420291 Eh/α |
          | HOMO-LUMO GAP               2.516769500594 eV   |
           -------------------------------------------------

 * finished run on 2023/06/21 at 17:20:59.145
