   * xtb version 6.5.1 (579679a) compiled by 'ehlert@majestix' on 2022-07-11
          program call               : /lustre/hpc/kemi/ree/PhD/git/ReactivityQM/dep/xtb-6.5.1/bin/xtb --gfn 1 /lustre/hpc/kemi/ree/PhD/git/ReactivityQM/calculations/RaltegravirCLI/reac02prodE04/conf01/RaltegravirCLI_reac02prodE04_conf01_gfn1.xyz --opt --vfukui --chrg -1 --uhf 0 --alpb DMSO

   ID    Z sym.   atoms
    1    6 C      1, 3, 5, 7-9, 12-16, 18, 19, 21-24
    2    7 N      2, 11, 20, 25
    3    8 O      4, 6, 10
    4    9 F      17
    5    1 H      26-47

      * Solvation model:               ALPB
        Solvent                        DMSO
        Solvent mass                       7.8130E+01 g/mol
          :  Hamiltonian                  GFN1-xTB          :
 * total energy  :   -80.1903122 Eh     change       -0.2714273E-10 Eh
 * total energy  :   -80.2050761 Eh     change       -0.1476394E-01 Eh
 * total energy  :   -80.2086778 Eh     change       -0.3601629E-02 Eh
 * total energy  :   -80.2092580 Eh     change       -0.5802059E-03 Eh
 * total energy  :   -80.2096903 Eh     change       -0.4323454E-03 Eh
 * total energy  :   -80.2098183 Eh     change       -0.1279728E-03 Eh
 * total energy  :   -80.2099385 Eh     change       -0.1202023E-03 Eh
 * total energy  :   -80.2100266 Eh     change       -0.8813205E-04 Eh
 * total energy  :   -80.2101096 Eh     change       -0.8302985E-04 Eh
 * total energy  :   -80.2101851 Eh     change       -0.7549429E-04 Eh
 * total energy  :   -80.2106479 Eh     change       -0.2369820E-04 Eh
 * total energy  :   -80.2106597 Eh     change       -0.1183829E-04 Eh
 * total energy  :   -80.2106663 Eh     change       -0.6603479E-05 Eh
 * total energy  :   -80.2106753 Eh     change       -0.9039814E-05 Eh
 * total energy  :   -80.2106888 Eh     change       -0.1343340E-04 Eh
 * total energy  :   -80.2107025 Eh     change       -0.1369085E-04 Eh
 * total energy  :   -80.2107129 Eh     change       -0.1038386E-04 Eh
 * total energy  :   -80.2107198 Eh     change       -0.6914003E-05 Eh
 * total energy  :   -80.2107241 Eh     change       -0.4342964E-05 Eh
   *** GEOMETRY OPTIMIZATION CONVERGED AFTER 38 ITERATIONS ***

 final structure:
================
47
 xtb: 6.5.1 (579679a)
C           -4.01627696542072       -1.67700037996633        0.02103581445379
N           -2.80895546816598       -1.00819734678595       -0.44325318231240
C           -1.94158727344127       -1.79974292447458       -1.32444478469575
O           -2.38677689959259       -2.89847986071608       -1.78191178379052
C           -0.74839820095512       -1.22074831777108       -1.60208816164711
O            0.18929206651124       -1.89541084209987       -2.44159306164658
C           -0.24230655886664        0.02332899536644       -0.94517095709800
C            0.57358218129646        0.90684999447132       -1.91297252955713
C            0.68459001109771       -0.34201271277140        0.24848061637261
O            0.52778652254309        0.07040620685436        1.39426077246217
N            1.66659878559135       -1.21894481323681       -0.06604947113630
C            2.68361811362911       -1.60104869260559        0.89735906681101
C            3.94530710449301       -0.78379623266495        0.71085651068733
C            5.16668776989845       -1.40966315140639        0.47695939132777
C            6.32423284071865       -0.66210650080280        0.30062901047234
C            6.22920187516696        0.71541224922697        0.36203309452450
F            7.34456570078158        1.44810417439120        0.18977050959138
C            5.03328709898461        1.37140611482501        0.59498227537850
C            3.88844608533882        0.60834315394638        0.76963550289399
N           -1.34480376688984        0.82231551607657       -0.43351031159383
C           -2.48770580512293        0.28845979601932       -0.17479418016179
C           -3.49573110819328        1.24484754823111        0.48144437942543
C           -2.97824468596016        2.69010072564347        0.36436186410405
C           -3.65378605627916        0.90228776293828        1.96924003081205
N           -4.80361050869510        1.15643918124643       -0.17541804119581
H           -3.91776030196211       -1.97003304151619        1.07163930485776
H           -4.89594030535991       -1.04334401119745       -0.09280743205199
H           -4.15880118174822       -2.58204270752305       -0.57628167476846
H           -0.25558320959001       -2.69876007567180       -2.75154828184048
H            0.91624549436043        1.80360917415376       -1.39682745848638
H           -0.05748553283882        1.20285129544168       -2.75080217291749
H            1.43582141122904        0.36231506124993       -2.29472781688192
H            1.81210853857957       -1.50489321443234       -1.02305633255600
H            2.27768453901402       -1.43103723727461        1.90213809931514
H            2.90259500811766       -2.66651137570204        0.78267177419630
H            5.22212748311975       -2.49125810433115        0.43177467220409
H            7.27881412421706       -1.13716308716869        0.11782836435874
H            5.00474487915849        2.45240585195146        0.63951004570341
H            2.93923572692157        1.10053561786479        0.95468247689706
H           -2.03725344878847        2.80464460908152        0.90248649959239
H           -2.81281626501105        2.94762360792819       -0.68130542802919
H           -3.71327635949085        3.37621699773126        0.78339315976653
H           -2.67327188331042        0.85481834038264        2.44454771574866
H           -4.24533372908181        1.67118697026106        2.46585057880935
H           -4.15820014693251       -0.05249081097482        2.10494179037008
H           -4.74360986209499        1.56423259774885       -1.09971644262603
H           -5.46905683699467        1.70594689803513        0.34890618386189

          :  Hamiltonian                  GFN1-xTB          :
         :: total energy             -80.210724109919 Eh    ::
         :: gradient norm              0.000444346932 Eh/a0 ::
         :: HOMO-LUMO gap              0.884233569571 eV    ::
         :: SCC energy               -81.072187529109 Eh    ::
         :: -> Gsolv                  -0.110722403083 Eh    ::
         :: repulsion energy           0.892891162614 Eh    ::

    * Orbital Energies and Occupations

         #    Occupation            Energy/Eh            Energy/eV
      -------------------------------------------------------------
         1        2.0000           -0.8592559             -23.3815
       ...           ...                  ...                  ...
        56        2.0000           -0.4614490             -12.5567
        57        2.0000           -0.4541818             -12.3589
        58        2.0000           -0.4460926             -12.1388
        59        2.0000           -0.4451068             -12.1120
        60        2.0000           -0.4390057             -11.9460
        61        2.0000           -0.4318116             -11.7502
        62        2.0000           -0.4154160             -11.3040
        63        2.0000           -0.4131967             -11.2437
        64        2.0000           -0.3942643             -10.7285
        65        2.0000           -0.3755716             -10.2198
        66        2.0000           -0.3718394             -10.1183
        67        2.0000           -0.3603324              -9.8051
        68        2.0000           -0.3004687              -8.1762 (HOMO)
        69                         -0.2679737              -7.2919 (LUMO)
        70                         -0.2604146              -7.0862
        71                         -0.2167780              -5.8988
        72                         -0.2066516              -5.6233
        73                         -0.1397254              -3.8021
        74                         -0.1248021              -3.3960
        75                         -0.1142014              -3.1076
        76                         -0.1118813              -3.0444
        77                         -0.1028756              -2.7994
        78                         -0.0988068              -2.6887
        79                         -0.0974791              -2.6525
       ...                                ...                  ...
       144                          0.6955174              18.9260
      -------------------------------------------------------------
                  HL-Gap            0.0324950 Eh            0.8842 eV

Wiberg/Mayer (AO) data.
largest (>0.10) Wiberg bond orders for each atom

     #   Z sym  total        # sym  WBO       # sym  WBO       # sym  WBO
 ---------------------------------------------------------------------------
     1   6 C    3.959 --    26 H    0.981    27 H    0.976    28 H    0.974
                             2 N    0.958
     2   7 N    3.367 --    21 C    1.200     1 C    0.958     3 C    0.899
                            20 N    0.170
     3   6 C    3.920 --     5 C    1.550     4 O    1.338     2 N    0.899
     4   8 O    1.702 --     3 C    1.338     5 C    0.177
     5   6 C    3.778 --     3 C    1.550     7 C    0.984     6 O    0.926
                             4 O    0.177
     6   8 O    1.926 --     5 C    0.926    29 H    0.856
     7   6 C    3.968 --     5 C    0.984    20 N    0.979     8 C    0.971
                             9 C    0.908
     8   6 C    3.997 --    30 H    0.988    32 H    0.986    31 H    0.985
                             7 C    0.971
     9   6 C    3.866 --    10 O    1.583    11 N    1.246     7 C    0.908
    10   8 O    1.867 --     9 C    1.583    11 N    0.154
    11   7 N    3.318 --     9 C    1.246    12 C    0.953    33 H    0.899
                            10 O    0.154
    12   6 C    3.959 --    13 C    0.995    35 H    0.977    34 H    0.963
                            11 N    0.953
    13   6 C    3.988 --    14 C    1.423    19 C    1.411    12 C    0.995
    14   6 C    3.994 --    15 C    1.437    13 C    1.423    36 H    0.971
                            18 C    0.109
    15   6 C    3.991 --    14 C    1.437    16 C    1.406    37 H    0.970
                            19 C    0.111
    16   6 C    3.858 --    15 C    1.406    18 C    1.397    17 F    0.920
    17   9 F    1.046 --    16 C    0.920
    18   6 C    3.992 --    19 C    1.449    16 C    1.397    38 H    0.970
                            14 C    0.109
    19   6 C    3.993 --    18 C    1.449    13 C    1.411    39 H    0.970
                            15 C    0.111
    20   7 N    2.976 --    21 C    1.643     7 C    0.979     2 N    0.170
    21   6 C    3.947 --    20 N    1.643     2 N    1.200    22 C    0.964
    22   6 C    3.963 --    23 C    0.992    24 C    0.991    25 N    0.975
                            21 C    0.964
    23   6 C    3.997 --    22 C    0.992    42 H    0.987    41 H    0.985
                            40 H    0.983
    24   6 C    3.996 --    22 C    0.991    43 H    0.986    44 H    0.985
                            45 H    0.982
    25   7 N    2.989 --    22 C    0.975    47 H    0.949    46 H    0.948
    26   1 H    1.014 --     1 C    0.981
    27   1 H    1.035 --     1 C    0.976
    28   1 H    1.027 --     1 C    0.974
    29   1 H    0.893 --     6 O    0.856
    30   1 H    1.012 --     8 C    0.988
    31   1 H    1.014 --     8 C    0.985
    32   1 H    1.012 --     8 C    0.986
    33   1 H    0.964 --    11 N    0.899
    34   1 H    1.016 --    12 C    0.963
    35   1 H    1.006 --    12 C    0.977
    36   1 H    1.001 --    14 C    0.971
    37   1 H    0.998 --    15 C    0.970
    38   1 H    0.999 --    18 C    0.970
    39   1 H    1.007 --    19 C    0.970
    40   1 H    1.022 --    23 C    0.983
    41   1 H    1.018 --    23 C    0.985
    42   1 H    1.007 --    23 C    0.987
    43   1 H    1.008 --    24 C    0.986
    44   1 H    1.004 --    24 C    0.985
    45   1 H    1.009 --    24 C    0.982
    46   1 H    0.965 --    25 N    0.948
    47   1 H    0.964 --    25 N    0.949
 ---------------------------------------------------------------------------

           -------------------------------------------------
          | TOTAL ENERGY              -80.210724109919 Eh   |
          | GRADIENT NORM               0.000444346932 Eh/α |
          | HOMO-LUMO GAP               0.884233569571 eV   |
           -------------------------------------------------

 * finished run on 2023/06/20 at 15:00:11.457
