   * xtb version 6.5.1 (579679a) compiled by 'ehlert@majestix' on 2022-07-11
          program call               : /lustre/hpc/kemi/ree/PhD/git/ReactivityQM/dep/xtb-6.5.1/bin/xtb --gfn 1 /lustre/hpc/kemi/ree/PhD/git/ReactivityQM/calculations/R02deprot/reac01prodN10/conf12/R02deprot_reac01prodN10_conf12_gfn1.xyz --opt --vfukui --chrg 0 --uhf 0 --alpb DMSO

   ID    Z sym.   atoms
    1    6 C      1, 3, 5, 6, 8-11, 13, 15, 18, 19, 22, 24
    2    8 O      2, 4, 14, 20, 23, 25
    3    7 N      7, 12, 16, 17, 21
    4    1 H      26-42

      * Solvation model:               ALPB
        Solvent                        DMSO
        Solvent mass                       7.8130E+01 g/mol
          :  Hamiltonian                  GFN1-xTB          :
 * total energy  :   -82.9305980 Eh     change       -0.4533263E-11 Eh
 * total energy  :   -82.9446474 Eh     change       -0.1404939E-01 Eh
 * total energy  :   -82.9503872 Eh     change       -0.5739825E-02 Eh
 * total energy  :   -82.9517179 Eh     change       -0.1330689E-02 Eh
 * total energy  :   -82.9525251 Eh     change       -0.8071755E-03 Eh
 * total energy  :   -82.9528083 Eh     change       -0.2832735E-03 Eh
 * total energy  :   -82.9529784 Eh     change       -0.1700556E-03 Eh
 * total energy  :   -82.9531211 Eh     change       -0.1426691E-03 Eh
 * total energy  :   -82.9532562 Eh     change       -0.1351131E-03 Eh
 * total energy  :   -82.9534059 Eh     change       -0.1497108E-03 Eh
 * total energy  :   -82.9548963 Eh     change       -0.1568194E-04 Eh
 * total energy  :   -82.9549081 Eh     change       -0.1182273E-04 Eh
 * total energy  :   -82.9549192 Eh     change       -0.1115710E-04 Eh
 * total energy  :   -82.9549307 Eh     change       -0.1143387E-04 Eh
 * total energy  :   -82.9549421 Eh     change       -0.1143121E-04 Eh
 * total energy  :   -82.9549529 Eh     change       -0.1078814E-04 Eh
 * total energy  :   -82.9549596 Eh     change       -0.6696795E-05 Eh
 * total energy  :   -82.9549651 Eh     change       -0.5473215E-05 Eh
 * total energy  :   -82.9549692 Eh     change       -0.4180321E-05 Eh
   *** GEOMETRY OPTIMIZATION CONVERGED AFTER 57 ITERATIONS ***

 final structure:
================
42
 xtb: 6.5.1 (579679a)
C           -5.39140581144574        1.18969170311401        1.57943049554158
O           -4.76881932043725        0.42522983927188        0.52817307491533
C           -3.46438383947905        0.42681893492170        0.48591462050676
O           -2.72001857270041        0.98618765548881        1.23182855806264
C           -2.94976236557391       -0.45014165931641       -0.75173744528247
C           -4.00372907476722       -0.47097891988747       -1.85834629675940
N           -1.75452735630368        0.19554960569335       -1.16790147410553
C           -0.62373662100357       -0.17438212570911       -0.64646321348601
C            0.57868491270310        0.66640743587564       -1.04842157339943
C            0.80168983903147        0.51761440038722       -2.56039432470155
C            0.29926626306058        2.12955799410836       -0.67626089505685
N            1.74146890684180        0.17613736567714       -0.31780074762544
C            2.97535780680680        0.69119288147266       -0.43133522295496
O            3.29470734858953        1.63071886935392       -1.14313179762447
C            3.94075888090586       -0.03529505331256        0.43897185918055
N            3.66686256181496       -1.02022434977155        1.24001886091310
N            4.83928040505149       -1.37944683919666        1.83691518672271
C            5.75316987864832       -0.59080661516104        1.36002253707894
C            7.19596782892715       -0.57732692363758        1.68804006663259
O            5.24896297745158        0.28037042673465        0.47348633769547
N           -0.38799155704525       -1.21339107448100        0.18738307638014
C           -1.37880031899019       -2.05324285784146        0.49264225236842
O           -1.31896118866613       -3.08929664200881        1.15962772092616
C           -2.72355953757618       -1.71016677254787       -0.05327795762698
O           -3.67065815107735       -2.52670974907095        0.24199734992817
H           -6.46285199219235        1.05786363632258        1.45306064119244
H           -5.11568179438822        2.24056452501745        1.47994904822689
H           -5.06422943220055        0.81003883732824        2.54845635019517
H           -4.25148589775944        0.54802001616483       -2.14532364101642
H           -3.59353899316676       -0.99500287680444       -2.71931964542649
H           -4.89856330819765       -0.98391052757050       -1.51489833551393
H            1.62048926446935        1.15683504630377       -2.88594663910238
H           -0.10843715142867        0.80640757470658       -3.08319050599706
H            1.03714871533705       -0.51778072425741       -2.80279744128324
H            0.17648850749231        2.22141106345485        0.40228643565807
H           -0.61997496096929        2.44900531160753       -1.16426874822858
H            1.11943839064802        2.76700364833041       -1.00127422258946
H            1.58355550412411       -0.61745568274533        0.29613766985792
H            7.48305070978155        0.40263317354441        2.06858701590742
H            7.78373699067977       -0.77584120981865        0.79190158365162
H            7.40758642643987       -1.33616718333168        2.43719544126102
H           -3.27655387343577       -3.25769515840439        0.79214894497944

          :  Hamiltonian                  GFN1-xTB          :
         :: total energy             -82.954969243013 Eh    ::
         :: gradient norm              0.000669539121 Eh/a0 ::
         :: HOMO-LUMO gap              1.283417480804 eV    ::
         :: SCC energy               -83.726355911989 Eh    ::
         :: -> Gsolv                  -0.054332825752 Eh    ::
         :: repulsion energy           0.797735626390 Eh    ::

    * Orbital Energies and Occupations

         #    Occupation            Energy/Eh            Energy/eV
      -------------------------------------------------------------
         1        2.0000           -0.8775277             -23.8787
       ...           ...                  ...                  ...
        55        2.0000           -0.5027535             -13.6806
        56        2.0000           -0.4992030             -13.5840
        57        2.0000           -0.4972883             -13.5319
        58        2.0000           -0.4894528             -13.3187
        59        2.0000           -0.4876215             -13.2689
        60        2.0000           -0.4794520             -13.0466
        61        2.0000           -0.4620859             -12.5740
        62        2.0000           -0.4564166             -12.4197
        63        2.0000           -0.4532007             -12.3322
        64        2.0000           -0.4471518             -12.1676
        65        2.0000           -0.4407717             -11.9940
        66        2.0000           -0.4327200             -11.7749
        67        2.0000           -0.4268767             -11.6159 (HOMO)
        68                         -0.3797119             -10.3325 (LUMO)
        69                         -0.3051853              -8.3045
        70                         -0.2965297              -8.0690
        71                         -0.2711962              -7.3796
        72                         -0.2545850              -6.9276
        73                         -0.2000260              -5.4430
        74                         -0.1933250              -5.2606
        75                         -0.1532810              -4.1710
        76                         -0.1418391              -3.8596
        77                         -0.1347672              -3.6672
        78                         -0.1204358              -3.2772
       ...                                ...                  ...
       134                          0.7320145              19.9191
      -------------------------------------------------------------
                  HL-Gap            0.0471647 Eh            1.2834 eV

Wiberg/Mayer (AO) data.
largest (>0.10) Wiberg bond orders for each atom

     #   Z sym  total        # sym  WBO       # sym  WBO       # sym  WBO
 ---------------------------------------------------------------------------
     1   6 C    3.838 --    26 H    0.983    27 H    0.979    28 H    0.979
                             2 O    0.859
     2   8 O    2.243 --     3 C    1.180     1 C    0.859     4 O    0.141
     3   6 C    3.852 --     4 O    1.728     2 O    1.180     5 C    0.757
     4   8 O    2.026 --     3 C    1.728     2 O    0.141
     5   6 C    3.967 --    24 C    1.058     7 N    1.029     6 C    0.962
                             3 C    0.757
     6   6 C    3.980 --    29 H    0.983    31 H    0.983    30 H    0.980
                             5 C    0.962
     7   7 N    2.999 --     8 C    1.582     5 C    1.029
     8   6 C    3.942 --     7 N    1.582    21 N    1.253     9 C    0.979
     9   6 C    3.937 --    11 C    0.980     8 C    0.979    10 C    0.978
                            12 N    0.932
    10   6 C    3.991 --    34 H    0.986    33 H    0.985    32 H    0.981
                             9 C    0.978
    11   6 C    3.990 --    35 H    0.986    36 H    0.984    37 H    0.982
                             9 C    0.980
    12   7 N    3.367 --    13 C    1.278     9 C    0.932    38 H    0.876
                            14 O    0.183
    13   6 C    3.921 --    14 O    1.577    12 N    1.278    15 C    0.985
    14   8 O    1.897 --    13 C    1.577    12 N    0.183
    15   6 C    3.873 --    16 N    1.615    20 O    1.062    13 C    0.985
    16   7 N    3.012 --    15 C    1.615    17 N    1.196
    17   7 N    2.980 --    18 C    1.609    16 N    1.196
    18   6 C    3.872 --    17 N    1.609    20 O    1.082    19 C    1.031
    19   6 C    3.987 --    18 C    1.031    41 H    0.983    39 H    0.964
                            40 H    0.963
    20   8 O    2.327 --    18 C    1.082    15 C    1.062
    21   7 N    3.034 --    22 C    1.305     8 C    1.253    23 O    0.161
                            24 C    0.108
    22   6 C    3.934 --    23 O    1.515    21 N    1.305    24 C    0.990
    23   8 O    1.884 --    22 C    1.515    21 N    0.161
    24   6 C    3.788 --    25 O    1.322     5 C    1.058    22 C    0.990
                            21 N    0.108
    25   8 O    2.248 --    24 C    1.322    42 H    0.747
    26   1 H    1.005 --     1 C    0.983
    27   1 H    1.001 --     1 C    0.979
    28   1 H    1.001 --     1 C    0.979
    29   1 H    1.001 --     6 C    0.983
    30   1 H    0.999 --     6 C    0.980
    31   1 H    1.003 --     6 C    0.983
    32   1 H    1.010 --    10 C    0.981
    33   1 H    1.009 --    10 C    0.985
    34   1 H    1.003 --    10 C    0.986
    35   1 H    1.004 --    11 C    0.986
    36   1 H    1.012 --    11 C    0.984
    37   1 H    1.010 --    11 C    0.982
    38   1 H    0.971 --    12 N    0.876
    39   1 H    0.997 --    19 C    0.964
    40   1 H    0.997 --    19 C    0.963
    41   1 H    0.999 --    19 C    0.983
    42   1 H    0.822 --    25 O    0.747
 ---------------------------------------------------------------------------

           -------------------------------------------------
          | TOTAL ENERGY              -82.954969243013 Eh   |
          | GRADIENT NORM               0.000669539121 Eh/α |
          | HOMO-LUMO GAP               1.283417480804 eV   |
           -------------------------------------------------

 * finished run on 2023/06/20 at 18:17:52.989
