   * xtb version 6.5.1 (579679a) compiled by 'ehlert@majestix' on 2022-07-11
          program call               : /lustre/hpc/kemi/ree/PhD/git/ReactivityQM/dep/xtb-6.5.1/bin/xtb --gfn 1 /lustre/hpc/kemi/ree/PhD/git/ReactivityQM/calculations/R02oxygendeprot/reac01prodE11/conf08/R02oxygendeprot_reac01prodE11_conf08_gfn1.xyz --opt --vfukui --chrg -2 --uhf 0 --alpb DMSO

   ID    Z sym.   atoms
    1    6 C      1, 3, 5, 7-10, 12, 14, 17-19, 22, 24
    2    8 O      2, 4, 13, 20, 23, 25
    3    7 N      6, 11, 15, 16, 21
    4    1 H      26-42

      * Solvation model:               ALPB
        Solvent                        DMSO
        Solvent mass                       7.8130E+01 g/mol
          :  Hamiltonian                  GFN1-xTB          :
 * total energy  :   -83.6524108 Eh     change       -0.5285017E-10 Eh
 * total energy  :   -83.6624650 Eh     change       -0.1005420E-01 Eh
 * total energy  :   -83.6655304 Eh     change       -0.3065354E-02 Eh
 * total energy  :   -83.6661781 Eh     change       -0.6477517E-03 Eh
 * total energy  :   -83.6667177 Eh     change       -0.5395149E-03 Eh
 * total energy  :   -83.6669797 Eh     change       -0.2620321E-03 Eh
 * total energy  :   -83.6671447 Eh     change       -0.1649729E-03 Eh
 * total energy  :   -83.6672212 Eh     change       -0.7650911E-04 Eh
 * total energy  :   -83.6672546 Eh     change       -0.3343865E-04 Eh
 * total energy  :   -83.6672789 Eh     change       -0.2430128E-04 Eh
 * total energy  :   -83.6673605 Eh     change       -0.1755202E-04 Eh
 * total energy  :   -83.6673746 Eh     change       -0.1408119E-04 Eh
 * total energy  :   -83.6673894 Eh     change       -0.1473445E-04 Eh
 * total energy  :   -83.6674012 Eh     change       -0.1180626E-04 Eh
 * total energy  :   -83.6674185 Eh     change       -0.1734104E-04 Eh
 * total energy  :   -83.6674410 Eh     change       -0.2252500E-04 Eh
 * total energy  :   -83.6674591 Eh     change       -0.1810470E-04 Eh
 * total energy  :   -83.6674713 Eh     change       -0.1216866E-04 Eh
 * total energy  :   -83.6674762 Eh     change       -0.4934154E-05 Eh
   *** GEOMETRY OPTIMIZATION CONVERGED AFTER 22 ITERATIONS ***

 final structure:
================
42
 xtb: 6.5.1 (579679a)
C           -6.21506671658911       -1.97081680020409        0.69035176999125
O           -5.02739514617424       -1.22927619858406        0.46250017631261
C           -5.09289072312279       -0.30503698293990       -0.54935970564798
O           -6.12686125304147       -0.17167094620961       -1.18846305817407
C           -3.85295038927754        0.42958356069749       -0.71500263337503
N           -2.83014616343339        0.06706644786339        0.14515341398743
C           -1.70156114558459        0.67313523131895        0.10397960850644
C           -0.59232235688020        0.33601263732426        1.08406898239496
C           -0.71798846999137        1.31727384884302        2.26272887784684
C           -0.75393051765717       -1.11300776894599        1.56583355919980
N            0.67829063508144        0.53090724356405        0.38626952780322
C            1.89907052814685        0.22745373697740        1.04051643716617
O            1.99540186115522        0.21424725804793        2.28219832663279
C            2.94361270557608        0.01375865472367        0.11431416212351
N            2.81070912506082       -0.00217975107275       -1.20618579437848
N            3.94713570345141       -0.23005430201966       -1.79347087616737
C            4.96388648443041       -0.38443525723459       -0.74006110377983
C            6.04026926124592        0.70452363717416       -0.89077654220328
C            5.59238978046035       -1.78550259219939       -0.82581593032422
O            4.27655783773310       -0.22835793089094        0.49240360588330
N           -1.46562201846172        1.71228553207417       -0.77246829575329
C           -2.37640771056236        2.16387271339734       -1.68701017763488
O           -2.08205427035764        3.09398962317934       -2.43858454855231
C           -3.71517026245217        1.46015814752266       -1.68225246156557
O           -4.58552574851940        1.82502274133249       -2.49626205063621
H           -7.05006663021808       -1.30512729290833        0.93315397644576
H           -6.02179626513685       -2.63617666260918        1.53092567656798
H           -6.48253095117874       -2.56141403483338       -0.19217075247861
H           -0.01674200895521        1.06453153010868        3.05530578069968
H           -0.51568262559136        2.33214277424782        1.92196580147457
H           -1.73098852997073        1.27428704620472        2.66258442745009
H           -1.74611634889802       -1.24396583864205        1.99666682875984
H           -0.64406853537321       -1.80081580792988        0.72773061175082
H           -0.00328117796040       -1.34584026529954        2.31922847092418
H            0.66460378027259        0.16404738577905       -0.56160451298452
H            6.53748619268900        0.59982002653984       -1.85278992136593
H            5.57179076215655        1.68612930081179       -0.83716232820010
H            6.77638908144831        0.61816625872438       -0.09355945410093
H            6.32320471315015       -1.91984371984258       -0.03026341128596
H            4.81158798094642       -2.53748444075736       -0.72269707561031
H            6.08187483280352       -1.91045506930712       -1.78941742655667
H           -0.56709330041904        2.17304732597455       -0.74589796114787

          :  Hamiltonian                  GFN1-xTB          :
         :: total energy             -83.667476236229 Eh    ::
         :: gradient norm              0.000366379381 Eh/a0 ::
         :: HOMO-LUMO gap              1.316929123180 eV    ::
         :: SCC energy               -84.404498333484 Eh    ::
         :: -> Gsolv                  -0.253931421889 Eh    ::
         :: repulsion energy           0.762431294325 Eh    ::

    * Orbital Energies and Occupations

         #    Occupation            Energy/Eh            Energy/eV
      -------------------------------------------------------------
         1        2.0000           -0.7920826             -21.5537
       ...           ...                  ...                  ...
        56        2.0000           -0.4470358             -12.1645
        57        2.0000           -0.4435125             -12.0686
        58        2.0000           -0.4316306             -11.7453
        59        2.0000           -0.4312026             -11.7336
        60        2.0000           -0.4298731             -11.6974
        61        2.0000           -0.4132719             -11.2457
        62        2.0000           -0.4069964             -11.0749
        63        2.0000           -0.4009343             -10.9100
        64        2.0000           -0.3878952             -10.5552
        65        2.0000           -0.3698230             -10.0634
        66        2.0000           -0.3673814              -9.9970
        67        2.0000           -0.3569448              -9.7130
        68        2.0000           -0.3117238              -8.4824 (HOMO)
        69                         -0.2633275              -7.1655 (LUMO)
        70                         -0.2360119              -6.4222
        71                         -0.2268879              -6.1739
        72                         -0.1896585              -5.1609
        73                         -0.1228786              -3.3437
        74                         -0.1198064              -3.2601
        75                         -0.1023047              -2.7839
        76                         -0.1016947              -2.7673
        77                         -0.0988111              -2.6888
        78                         -0.0968855              -2.6364
        79                         -0.0956210              -2.6020
       ...                                ...                  ...
       134                          0.7679986              20.8983
      -------------------------------------------------------------
                  HL-Gap            0.0483963 Eh            1.3169 eV

Wiberg/Mayer (AO) data.
largest (>0.10) Wiberg bond orders for each atom

     #   Z sym  total        # sym  WBO       # sym  WBO       # sym  WBO
 ---------------------------------------------------------------------------
     1   6 C    3.902 --    27 H    0.987    28 H    0.980    26 H    0.980
                             2 O    0.930
     2   8 O    2.134 --     3 C    1.019     1 C    0.930     4 O    0.107
     3   6 C    3.849 --     4 O    1.585     5 C    1.127     2 O    1.019
     4   8 O    1.862 --     3 C    1.585     2 O    0.107
     5   6 C    3.918 --    24 C    1.271     6 N    1.148     3 C    1.127
                            25 O    0.130
     6   7 N    3.024 --     7 C    1.633     5 C    1.148
     7   6 C    3.929 --     6 N    1.633    21 N    1.095     8 C    0.977
     8   6 C    3.957 --    10 C    0.989     9 C    0.981     7 C    0.977
                            11 N    0.953
     9   6 C    3.992 --    31 H    0.988    30 H    0.986     8 C    0.981
                            29 H    0.978
    10   6 C    3.994 --     8 C    0.989    33 H    0.987    32 H    0.985
                            34 H    0.984
    11   7 N    3.162 --    12 C    1.043     8 C    0.953    35 H    0.921
    12   6 C    3.923 --    13 O    1.468    14 C    1.229    11 N    1.043
    13   8 O    1.813 --    12 C    1.468
    14   6 C    3.849 --    15 N    1.391    12 C    1.229    20 O    0.933
                            16 N    0.160
    15   7 N    3.048 --    16 N    1.465    14 C    1.391
    16   7 N    2.880 --    15 N    1.465    17 C    0.981    14 C    0.160
    17   6 C    3.901 --    16 N    0.981    19 C    0.978    18 C    0.977
                            20 O    0.929
    18   6 C    3.995 --    36 H    0.988    38 H    0.987    37 H    0.985
                            17 C    0.977
    19   6 C    3.995 --    41 H    0.988    39 H    0.987    40 H    0.985
                            17 C    0.978
    20   8 O    2.054 --    14 C    0.933    17 C    0.929
    21   7 N    3.434 --    22 C    1.172     7 C    1.095    42 H    0.895
                            23 O    0.135
    22   6 C    3.881 --    23 O    1.565    21 N    1.172    24 C    0.970
    23   8 O    1.844 --    22 C    1.565    21 N    0.135
    24   6 C    3.943 --    25 O    1.514     5 C    1.271    22 C    0.970
    25   8 O    1.818 --    24 C    1.514     5 C    0.130
    26   1 H    1.015 --     1 C    0.980
    27   1 H    1.016 --     1 C    0.987
    28   1 H    1.014 --     1 C    0.980
    29   1 H    1.024 --     9 C    0.978
    30   1 H    1.008 --     9 C    0.986
    31   1 H    1.008 --     9 C    0.988
    32   1 H    1.018 --    10 C    0.985
    33   1 H    1.008 --    10 C    0.987
    34   1 H    1.014 --    10 C    0.984
    35   1 H    0.986 --    11 N    0.921
    36   1 H    1.010 --    18 C    0.988
    37   1 H    1.015 --    18 C    0.985
    38   1 H    1.009 --    18 C    0.987
    39   1 H    1.008 --    19 C    0.987
    40   1 H    1.015 --    19 C    0.985
    41   1 H    1.010 --    19 C    0.988
    42   1 H    0.957 --    21 N    0.895
 ---------------------------------------------------------------------------

           -------------------------------------------------
          | TOTAL ENERGY              -83.667476236229 Eh   |
          | GRADIENT NORM               0.000366379381 Eh/α |
          | HOMO-LUMO GAP               1.316929123180 eV   |
           -------------------------------------------------

 * finished run on 2023/06/21 at 17:12:39.096
