   * xtb version 6.5.1 (579679a) compiled by 'ehlert@majestix' on 2022-07-11
          program call               : /lustre/hpc/kemi/ree/PhD/git/ReactivityQM/dep/xtb-6.5.1/bin/xtb --gfn 1 /lustre/hpc/kemi/ree/PhD/git/ReactivityQM/calculations/RaltegravirCLI/reac02prodE11/conf06/RaltegravirCLI_reac02prodE11_conf06_gfn1.xyz --opt --vfukui --chrg -1 --uhf 0 --alpb DMSO

   ID    Z sym.   atoms
    1    6 C      1, 3-6, 9, 10, 13-17, 19-21, 23, 24
    2    7 N      2, 7, 8, 12
    3    8 O      11, 22, 25
    4    9 F      18
    5    1 H      26-47

      * Solvation model:               ALPB
        Solvent                        DMSO
        Solvent mass                       7.8130E+01 g/mol
          :  Hamiltonian                  GFN1-xTB          :
 * total energy  :   -80.1880252 Eh     change       -0.1317346E-10 Eh
 * total energy  :   -80.1973524 Eh     change       -0.9327229E-02 Eh
 * total energy  :   -80.2006100 Eh     change       -0.3257580E-02 Eh
 * total energy  :   -80.2012731 Eh     change       -0.6631404E-03 Eh
 * total energy  :   -80.2018074 Eh     change       -0.5342288E-03 Eh
 * total energy  :   -80.2020363 Eh     change       -0.2289152E-03 Eh
 * total energy  :   -80.2022213 Eh     change       -0.1850147E-03 Eh
 * total energy  :   -80.2023200 Eh     change       -0.9873404E-04 Eh
 * total energy  :   -80.2023931 Eh     change       -0.7306026E-04 Eh
 * total energy  :   -80.2024576 Eh     change       -0.6452809E-04 Eh
 * total energy  :   -80.2025456 Eh     change       -0.7693958E-05 Eh
 * total energy  :   -80.2025584 Eh     change       -0.1278755E-04 Eh
 * total energy  :   -80.2025677 Eh     change       -0.9291478E-05 Eh
 * total energy  :   -80.2025776 Eh     change       -0.9987707E-05 Eh
 * total energy  :   -80.2025865 Eh     change       -0.8813127E-05 Eh
 * total energy  :   -80.2025928 Eh     change       -0.6355596E-05 Eh
 * total energy  :   -80.2025993 Eh     change       -0.6460866E-05 Eh
 * total energy  :   -80.2026064 Eh     change       -0.7079947E-05 Eh
 * total energy  :   -80.2026099 Eh     change       -0.3570764E-05 Eh
   *** GEOMETRY OPTIMIZATION CONVERGED AFTER 22 ITERATIONS ***

 final structure:
================
47
 xtb: 6.5.1 (579679a)
C           -4.25870815073085        0.83214800387373        0.29669030805363
N           -2.80935553998073        0.89827473180698        0.28739868536712
C           -1.99545311258775       -0.13088836381890       -0.00898060007142
C           -2.45222155306511       -1.60490936077043       -0.03159801285613
C           -2.89846052430545       -2.05379995042489        1.36811993685279
C           -3.53514526588803       -1.90489328969608       -1.07767021217486
N           -1.30086246965017       -2.44176364870319       -0.38346793296487
N           -0.73003046888398        0.02428047290763       -0.27822443065158
C           -0.20731174304051        1.32629986203076       -0.35200432557533
C            1.09619370773995        1.44999385786657       -0.99835543396956
O            1.71815073909491        2.52381576900017       -1.10137473000996
N            1.57896285945920        0.29684748244608       -1.52640675043702
C            2.92304131600791        0.20687956595539       -2.06442687135978
C            3.91321948459063       -0.22734313244620       -1.00282593172499
C            4.18788746539246        0.60864564921893        0.07910236406583
C            5.08254246735012        0.21807233512325        1.06437957737651
C            5.69384311084093       -1.01732130072352        0.94342151425685
F            6.56570001900825       -1.40237778804013        1.89379615475314
C            5.44888255712482       -1.87027564407334       -0.11608079154773
C            4.54758742949298       -1.46329924093744       -1.09167939054789
C           -0.87171855939822        2.40367981062031        0.13830650232115
O           -0.37665575591413        3.65429925474779        0.06297575600070
C           -2.22417556012588        2.26818705551092        0.89094256349689
C           -1.86514784787339        1.88707337297683        2.37594948567933
O           -3.05674510863372        3.23791830554591        0.77044036409515
H           -4.64239897190655        0.14144701580921        1.05183574232849
H           -4.64241204938243        0.54301372231879       -0.68415020028557
H           -4.63602136184853        1.83554370317198        0.52545406799855
H           -2.14349321259184       -1.78158546067766        2.10617982352772
H           -3.01582027206367       -3.13786662808967        1.37490286223812
H           -3.84673639075424       -1.60440368237235        1.65588865767160
H           -3.54953580165080       -2.97870905194334       -1.26825954792887
H           -4.52519686266447       -1.61221491694641       -0.73491652588580
H           -3.31459616467002       -1.39210676856917       -2.01395611750788
H           -0.96387137912728       -2.15920614367889       -1.29803941563850
H           -0.54721064046209       -2.24516805519066        0.26828365769536
H            1.09387618885983       -0.56048945317269       -1.29392945065770
H            2.92203162085835       -0.50488353259478       -2.89433384046145
H            3.19689560979451        1.19678999566708       -2.44731300752317
H            3.70130822443238        1.57565877803060        0.14829395583719
H            5.30842607444796        0.85688395652695        1.90846478063186
H            5.95047079396441       -2.82698810192590       -0.17673855702912
H            4.34372057115723       -2.11749020968024       -1.93134977403374
H            0.50195929989746        3.61521643979190       -0.38845995337006
H           -1.22756324942374        1.00664102541476        2.42051459237447
H           -2.78733219831391        1.69743773523047        2.92237764934641
H           -1.35052432457736        2.73293382288309        2.82998680224309

          :  Hamiltonian                  GFN1-xTB          :
         :: total energy             -80.202609926478 Eh    ::
         :: gradient norm              0.000401278722 Eh/a0 ::
         :: HOMO-LUMO gap              1.864937034799 eV    ::
         :: SCC energy               -81.058492870195 Eh    ::
         :: -> Gsolv                  -0.106837909803 Eh    ::
         :: repulsion energy           0.887157230012 Eh    ::

    * Orbital Energies and Occupations

         #    Occupation            Energy/Eh            Energy/eV
      -------------------------------------------------------------
         1        2.0000           -0.8568577             -23.3163
       ...           ...                  ...                  ...
        56        2.0000           -0.4557340             -12.4012
        57        2.0000           -0.4508828             -12.2691
        58        2.0000           -0.4447976             -12.1036
        59        2.0000           -0.4429588             -12.0535
        60        2.0000           -0.4301822             -11.7059
        61        2.0000           -0.4185466             -11.3892
        62        2.0000           -0.4121401             -11.2149
        63        2.0000           -0.3970244             -10.8036
        64        2.0000           -0.3905521             -10.6275
        65        2.0000           -0.3815490             -10.3825
        66        2.0000           -0.3593264              -9.7778
        67        2.0000           -0.3470873              -9.4447
        68        2.0000           -0.3333960              -9.0722 (HOMO)
        69                         -0.2648608              -7.2072 (LUMO)
        70                         -0.2581916              -7.0258
        71                         -0.2472766              -6.7287
        72                         -0.2089796              -5.6866
        73                         -0.1370192              -3.7285
        74                         -0.1245838              -3.3901
        75                         -0.1185225              -3.2252
        76                         -0.1103434              -3.0026
        77                         -0.1095811              -2.9819
        78                         -0.0960780              -2.6144
        79                         -0.0952022              -2.5906
       ...                                ...                  ...
       144                          0.7064470              19.2234
      -------------------------------------------------------------
                  HL-Gap            0.0685352 Eh            1.8649 eV

Wiberg/Mayer (AO) data.
largest (>0.10) Wiberg bond orders for each atom

     #   Z sym  total        # sym  WBO       # sym  WBO       # sym  WBO
 ---------------------------------------------------------------------------
     1   6 C    3.964 --    27 H    0.982    26 H    0.975     2 N    0.969
                            28 H    0.967
     2   7 N    3.337 --     3 C    1.274     1 C    0.969    23 C    0.723
                             8 N    0.168
     3   6 C    3.946 --     8 N    1.536     2 N    1.274     4 C    0.952
     4   6 C    3.966 --     6 C    0.992     5 C    0.990     7 N    0.988
                             3 C    0.952
     5   6 C    3.996 --     4 C    0.990    30 H    0.986    29 H    0.985
                            31 H    0.980
     6   6 C    3.996 --     4 C    0.992    34 H    0.986    32 H    0.985
                            33 H    0.983
     7   7 N    2.962 --     4 C    0.988    35 H    0.949    36 H    0.947
     8   7 N    3.003 --     3 C    1.536     9 C    1.070     2 N    0.168
     9   6 C    3.947 --    21 C    1.572    10 C    1.080     8 N    1.070
    10   6 C    3.894 --    11 O    1.477    12 N    1.222     9 C    1.080
    11   8 O    1.868 --    10 C    1.477    12 N    0.133
    12   7 N    3.311 --    10 C    1.222    13 C    0.954    37 H    0.896
                            11 O    0.133
    13   6 C    3.960 --    14 C    0.993    38 H    0.978    39 H    0.966
                            12 N    0.954
    14   6 C    3.986 --    20 C    1.424    15 C    1.412    13 C    0.993
    15   6 C    3.992 --    16 C    1.449    14 C    1.412    40 H    0.969
                            19 C    0.112
    16   6 C    3.992 --    15 C    1.449    17 C    1.398    41 H    0.970
                            20 C    0.109
    17   6 C    3.858 --    19 C    1.406    16 C    1.398    18 F    0.919
    18   9 F    1.045 --    17 C    0.919
    19   6 C    3.992 --    20 C    1.437    17 C    1.406    42 H    0.970
                            15 C    0.112
    20   6 C    3.994 --    19 C    1.437    14 C    1.424    43 H    0.971
                            16 C    0.109
    21   6 C    3.878 --     9 C    1.572    22 O    1.095    23 C    0.910
    22   8 O    2.064 --    21 C    1.095    44 H    0.791
    23   6 C    3.924 --    25 O    1.282    24 C    0.921    21 C    0.910
                             2 N    0.723
    24   6 C    3.989 --    45 H    0.990    46 H    0.986    47 H    0.986
                            23 C    0.921
    25   8 O    1.574 --    23 C    1.282
    26   1 H    1.013 --     1 C    0.975
    27   1 H    1.014 --     1 C    0.982
    28   1 H    1.028 --     1 C    0.967
    29   1 H    1.006 --     5 C    0.985
    30   1 H    1.009 --     5 C    0.986
    31   1 H    1.009 --     5 C    0.980
    32   1 H    1.011 --     6 C    0.985
    33   1 H    1.009 --     6 C    0.983
    34   1 H    1.005 --     6 C    0.986
    35   1 H    0.984 --     7 N    0.949
    36   1 H    0.986 --     7 N    0.947
    37   1 H    0.978 --    12 N    0.896
    38   1 H    1.006 --    13 C    0.978
    39   1 H    1.014 --    13 C    0.966
    40   1 H    1.011 --    15 C    0.969
    41   1 H    0.999 --    16 C    0.970
    42   1 H    0.999 --    19 C    0.970
    43   1 H    1.001 --    20 C    0.971
    44   1 H    0.883 --    22 O    0.791
    45   1 H    1.011 --    24 C    0.990
    46   1 H    1.015 --    24 C    0.986
    47   1 H    1.014 --    24 C    0.986
 ---------------------------------------------------------------------------

           -------------------------------------------------
          | TOTAL ENERGY              -80.202609926478 Eh   |
          | GRADIENT NORM               0.000401278722 Eh/α |
          | HOMO-LUMO GAP               1.864937034799 eV   |
           -------------------------------------------------

 * finished run on 2023/06/20 at 15:13:51.362
