   * xtb version 6.5.1 (579679a) compiled by 'ehlert@majestix' on 2022-07-11
          program call               : /lustre/hpc/kemi/ree/PhD/git/ReactivityQM/dep/xtb-6.5.1/bin/xtb --gfn 1 /lustre/hpc/kemi/ree/PhD/git/ReactivityQM/calculations/R02deprot/reac01prodN16/conf13/R02deprot_reac01prodN16_conf13_gfn1.xyz --opt --vfukui --chrg 0 --uhf 0 --alpb DMSO

   ID    Z sym.   atoms
    1    6 C      1, 3, 5, 7-10, 12, 14, 17, 18, 21, 23, 24
    2    8 O      2, 4, 13, 19, 22, 25
    3    7 N      6, 11, 15, 16, 20
    4    1 H      26-42

      * Solvation model:               ALPB
        Solvent                        DMSO
        Solvent mass                       7.8130E+01 g/mol
          :  Hamiltonian                  GFN1-xTB          :
 * total energy  :   -82.9465324 Eh     change       -0.1270450E-10 Eh
 * total energy  :   -82.9582545 Eh     change       -0.1172213E-01 Eh
 * total energy  :   -82.9626897 Eh     change       -0.4435183E-02 Eh
 * total energy  :   -82.9635658 Eh     change       -0.8761302E-03 Eh
 * total energy  :   -82.9641785 Eh     change       -0.6126360E-03 Eh
 * total energy  :   -82.9646238 Eh     change       -0.4453523E-03 Eh
 * total energy  :   -82.9650626 Eh     change       -0.4387425E-03 Eh
 * total energy  :   -82.9654205 Eh     change       -0.3579630E-03 Eh
 * total energy  :   -82.9656723 Eh     change       -0.2517761E-03 Eh
 * total energy  :   -82.9658521 Eh     change       -0.1798233E-03 Eh
 * total energy  :   -82.9722949 Eh     change       -0.1080344E-04 Eh
 * total energy  :   -82.9723123 Eh     change       -0.1743460E-04 Eh
 * total energy  :   -82.9723258 Eh     change       -0.1349265E-04 Eh
 * total energy  :   -82.9723386 Eh     change       -0.1279372E-04 Eh
 * total energy  :   -82.9723489 Eh     change       -0.1029538E-04 Eh
 * total energy  :   -82.9723574 Eh     change       -0.8481571E-05 Eh
 * total energy  :   -82.9723646 Eh     change       -0.7284027E-05 Eh
 * total energy  :   -82.9723707 Eh     change       -0.6077879E-05 Eh
 * total energy  :   -82.9723757 Eh     change       -0.4987510E-05 Eh
   *** GEOMETRY OPTIMIZATION CONVERGED AFTER 103 ITERATIONS ***

 final structure:
================
42
 xtb: 6.5.1 (579679a)
C           -6.20441554907028        0.03398647769003        0.55896917038295
O           -4.86030439832240        0.17590126838411        0.06996987249760
C           -3.93217654390052        0.48725071388580        0.96297470627304
O           -4.14090120620143        0.67861374091590        2.13203981544566
C           -2.55509023573112        0.55331093213901        0.34343620560045
N           -1.57071734360576        0.27374855518568        1.10702452092840
C           -0.28726299963286        0.28046170006824        0.54009417747234
C            0.75225003715862       -0.42968925154874        1.36399876388729
C            0.34876050521749       -1.90707588650203        1.49157828572987
C            0.82854052640801        0.24019139706485        2.74502533304520
N            2.02565286653956       -0.31093209680035        0.66545946618345
C            3.17855221278590       -0.82277825700314        1.13422195482414
O            3.30539921755580       -1.42808601313536        2.18696772797004
C            4.32935914918432       -0.56890338406388        0.22969882623759
N            5.57072009561111       -0.89278365083626        0.41898946282945
N            6.26368967064433       -0.44940259157715       -0.66754578627786
C            5.40265541219831        0.11753289570271       -1.45398618227492
C            5.65477825056966        0.75791947637531       -2.76320920426182
O            4.16021458408674        0.07761390904901       -0.94433287562094
N            0.01403528349460        0.86713748282640       -0.55265260165175
C           -0.99242071266615        1.51280851081092       -1.29657132661185
O           -0.75525267437765        2.44654457759462       -2.01044969813844
C           -2.36805244042138        0.86100778213972       -1.13419220014476
C           -2.36447281515400       -0.49224699669288       -1.88336477600367
O           -3.33339137437122        1.72700940701835       -1.64988228959592
H           -6.21895779142656       -0.66009424392147        1.40109958907179
H           -6.79248705156816       -0.35329282907235       -0.26841669003444
H           -6.58311976852198        1.00636925244814        0.87836934343634
H           -0.64795491022248       -1.97286341988918        1.92388646735296
H            0.34410297750784       -2.37545490084861        0.50909215162430
H            1.05541919838789       -2.42872000805095        2.13456432566530
H            1.17511179713833        1.26715046460866        2.64135672755954
H            1.51712144210962       -0.30898841032264        3.38416755194485
H           -0.16094038354175        0.23856951503354        3.19898410316402
H            2.00948489866796        0.16046089233711       -0.22937458819088
H            5.40242907397228        1.81731718234851       -2.71401270498541
H            5.02979159658607        0.29855475434447       -3.52837432937473
H            6.70295211655998        0.64596069939432       -3.02970335236298
H           -1.55095706893260       -1.12022813470430       -1.52780908958829
H           -2.24392967685262       -0.30153141201967       -2.94786986530636
H           -3.31326734687149       -0.99606767374476       -1.71403484697931
H           -4.19494862099398        1.29372057335064       -1.70618814174408

          :  Hamiltonian                  GFN1-xTB          :
         :: total energy             -82.972375709773 Eh    ::
         :: gradient norm              0.000601494085 Eh/a0 ::
         :: HOMO-LUMO gap              1.742914032814 eV    ::
         :: SCC energy               -83.749393355977 Eh    ::
         :: -> Gsolv                  -0.058122704232 Eh    ::
         :: repulsion energy           0.803248832814 Eh    ::

    * Orbital Energies and Occupations

         #    Occupation            Energy/Eh            Energy/eV
      -------------------------------------------------------------
         1        2.0000           -0.8662148             -23.5709
       ...           ...                  ...                  ...
        55        2.0000           -0.5072606             -13.8033
        56        2.0000           -0.5058529             -13.7650
        57        2.0000           -0.5048593             -13.7379
        58        2.0000           -0.5014437             -13.6450
        59        2.0000           -0.4950876             -13.4720
        60        2.0000           -0.4874716             -13.2648
        61        2.0000           -0.4806389             -13.0788
        62        2.0000           -0.4670042             -12.7078
        63        2.0000           -0.4630065             -12.5990
        64        2.0000           -0.4609905             -12.5442
        65        2.0000           -0.4527007             -12.3186
        66        2.0000           -0.4489008             -12.2152
        67        2.0000           -0.4352776             -11.8445 (HOMO)
        68                         -0.3712267             -10.1016 (LUMO)
        69                         -0.3109090              -8.4603
        70                         -0.3078489              -8.3770
        71                         -0.2576372              -7.0107
        72                         -0.2521638              -6.8617
        73                         -0.2349191              -6.3925
        74                         -0.1987411              -5.4080
        75                         -0.1434814              -3.9043
        76                         -0.1417623              -3.8575
        77                         -0.1350884              -3.6759
        78                         -0.1241515              -3.3783
       ...                                ...                  ...
       134                          0.7306015              19.8807
      -------------------------------------------------------------
                  HL-Gap            0.0640509 Eh            1.7429 eV

Wiberg/Mayer (AO) data.
largest (>0.10) Wiberg bond orders for each atom

     #   Z sym  total        # sym  WBO       # sym  WBO       # sym  WBO
 ---------------------------------------------------------------------------
     1   6 C    3.851 --    27 H    0.985    26 H    0.979    28 H    0.978
                             2 O    0.876
     2   8 O    2.229 --     3 C    1.133     1 C    0.876     4 O    0.145
     3   6 C    3.851 --     4 O    1.695     2 O    1.133     5 C    0.948
     4   8 O    1.959 --     3 C    1.695     2 O    0.145
     5   6 C    3.934 --     6 N    1.765    23 C    0.955     3 C    0.948
     6   7 N    3.053 --     5 C    1.765     7 C    1.058
     7   6 C    3.925 --    20 N    1.704     6 N    1.058     8 C    0.996
     8   6 C    3.940 --     7 C    0.996    10 C    0.968     9 C    0.966
                            11 N    0.937
     9   6 C    3.984 --    30 H    0.985    29 H    0.984    31 H    0.978
                             8 C    0.966
    10   6 C    3.985 --    32 H    0.986    34 H    0.984    33 H    0.978
                             8 C    0.968
    11   7 N    3.357 --    12 C    1.265     8 C    0.937    35 H    0.879
                            13 O    0.178
    12   6 C    3.918 --    13 O    1.580    11 N    1.265    14 C    0.991
    13   8 O    1.898 --    12 C    1.580    11 N    0.178
    14   6 C    3.872 --    15 N    1.623    19 O    1.048    12 C    0.991
    15   7 N    2.999 --    14 C    1.623    16 N    1.198
    16   7 N    2.982 --    17 C    1.612    15 N    1.198
    17   6 C    3.869 --    16 N    1.612    19 O    1.072    18 C    1.031
    18   6 C    3.986 --    17 C    1.031    38 H    0.982    37 H    0.964
                            36 H    0.962
    19   8 O    2.316 --    17 C    1.072    14 C    1.048
    20   7 N    3.085 --     7 C    1.704    21 C    1.045
    21   6 C    3.866 --    22 O    1.767    20 N    1.045    23 C    0.933
    22   8 O    1.994 --    21 C    1.767
    23   6 C    3.931 --    25 O    0.983     5 C    0.955    21 C    0.933
                            24 C    0.924
    24   6 C    3.983 --    39 H    0.984    41 H    0.981    40 H    0.978
                            23 C    0.924
    25   8 O    1.912 --    23 C    0.983    42 H    0.839
    26   1 H    1.004 --     1 C    0.979
    27   1 H    1.007 --     1 C    0.985
    28   1 H    1.003 --     1 C    0.978
    29   1 H    1.004 --     9 C    0.984
    30   1 H    1.001 --     9 C    0.985
    31   1 H    1.007 --     9 C    0.978
    32   1 H    1.001 --    10 C    0.986
    33   1 H    1.009 --    10 C    0.978
    34   1 H    1.008 --    10 C    0.984
    35   1 H    0.952 --    11 N    0.879
    36   1 H    0.997 --    18 C    0.962
    37   1 H    0.997 --    18 C    0.964
    38   1 H    0.998 --    18 C    0.982
    39   1 H    1.000 --    24 C    0.984
    40   1 H    0.998 --    24 C    0.978
    41   1 H    1.003 --    24 C    0.981
    42   1 H    0.869 --    25 O    0.839
 ---------------------------------------------------------------------------

           -------------------------------------------------
          | TOTAL ENERGY              -82.972375709773 Eh   |
          | GRADIENT NORM               0.000601494085 Eh/α |
          | HOMO-LUMO GAP               1.742914032814 eV   |
           -------------------------------------------------

 * finished run on 2023/06/20 at 18:27:07.436
