   * xtb version 6.5.1 (579679a) compiled by 'ehlert@majestix' on 2022-07-11
          program call               : /lustre/hpc/kemi/ree/PhD/git/ReactivityQM/dep/xtb-6.5.1/bin/xtb --gfn 1 /lustre/hpc/kemi/ree/PhD/git/ReactivityQM/calculations/R01/reac01prodN05/conf03/R01_reac01prodN05_conf03_gfn1.xyz --opt --vfukui --chrg 1 --uhf 0 --alpb DMSO

   ID    Z sym.   atoms
    1    6 C      1, 3, 4, 6, 9, 10
    2    8 O      2, 5, 11
    3    7 N      7, 8
    4    1 H      12-20

      * Solvation model:               ALPB
        Solvent                        DMSO
        Solvent mass                       7.8130E+01 g/mol
          :  Hamiltonian                  GFN1-xTB          :
 * total energy  :   -37.4549747 Eh     change       -0.1531575E-09 Eh
 * total energy  :   -37.4698622 Eh     change       -0.1488747E-01 Eh
 * total energy  :   -37.4800984 Eh     change       -0.1023622E-01 Eh
 * total energy  :   -37.4845901 Eh     change       -0.4491628E-02 Eh
 * total energy  :   -37.4984328 Eh     change       -0.1384278E-01 Eh
 * total energy  :   -37.5050988 Eh     change       -0.6665973E-02 Eh
 * total energy  :   -37.5379694 Eh     change       -0.3287061E-01 Eh
 * total energy  :   -37.5687566 Eh     change       -0.3078718E-01 Eh
 * total energy  :   -37.5820477 Eh     change       -0.1329109E-01 Eh
 * total energy  :   -37.5811771 Eh     change        0.8705606E-03 Eh
 * total energy  :   -37.6286725 Eh     change       -0.2028557E-04 Eh
 * total energy  :   -37.6286887 Eh     change       -0.1620876E-04 Eh
 * total energy  :   -37.6286960 Eh     change       -0.7258200E-05 Eh
 * total energy  :   -37.6287039 Eh     change       -0.7895223E-05 Eh
 * total energy  :   -37.6287071 Eh     change       -0.3273497E-05 Eh
 * total energy  :   -37.6287021 Eh     change        0.5049638E-05 Eh
 * total energy  :   -37.6287133 Eh     change       -0.1122155E-04 Eh
 * total energy  :   -37.6287184 Eh     change       -0.5063115E-05 Eh
 * total energy  :   -37.6287223 Eh     change       -0.3890336E-05 Eh
   *** GEOMETRY OPTIMIZATION CONVERGED AFTER 62 ITERATIONS ***

 final structure:
================
20
 xtb: 6.5.1 (579679a)
C           -3.59649035512659        0.58550720594254        0.32760761725382
O           -2.79841279312001       -0.59214604644445        0.07495121564581
C           -1.53638948172281       -0.54524484241220       -0.03067386124088
C           -0.80664052200897       -1.79666088666189       -0.28400652339310
O           -0.97356040806816        0.62330982769672        0.09475052974512
C            0.34272888010690        0.92433410438796        0.02634640726025
N            0.81688769109331        2.11529379629230        0.13494152208064
N            2.16749470773612        1.97908220063925        0.01577826856061
C            2.41922154901533        0.72096430891499       -0.15650588535892
C            3.72728710055880        0.06286453659450       -0.33820813873251
O            1.27833696411529       -0.01554658674581       -0.15968162118674
H           -3.33973700215963        0.98109228666587        1.31056889906989
H           -4.63082685247688        0.25095123654004        0.29442773214643
H           -3.39273940391503        1.32907986689125       -0.44245677957667
H           -1.50812056176030       -2.62493769389464       -0.36019962473989
H           -0.09576506149786       -1.97278711306408        0.52557461354290
H           -0.22508042341698       -1.70114504901470       -1.20273012426498
H            4.52260101104608        0.79922346932548       -0.24379174189057
H            3.77354947397276       -0.40298554315671       -1.32317777268973
H            3.85565548762849       -0.72025207849608        0.40922826776847

          :  Hamiltonian                  GFN1-xTB          :
         :: total energy             -37.628722255605 Eh    ::
         :: gradient norm              0.000765735961 Eh/a0 ::
         :: HOMO-LUMO gap              2.883912979252 eV    ::
         :: SCC energy               -37.975080171641 Eh    ::
         :: -> Gsolv                  -0.083972022213 Eh    ::
         :: repulsion energy           0.354370499869 Eh    ::

    * Orbital Energies and Occupations

         #    Occupation            Energy/Eh            Energy/eV
      -------------------------------------------------------------
         1        2.0000           -0.9498198             -25.8459
       ...           ...                  ...                  ...
        18        2.0000           -0.6238892             -16.9769
        19        2.0000           -0.5972131             -16.2510
        20        2.0000           -0.5938239             -16.1588
        21        2.0000           -0.5801313             -15.7862
        22        2.0000           -0.5685066             -15.4699
        23        2.0000           -0.5650307             -15.3753
        24        2.0000           -0.5614110             -15.2768
        25        2.0000           -0.5574213             -15.1682
        26        2.0000           -0.5504556             -14.9787
        27        2.0000           -0.5409715             -14.7206
        28        2.0000           -0.5163890             -14.0517
        29        2.0000           -0.4914372             -13.3727
        30        2.0000           -0.4847171             -13.1898 (HOMO)
        31                         -0.3787353             -10.3059 (LUMO)
        32                         -0.2949371              -8.0256
        33                         -0.2790023              -7.5920
        34                         -0.1798744              -4.8946
        35                         -0.1663305              -4.5261
        36                         -0.1544054              -4.2016
        37                         -0.1111234              -3.0238
        38                         -0.1087523              -2.9593
        39                         -0.1045922              -2.8461
        40                         -0.1036304              -2.8199
        41                         -0.0856165              -2.3297
       ...                                ...                  ...
        62                          0.5647621              15.3680
      -------------------------------------------------------------
                  HL-Gap            0.1059819 Eh            2.8839 eV

Wiberg/Mayer (AO) data.
largest (>0.10) Wiberg bond orders for each atom

     #   Z sym  total        # sym  WBO       # sym  WBO       # sym  WBO
 ---------------------------------------------------------------------------
     1   6 C    3.802 --    13 H    0.980    14 H    0.971    12 H    0.968
                             2 O    0.833
     2   8 O    2.349 --     3 C    1.343     1 C    0.833
     3   6 C    3.764 --     2 O    1.343     5 O    1.181     4 C    1.048
     4   6 C    3.958 --     3 C    1.048    15 H    0.972    17 H    0.928
                            16 H    0.927
     5   8 O    2.362 --     3 C    1.181     6 C    0.967
     6   6 C    3.814 --     7 N    1.607    11 O    1.063     5 O    0.967
     7   7 N    3.007 --     6 C    1.607     8 N    1.181
     8   7 N    2.983 --     9 C    1.629     7 N    1.181
     9   6 C    3.839 --     8 N    1.629    10 C    1.037    11 O    1.026
    10   6 C    3.978 --     9 C    1.037    18 H    0.979    20 H    0.959
                            19 H    0.955
    11   8 O    2.308 --     6 C    1.063     9 C    1.026
    12   1 H    0.993 --     1 C    0.968
    13   1 H    0.998 --     1 C    0.980
    14   1 H    0.994 --     1 C    0.971
    15   1 H    0.986 --     4 C    0.972
    16   1 H    0.987 --     4 C    0.927
    17   1 H    0.987 --     4 C    0.928
    18   1 H    0.994 --    10 C    0.979
    19   1 H    0.992 --    10 C    0.955
    20   1 H    0.992 --    10 C    0.959
 ---------------------------------------------------------------------------

           -------------------------------------------------
          | TOTAL ENERGY              -37.628722255605 Eh   |
          | GRADIENT NORM               0.000765735961 Eh/α |
          | HOMO-LUMO GAP               2.883912979252 eV   |
           -------------------------------------------------

 * finished run on 2023/06/20 at 14:56:05.768
