   * xtb version 6.5.1 (579679a) compiled by 'ehlert@majestix' on 2022-07-11
          program call               : /lustre/hpc/kemi/ree/PhD/git/ReactivityQM/dep/xtb-6.5.1/bin/xtb --gfn 1 /lustre/hpc/kemi/ree/PhD/git/ReactivityQM/calculations/R02/reac01prodN06/conf19/R02_reac01prodN06_conf19_gfn1.xyz --opt --vfukui --chrg 1 --uhf 0 --alpb DMSO

   ID    Z sym.   atoms
    1    6 C      1, 3, 5, 7-10, 12, 14, 16, 17, 20, 22, 24
    2    8 O      2, 4, 13, 15, 23, 25
    3    7 N      6, 11, 18, 19, 21
    4    1 H      26-43

      * Solvation model:               ALPB
        Solvent                        DMSO
        Solvent mass                       7.8130E+01 g/mol
          :  Hamiltonian                  GFN1-xTB          :
 * total energy  :   -83.1566941 Eh     change       -0.6795631E-10 Eh
 * total energy  :   -83.1743338 Eh     change       -0.1763974E-01 Eh
 * total energy  :   -83.1807626 Eh     change       -0.6428778E-02 Eh
 * total energy  :   -83.1821614 Eh     change       -0.1398816E-02 Eh
 * total energy  :   -83.1833736 Eh     change       -0.1212122E-02 Eh
 * total energy  :   -83.1838815 Eh     change       -0.5079548E-03 Eh
 * total energy  :   -83.1843556 Eh     change       -0.4741358E-03 Eh
 * total energy  :   -83.1847960 Eh     change       -0.4403358E-03 Eh
 * total energy  :   -83.1850207 Eh     change       -0.2247028E-03 Eh
 * total energy  :   -83.1851086 Eh     change       -0.8790691E-04 Eh
 * total energy  :   -83.1862501 Eh     change       -0.9661760E-05 Eh
 * total energy  :   -83.1862570 Eh     change       -0.6960680E-05 Eh
 * total energy  :   -83.1862675 Eh     change       -0.1047311E-04 Eh
 * total energy  :   -83.1862740 Eh     change       -0.6504448E-05 Eh
 * total energy  :   -83.1862742 Eh     change       -0.1597665E-06 Eh
 * total energy  :   -83.1862803 Eh     change       -0.6171687E-05 Eh
 * total energy  :   -83.1862863 Eh     change       -0.5941807E-05 Eh
 * total energy  :   -83.1862917 Eh     change       -0.5367900E-05 Eh
 * total energy  :   -83.1862962 Eh     change       -0.4531424E-05 Eh
   *** GEOMETRY OPTIMIZATION CONVERGED AFTER 52 ITERATIONS ***

 final structure:
================
43
 xtb: 6.5.1 (579679a)
C            6.03081854585987       -1.62427087888476        0.76017326774643
O            4.79142634408962       -0.91586529902799        0.66055473254612
C            4.80607563599003        0.20749017381873       -0.05805140036015
O            5.79812529859908        0.63466903154237       -0.59946218219059
C            3.46204902567490        0.85634477675063       -0.10577125111407
N            2.45214645276409        0.20087562679521        0.55953236517800
C            1.26140575973444        0.68513700427203        0.55712244936187
C            0.15975465352564       -0.01673233110960        1.31941020047081
C           -0.18734501385763        0.81247456043513        2.56351955608593
C            0.59181477742864       -1.43677641724029        1.69013931039642
N           -1.01489789342447       -0.08037525250874        0.42502511940720
C           -2.18744239091316       -0.58835839319849        0.80904596001005
O           -2.49418258726917       -1.03295759883104        1.89713783924994
C           -3.21173558907376       -0.57291977706887       -0.28724504506278
O           -3.01635393398160       -0.10694818906492       -1.50940378221025
C           -4.17979399461126       -0.28133076954572       -2.16253929341101
C           -4.32701999881921        0.14075171729244       -3.56479092673015
N           -5.06931162136826       -0.83507043525767       -1.38824547296009
N           -4.44590908683023       -1.01271509988268       -0.21257264419623
C           -5.13951801334516       -1.60863638519298        0.91125520726653
N            0.94528092830167        1.85811819885581       -0.07280207649672
C            1.86861664906865        2.60104032855679       -0.77388165897652
O            1.58221204916560        3.64211628933432       -1.34113211600014
C            3.21435558279481        2.02744842424542       -0.77049788491256
O            4.13916659770601        2.71604058720978       -1.44147438843001
H            5.83760284728180       -2.50314094026350        1.37189359634308
H            6.78886386618625       -0.99260767211802        1.23042222390549
H            6.37343916372641       -1.92170139536112       -0.23410797657968
H           -0.94347386828474        0.30401604639867        3.15761609983923
H            0.71017549667068        0.94448388251401        3.16631276016096
H           -0.56505252573448        1.78863650954898        2.26646585196636
H           -0.19540968198002       -1.93252838069802        2.25369791339520
H            1.49409348714719       -1.38745961169608        2.29798263720252
H            0.80415592068120       -2.00663140776370        0.78723027706305
H           -0.90733721729948        0.20118457812811       -0.53533445143377
H           -4.23250469715302        1.22654437599184       -3.62937211309764
H           -5.29891622712725       -0.16712077604087       -3.94481607132930
H           -3.52957122167092       -0.29798396633720       -4.16578604961740
H           -5.21839390907594       -0.86524450321139        1.70376328611807
H           -4.55591245217403       -2.45440330211331        1.27213651227675
H           -6.12285558144315       -1.92408794306226        0.57302291112369
H            0.00390663021828        2.21346085964618       -0.05084238357934
H            3.72745079281477        3.50503475414975       -1.83744890841983

          :  Hamiltonian                  GFN1-xTB          :
         :: total energy             -83.186296188193 Eh    ::
         :: gradient norm              0.000795347545 Eh/a0 ::
         :: HOMO-LUMO gap              1.733186201973 eV    ::
         :: SCC energy               -83.997776145551 Eh    ::
         :: -> Gsolv                  -0.125370041583 Eh    ::
         :: repulsion energy           0.837028075395 Eh    ::

    * Orbital Energies and Occupations

         #    Occupation            Energy/Eh            Energy/eV
      -------------------------------------------------------------
         1        2.0000           -0.9386617             -25.5423
       ...           ...                  ...                  ...
        55        2.0000           -0.5295325             -14.4093
        56        2.0000           -0.5223822             -14.2147
        57        2.0000           -0.5183147             -14.1041
        58        2.0000           -0.5174069             -14.0794
        59        2.0000           -0.5167223             -14.0607
        60        2.0000           -0.5019949             -13.6600
        61        2.0000           -0.5013244             -13.6417
        62        2.0000           -0.4956950             -13.4885
        63        2.0000           -0.4908865             -13.3577
        64        2.0000           -0.4864776             -13.2377
        65        2.0000           -0.4703161             -12.7980
        66        2.0000           -0.4577349             -12.4556
        67        2.0000           -0.4406410             -11.9905 (HOMO)
        68                         -0.3769476             -10.2573 (LUMO)
        69                         -0.3316071              -9.0235
        70                         -0.3240275              -8.8172
        71                         -0.2953598              -8.0371
        72                         -0.2573111              -7.0018
        73                         -0.2465845              -6.7099
        74                         -0.1692900              -4.6066
        75                         -0.1666636              -4.5351
        76                         -0.1662769              -4.5246
        77                         -0.1440804              -3.9206
        78                         -0.1401138              -3.8127
       ...                                ...                  ...
       136                          0.7388747              20.1058
      -------------------------------------------------------------
                  HL-Gap            0.0636934 Eh            1.7332 eV

Wiberg/Mayer (AO) data.
largest (>0.10) Wiberg bond orders for each atom

     #   Z sym  total        # sym  WBO       # sym  WBO       # sym  WBO
 ---------------------------------------------------------------------------
     1   6 C    3.870 --    26 H    0.986    28 H    0.979    27 H    0.979
                             2 O    0.896
     2   8 O    2.200 --     3 C    1.113     1 C    0.896     4 O    0.136
     3   6 C    3.854 --     4 O    1.663     2 O    1.113     5 C    0.998
     4   8 O    1.929 --     3 C    1.663     2 O    0.136
     5   6 C    3.962 --    24 C    1.505     6 N    1.170     3 C    0.998
     6   7 N    3.030 --     7 C    1.608     5 C    1.170
     7   6 C    3.935 --     6 N    1.608    21 N    1.157     8 C    0.981
     8   6 C    3.914 --    10 C    0.990     7 C    0.981     9 C    0.977
                            11 N    0.899
     9   6 C    3.983 --    31 H    0.984    30 H    0.983    29 H    0.978
                             8 C    0.977
    10   6 C    3.984 --     8 C    0.990    34 H    0.984    32 H    0.982
                            33 H    0.981
    11   7 N    3.391 --    12 C    1.307     8 C    0.899    35 H    0.886
                            13 O    0.200
    12   6 C    3.929 --    13 O    1.589    11 N    1.307    14 C    0.958
    13   8 O    1.945 --    12 C    1.589    11 N    0.200
    14   6 C    3.843 --    19 N    1.454    15 O    1.128    12 C    0.958
    15   8 O    2.371 --    14 C    1.128    16 C    1.067
    16   6 C    3.838 --    18 N    1.569    15 O    1.067    17 C    1.044
    17   6 C    3.969 --    16 C    1.044    37 H    0.977    38 H    0.952
                            36 H    0.945
    18   7 N    2.967 --    16 C    1.569    19 N    1.162
    19   7 N    3.662 --    14 C    1.454    18 N    1.162    20 C    0.908
    20   6 C    3.878 --    41 H    0.980    40 H    0.964    39 H    0.961
                            19 N    0.908
    21   7 N    3.459 --     7 C    1.157    22 C    1.130    42 H    0.881
                            23 O    0.134
    22   6 C    3.908 --    23 O    1.589    21 N    1.130    24 C    1.058
    23   8 O    1.913 --    22 C    1.589    21 N    0.134
    24   6 C    3.921 --     5 C    1.505    25 O    1.119    22 C    1.058
    25   8 O    2.097 --    24 C    1.119    43 H    0.805
    26   1 H    1.011 --     1 C    0.986
    27   1 H    1.007 --     1 C    0.979
    28   1 H    1.007 --     1 C    0.979
    29   1 H    1.004 --     9 C    0.978
    30   1 H    0.999 --     9 C    0.983
    31   1 H    0.999 --     9 C    0.984
    32   1 H    1.004 --    10 C    0.982
    33   1 H    1.007 --    10 C    0.981
    34   1 H    1.003 --    10 C    0.984
    35   1 H    0.925 --    11 N    0.886
    36   1 H    0.988 --    17 C    0.945
    37   1 H    0.990 --    17 C    0.977
    38   1 H    0.989 --    17 C    0.952
    39   1 H    0.996 --    20 C    0.961
    40   1 H    0.999 --    20 C    0.964
    41   1 H    0.994 --    20 C    0.980
    42   1 H    0.922 --    21 N    0.881
    43   1 H    0.842 --    25 O    0.805
 ---------------------------------------------------------------------------

           -------------------------------------------------
          | TOTAL ENERGY              -83.186296188193 Eh   |
          | GRADIENT NORM               0.000795347545 Eh/α |
          | HOMO-LUMO GAP               1.733186201973 eV   |
           -------------------------------------------------

 * finished run on 2023/06/20 at 15:25:22.339
