   * xtb version 6.5.1 (579679a) compiled by 'ehlert@majestix' on 2022-07-11
          program call               : /lustre/hpc/kemi/ree/PhD/git/ReactivityQM/dep/xtb-6.5.1/bin/xtb --gfn 1 /lustre/hpc/kemi/ree/PhD/git/ReactivityQM/calculations/R02deprot/reac01prodE13/conf06/R02deprot_reac01prodE13_conf06_gfn1.xyz --opt --vfukui --chrg -2 --uhf 0 --alpb DMSO

   ID    Z sym.   atoms
    1    6 C      1, 3, 5, 6, 8, 10, 12-15, 17, 19, 22, 23
    2    8 O      2, 4, 7, 9, 18, 24
    3    7 N      11, 16, 20, 21, 25
    4    1 H      26-42

      * Solvation model:               ALPB
        Solvent                        DMSO
        Solvent mass                       7.8130E+01 g/mol
          :  Hamiltonian                  GFN1-xTB          :
 * total energy  :   -83.5671145 Eh     change       -0.8322871E-09 Eh
 * total energy  :   -83.5816293 Eh     change       -0.1451483E-01 Eh
 * total energy  :   -83.5868506 Eh     change       -0.5221221E-02 Eh
 * total energy  :   -83.5876706 Eh     change       -0.8200466E-03 Eh
 * total energy  :   -83.5880815 Eh     change       -0.4108539E-03 Eh
 * total energy  :   -83.5882098 Eh     change       -0.1283278E-03 Eh
 * total energy  :   -83.5883309 Eh     change       -0.1210733E-03 Eh
 * total energy  :   -83.5884299 Eh     change       -0.9907019E-04 Eh
 * total energy  :   -83.5885190 Eh     change       -0.8909582E-04 Eh
 * total energy  :   -83.5885964 Eh     change       -0.7732587E-04 Eh
 * total energy  :   -83.5892144 Eh     change       -0.1377867E-04 Eh
 * total energy  :   -83.5892333 Eh     change       -0.1887690E-04 Eh
 * total energy  :   -83.5892439 Eh     change       -0.1066294E-04 Eh
 * total energy  :   -83.5892511 Eh     change       -0.7155265E-05 Eh
 * total energy  :   -83.5892733 Eh     change       -0.2218353E-04 Eh
 * total energy  :   -83.5892803 Eh     change       -0.7060647E-05 Eh
 * total energy  :   -83.5892879 Eh     change       -0.7520206E-05 Eh
 * total energy  :   -83.5892988 Eh     change       -0.1092316E-04 Eh
 * total energy  :   -83.5893037 Eh     change       -0.4925088E-05 Eh
   *** GEOMETRY OPTIMIZATION CONVERGED AFTER 35 ITERATIONS ***

 final structure:
================
42
 xtb: 6.5.1 (579679a)
C           -6.16821791052952        1.72056958130677       -2.17817041678576
O           -5.18504875137704        0.86322504317373       -1.64334851007664
C           -4.00570193694165        1.51311136827729       -1.22007505551794
O           -3.93334837817693        2.75959214178514       -1.35437010081706
C           -3.02042077688263        0.66398461588876       -0.68362582341755
C           -3.08173651989236       -0.76552469380198       -0.51305496348787
O           -4.21412512058858       -1.48077844487430       -0.86860344848703
C           -1.99577564911068       -1.41055650414828        0.01134086858011
O           -2.06369709248405       -2.78933025964649        0.16730340923298
C           -0.99733906727618       -3.38208446237795        0.88261267582784
N           -0.84992956471309       -0.78389931627498        0.39121275313704
C           -0.86747471812816        0.55776542646741        0.21878146142671
C            0.41663735693207        1.25907384376918        0.66536772450941
C            0.38281457866702        2.74237499658640        0.28467082892861
C            0.54616205583459        1.08840594111061        2.19096707029977
N            1.51131420182921        0.57769470092412       -0.02911684379110
C            2.85072702779782        0.83414311741885        0.26959304975415
O            3.23641491092064        1.87665077323879        0.85148704919579
C            3.70631807954226       -0.18843281506799       -0.23883127528756
N            3.32078583891552       -1.29905579623923       -0.88679955740501
N            4.46330218112701       -1.99369181636989       -1.17818961940629
C            5.46030317548718       -1.31299332081401       -0.71676582598408
C            6.89798951615302       -1.67699507290011       -0.79446963222548
O            5.08693086475207       -0.15898015627370       -0.10829641337337
N           -1.83048281628313        1.28348862548939       -0.26733103117326
H           -5.80114031443262        2.25191303370190       -3.06691955155852
H           -6.49535209885817        2.46839193350121       -1.44305294068932
H           -7.02280661800436        1.10292415970606       -2.46129671054820
H           -4.08574909298515       -2.40650579625423       -0.62845579615628
H           -1.17438027851455       -4.45861441602364        0.88663981959284
H           -0.03126147662448       -3.17148616349930        0.40614300542229
H           -0.96198913900561       -3.01674839102456        1.91707612920708
H           -0.50634981773840        3.20694092570168        0.71234996314456
H            1.26605883874432        3.25979919561168        0.65677756214462
H            0.34002734801359        2.84611633508582       -0.80053598857891
H            0.56414285803392        0.02645709235990        2.43769186228315
H            1.45825701333217        1.55651462721248        2.55958566702656
H           -0.31000896109690        1.54767986469030        2.68571772093372
H            1.30899195608836       -0.40550200724854       -0.20016760788746
H            7.30549128948359       -1.84564643128005        0.20344468866698
H            7.47129337536278       -0.87451860225387       -1.26000694634242
H            7.00837363262648       -2.58547187663594       -1.38232325031537

          :  Hamiltonian                  GFN1-xTB          :
         :: total energy             -83.589303705932 Eh    ::
         :: gradient norm              0.000773460036 Eh/a0 ::
         :: HOMO-LUMO gap              0.030472207781 eV    ::
         :: SCC energy               -84.311251266044 Eh    ::
         :: -> Gsolv                  -0.270158096957 Eh    ::
         :: repulsion energy           0.746897560685 Eh    ::

    * Orbital Energies and Occupations

         #    Occupation            Energy/Eh            Energy/eV
      -------------------------------------------------------------
         1        2.0000           -0.7925804             -21.5672
       ...           ...                  ...                  ...
        56        2.0000           -0.4376464             -11.9090
        57        2.0000           -0.4271262             -11.6227
        58        2.0000           -0.4223173             -11.4918
        59        2.0000           -0.3997557             -10.8779
        60        2.0000           -0.3959790             -10.7751
        61        2.0000           -0.3921881             -10.6720
        62        2.0000           -0.3892240             -10.5913
        63        2.0000           -0.3866383             -10.5210
        64        2.0000           -0.3835856             -10.4379
        65        2.0000           -0.3742524             -10.1839
        66        2.0000           -0.3643793              -9.9153
        67        2.0000           -0.3505213              -9.5382
        68        1.2864           -0.2592281              -7.0540 (HOMO)
        69        0.7136           -0.2581083              -7.0235 (LUMO)
        70                         -0.2036458              -5.5415
        71                         -0.1972171              -5.3665
        72                         -0.1571417              -4.2760
        73                         -0.1308586              -3.5608
        74                         -0.1220027              -3.3199
        75                         -0.1114495              -3.0327
        76                         -0.1065697              -2.8999
        77                         -0.0889550              -2.4206
        78                         -0.0837644              -2.2793
        79                         -0.0739016              -2.0110
       ...                                ...                  ...
       134                          0.6888272              18.7439
      -------------------------------------------------------------
                  HL-Gap            0.0011198 Eh            0.0305 eV

Wiberg/Mayer (AO) data.
largest (>0.10) Wiberg bond orders for each atom

     #   Z sym  total        # sym  WBO       # sym  WBO       # sym  WBO
 ---------------------------------------------------------------------------
     1   6 C    3.923 --    28 H    0.987    26 H    0.980    27 H    0.980
                             2 O    0.956
     2   8 O    2.041 --     1 C    0.956     3 C    0.926
     3   6 C    3.728 --     4 O    1.420     5 C    1.286     2 O    0.926
     4   8 O    1.649 --     3 C    1.420
     5   6 C    3.761 --     3 C    1.286     6 C    1.163    25 N    1.104
     6   6 C    3.801 --     8 C    1.473     5 C    1.163     7 O    0.990
     7   8 O    1.958 --     6 C    0.990    29 H    0.856
     8   6 C    3.804 --     6 C    1.473    11 N    1.205     9 O    0.958
     9   8 O    2.066 --     8 C    0.958    10 C    0.940
    10   6 C    3.911 --    30 H    0.986    32 H    0.981    31 H    0.980
                             9 O    0.940
    11   7 N    2.791 --    12 C    1.277     8 C    1.205
    12   6 C    3.951 --    25 N    1.550    11 N    1.277    13 C    0.966
    13   6 C    3.947 --    14 C    0.999    15 C    0.980    12 C    0.966
                            16 N    0.940
    14   6 C    3.996 --    13 C    0.999    35 H    0.986    33 H    0.986
                            34 H    0.983
    15   6 C    3.992 --    38 H    0.988    36 H    0.985    37 H    0.984
                            13 C    0.980
    16   7 N    3.147 --    17 C    1.096    13 C    0.940    39 H    0.911
                            18 O    0.110
    17   6 C    3.757 --    18 O    1.427    19 C    1.164    16 N    1.096
    18   8 O    1.671 --    17 C    1.427    16 N    0.110
    19   6 C    3.672 --    20 N    1.374    17 C    1.164    24 O    0.967
    20   7 N    2.724 --    19 C    1.374    21 N    1.185
    21   7 N    2.981 --    22 C    1.629    20 N    1.185
    22   6 C    3.816 --    21 N    1.629    24 O    1.045    23 C    1.022
    23   6 C    3.995 --    22 C    1.022    42 H    0.986    41 H    0.974
                            40 H    0.971
    24   8 O    2.167 --    22 C    1.045    19 C    0.967
    25   7 N    2.898 --    12 C    1.550     5 C    1.104
    26   1 H    1.021 --     1 C    0.980
    27   1 H    1.021 --     1 C    0.980
    28   1 H    1.021 --     1 C    0.987
    29   1 H    0.887 --     7 O    0.856
    30   1 H    1.018 --    10 C    0.986
    31   1 H    1.025 --    10 C    0.980
    32   1 H    1.017 --    10 C    0.981
    33   1 H    1.023 --    14 C    0.986
    34   1 H    1.025 --    14 C    0.983
    35   1 H    1.018 --    14 C    0.986
    36   1 H    1.019 --    15 C    0.985
    37   1 H    1.017 --    15 C    0.984
    38   1 H    1.008 --    15 C    0.988
    39   1 H    0.997 --    16 N    0.911
    40   1 H    1.001 --    23 C    0.971
    41   1 H    1.002 --    23 C    0.974
    42   1 H    1.005 --    23 C    0.986
 ---------------------------------------------------------------------------

           -------------------------------------------------
          | TOTAL ENERGY              -83.589303705932 Eh   |
          | GRADIENT NORM               0.000773460036 Eh/α |
          | HOMO-LUMO GAP               0.030472207781 eV   |
           -------------------------------------------------

 * finished run on 2023/06/20 at 18:00:56.724
