   * xtb version 6.5.1 (579679a) compiled by 'ehlert@majestix' on 2022-07-11
          program call               : /lustre/hpc/kemi/ree/PhD/git/ReactivityQM/dep/xtb-6.5.1/bin/xtb --gfn 1 /lustre/hpc/kemi/ree/PhD/git/ReactivityQM/calculations/RaltegravirCLI/reac01prodE05/conf05/RaltegravirCLI_reac01prodE05_conf05_gfn1.xyz --opt --vfukui --chrg -1 --uhf 0 --alpb DMSO

   ID    Z sym.   atoms
    1    6 C      1, 2, 5-7
    2    7 N      3, 4
    3    8 O      8, 10
    4   17 Cl     9
    5    1 H      11-16

      * Solvation model:               ALPB
        Solvent                        DMSO
        Solvent mass                       7.8130E+01 g/mol
          :  Hamiltonian                  GFN1-xTB          :
 * total energy  :   -34.1144982 Eh     change       -0.4561684E-11 Eh
 * total energy  :   -34.1252189 Eh     change       -0.1072067E-01 Eh
 * total energy  :   -34.1303086 Eh     change       -0.5089747E-02 Eh
 * total energy  :   -34.1323753 Eh     change       -0.2066684E-02 Eh
 * total energy  :   -34.1340045 Eh     change       -0.1629144E-02 Eh
 * total energy  :   -34.1353518 Eh     change       -0.1347316E-02 Eh
 * total energy  :   -34.1373089 Eh     change       -0.1957082E-02 Eh
 * total energy  :   -34.1407439 Eh     change       -0.3435064E-02 Eh
 * total energy  :   -34.1472741 Eh     change       -0.6530136E-02 Eh
 * total energy  :   -34.1521270 Eh     change       -0.4852906E-02 Eh
 * total energy  :   -34.1663687 Eh     change       -0.2359274E-04 Eh
 * total energy  :   -34.1663959 Eh     change       -0.2721796E-04 Eh
 * total energy  :   -34.1664294 Eh     change       -0.3350568E-04 Eh
 * total energy  :   -34.1664555 Eh     change       -0.2609501E-04 Eh
 * total energy  :   -34.1664843 Eh     change       -0.2875036E-04 Eh
 * total energy  :   -34.1665036 Eh     change       -0.1934388E-04 Eh
 * total energy  :   -34.1665099 Eh     change       -0.6328747E-05 Eh
 * total energy  :   -34.1665131 Eh     change       -0.3159563E-05 Eh
 * total energy  :   -34.1665150 Eh     change       -0.1890823E-05 Eh
   *** GEOMETRY OPTIMIZATION CONVERGED AFTER 63 ITERATIONS ***

 final structure:
================
16
 xtb: 6.5.1 (579679a)
C            2.73256296642667        0.75926034965453       -0.08618674509855
C            1.39037923925716        0.15818174985553        0.09939562034699
N            1.09626630597314       -0.72267661806684        0.97009841269841
N           -0.29590913116053       -1.02066177191600        0.79490107821003
C           -0.76455026688232       -0.13553059783796       -0.32322352717828
C           -2.01218348057532        0.68650566133806       -0.16340662353971
C           -0.60226683093175       -1.57798347039931       -0.42959546138456
O           -0.63699838472698       -2.61424595066152       -1.01525535690717
Cl          -3.55428757858844       -1.49263551623091        2.47114149869420
O            0.39502170875654        0.57367197033546       -0.72124609722869
H            2.65061989017196        1.84415194055750       -0.11838072877034
H            3.38864159435103        0.45948619747660        0.72677268209442
H            3.15450576260318        0.42458404168292       -1.03358037234391
H           -2.75305275211608        0.11066973305489        0.38931232931838
H           -1.77978209458874        1.60166577249477        0.37798010129110
H           -2.40896694796060        0.94555850866220       -1.14278581020076

          :  Hamiltonian                  GFN1-xTB          :
         :: total energy             -34.166514997271 Eh    ::
         :: gradient norm              0.000579984018 Eh/a0 ::
         :: HOMO-LUMO gap              3.033646423882 eV    ::
         :: SCC energy               -34.447559092036 Eh    ::
         :: -> Gsolv                  -0.113603072357 Eh    ::
         :: repulsion energy           0.288199113769 Eh    ::

    * Orbital Energies and Occupations

         #    Occupation            Energy/Eh            Energy/eV
      -------------------------------------------------------------
         1        2.0000           -0.8399528             -22.8563
       ...           ...                  ...                  ...
        16        2.0000           -0.5471846             -14.8897
        17        2.0000           -0.5424821             -14.7617
        18        2.0000           -0.5337487             -14.5240
        19        2.0000           -0.5317215             -14.4689
        20        2.0000           -0.5184060             -14.1065
        21        2.0000           -0.5074360             -13.8080
        22        2.0000           -0.4902246             -13.3397
        23        2.0000           -0.4825461             -13.1307
        24        2.0000           -0.4750938             -12.9280
        25        2.0000           -0.4750148             -12.9258
        26        2.0000           -0.4738460             -12.8940
        27        2.0000           -0.4557020             -12.4003
        28        2.0000           -0.4077426             -11.0952 (HOMO)
        29                         -0.2962582              -8.0616 (LUMO)
        30                         -0.2588232              -7.0429
        31                         -0.1406253              -3.8266
        32                         -0.1280968              -3.4857
        33                         -0.1126437              -3.0652
        34                         -0.0738587              -2.0098
        35                         -0.0725312              -1.9737
        36                         -0.0640142              -1.7419
        37                         -0.0513607              -1.3976
        38                         -0.0215069              -0.5852
        39                          0.0338208               0.9203
       ...                                ...                  ...
        57                          0.9030943              24.5744
      -------------------------------------------------------------
                  HL-Gap            0.1114845 Eh            3.0336 eV

Wiberg/Mayer (AO) data.
largest (>0.10) Wiberg bond orders for each atom

     #   Z sym  total        # sym  WBO       # sym  WBO       # sym  WBO
 ---------------------------------------------------------------------------
     1   6 C    3.988 --     2 C    1.022    12 H    0.983    11 H    0.968
                            13 H    0.961
     2   6 C    3.887 --     3 N    1.750    10 O    1.041     1 C    1.022
     3   7 N    2.947 --     2 C    1.750     4 N    0.941    10 O    0.116
     4   7 N    3.095 --     7 C    1.057     3 N    0.941     5 C    0.858
                             8 O    0.132
     5   6 C    3.804 --     6 C    0.993     7 C    0.911    10 O    0.911
                             4 N    0.858
     6   6 C    3.983 --     5 C    0.993    15 H    0.979    16 H    0.978
                            14 H    0.974
     7   6 C    3.849 --     8 O    1.780     4 N    1.057     5 C    0.911
     8   8 O    2.045 --     7 C    1.780     4 N    0.132
     9  17 Cl   0.026
    10   8 O    2.170 --     2 C    1.041     5 C    0.911     3 N    0.116
    11   1 H    0.998 --     1 C    0.968
    12   1 H    0.999 --     1 C    0.983
    13   1 H    0.998 --     1 C    0.961
    14   1 H    1.016 --     6 C    0.974
    15   1 H    1.002 --     6 C    0.979
    16   1 H    1.003 --     6 C    0.978
 ---------------------------------------------------------------------------

           -------------------------------------------------
          | TOTAL ENERGY              -34.166514997271 Eh   |
          | GRADIENT NORM               0.000579984018 Eh/α |
          | HOMO-LUMO GAP               3.033646423882 eV   |
           -------------------------------------------------

 * finished run on 2023/06/20 at 14:53:34.131
