   * xtb version 6.5.1 (579679a) compiled by 'ehlert@majestix' on 2022-07-11
          program call               : /lustre/hpc/kemi/ree/PhD/git/ReactivityQM/dep/xtb-6.5.1/bin/xtb --gfn 1 /lustre/hpc/kemi/ree/PhD/git/ReactivityQM/calculations/RaltegravirCLI/reac02prodN05/conf10/RaltegravirCLI_reac02prodN05_conf10_gfn1.xyz --opt --vfukui --chrg 1 --uhf 0 --alpb DMSO

   ID    Z sym.   atoms
    1    6 C      1, 3, 5, 7, 8, 11-15, 17, 18, 20-24
    2    7 N      2, 10, 19, 25
    3    8 O      4, 6, 9
    4    9 F      16
    5    1 H      26-47

      * Solvation model:               ALPB
        Solvent                        DMSO
        Solvent mass                       7.8130E+01 g/mol
          :  Hamiltonian                  GFN1-xTB          :
 * total energy  :   -79.4588304 Eh     change       -0.4906866E-09 Eh
 * total energy  :   -79.4731225 Eh     change       -0.1429214E-01 Eh
 * total energy  :   -79.4790787 Eh     change       -0.5956134E-02 Eh
 * total energy  :   -79.4803191 Eh     change       -0.1240491E-02 Eh
 * total energy  :   -79.4814270 Eh     change       -0.1107866E-02 Eh
 * total energy  :   -79.4820993 Eh     change       -0.6723340E-03 Eh
 * total energy  :   -79.4829052 Eh     change       -0.8058607E-03 Eh
 * total energy  :   -79.4835575 Eh     change       -0.6522963E-03 Eh
 * total energy  :   -79.4843233 Eh     change       -0.7657621E-03 Eh
 * total energy  :   -79.4847731 Eh     change       -0.4498062E-03 Eh
 * total energy  :   -79.5462157 Eh     change       -0.5249344E-04 Eh
 * total energy  :   -79.5462619 Eh     change       -0.4615541E-04 Eh
 * total energy  :   -79.5462954 Eh     change       -0.3351603E-04 Eh
 * total energy  :   -79.5463125 Eh     change       -0.1708449E-04 Eh
 * total energy  :   -79.5463451 Eh     change       -0.3269030E-04 Eh
 * total energy  :   -79.5463650 Eh     change       -0.1986081E-04 Eh
 * total energy  :   -79.5463819 Eh     change       -0.1688665E-04 Eh
 * total energy  :   -79.5463879 Eh     change       -0.6019726E-05 Eh
 * total energy  :   -79.5463921 Eh     change       -0.4172422E-05 Eh
   *** GEOMETRY OPTIMIZATION CONVERGED AFTER 85 ITERATIONS ***

 final structure:
================
47
 xtb: 6.5.1 (579679a)
C           -3.80016153688204       -3.22453339722172        1.19142899828130
N           -2.56861966854784       -2.60101633089936        0.70606556805331
C           -1.37557711457767       -3.25255706365754        0.95514863005104
O           -1.30323646295997       -4.31476386232353        1.56284039437956
C           -0.19660997437697       -2.58532338860511        0.42682180355034
O            0.96692246609749       -3.22226955897341        0.65852905413817
C           -0.29972546911525       -1.40101363930328       -0.24354634342799
C            0.81307062404487       -0.61115690304906       -0.84664954168928
O            0.61279963237817        0.52974977037313       -1.28676849646523
N            2.01062633587008       -1.19656897893858       -0.91204650806137
C            3.15354742307264       -0.50397595669744       -1.50604917306403
C            3.88309178844349        0.30548112654460       -0.45629765476008
C            3.45721335700101        1.59721980876808       -0.15430341381609
C            4.10439023941845        2.34358412114930        0.81983418580401
C            5.17633401998229        1.77041166532933        1.48048183247363
F            5.80819556824739        2.48525476085781        2.42439157515060
C            5.62297966985451        0.49003202436947        1.20804996254621
C            4.96345339858626       -0.24260131938095        0.23061589339109
N           -1.53488855384595       -0.82403928512728       -0.40876000901107
C           -2.60110612230004       -1.41046901106531        0.03590542015617
C           -3.92125291395592       -0.75253358280731       -0.19935615809861
C           -2.08502379857455        2.54964735354152       -0.88092873127900
C           -1.43069193811245        2.34521974150905        0.43192528897971
C           -3.16567370633006        3.54923988319057       -1.02365359011283
N           -1.71633805111492        1.83206393829747       -1.87859635626441
H           -4.46254758083350       -3.42695631042110        0.35119399000435
H           -3.53439008072555       -4.15740429926304        1.68719324767217
H           -4.29344171874103       -2.55787491661664        1.89698317787667
H            0.77841360536076       -4.04424704596054        1.15260854425720
H            2.16588637121496       -2.11371103664083       -0.52416125302470
H            3.81056021525733       -1.26038130707972       -1.94051686364980
H            2.77549199409156        0.14884708085392       -2.29773863023647
H            2.61035494691125        2.01976840858124       -0.68140172057836
H            3.78419141855541        3.34804246716277        1.06389982609419
H            6.46532019936135        0.07754443513561        1.74828664392738
H            5.29565288253440       -1.24820566070216        0.00077619983471
H           -4.42386239656259       -0.53910319549393        0.74389728223842
H           -3.75614941331986        0.17989278294608       -0.73402741434743
H           -4.57234531120700       -1.39341639890565       -0.79446298922333
H           -1.51435765217301        3.22826757211904        1.06138331583054
H           -1.93661972349249        1.51505029345155        0.93021327613661
H           -0.38762317140516        2.05793579222988        0.30215913727446
H           -2.73804875916092        4.54896084518315       -0.92150421502054
H           -3.66575893543522        3.47052429667192       -1.98650372345968
H           -3.88951782163670        3.42571161247459       -0.21769888262146
H           -0.94813092474038        1.14752883036087       -1.75607251043843
H           -2.13679535605682        1.91814583795888       -2.78817906938759

          :  Hamiltonian                  GFN1-xTB          :
         :: total energy             -79.546392088101 Eh    ::
         :: gradient norm              0.000689813217 Eh/a0 ::
         :: HOMO-LUMO gap              2.436706817307 eV    ::
         :: SCC energy               -80.478225723799 Eh    ::
         :: -> Gsolv                  -0.106333583621 Eh    ::
         :: repulsion energy           0.961492790046 Eh    ::

    * Orbital Energies and Occupations

         #    Occupation            Energy/Eh            Energy/eV
      -------------------------------------------------------------
         1        2.0000           -0.8675401             -23.6070
       ...           ...                  ...                  ...
        55        2.0000           -0.5225847             -14.2203
        56        2.0000           -0.5155011             -14.0275
        57        2.0000           -0.5103083             -13.8862
        58        2.0000           -0.5079548             -13.8222
        59        2.0000           -0.4821117             -13.1189
        60        2.0000           -0.4800345             -13.0624
        61        2.0000           -0.4770971             -12.9825
        62        2.0000           -0.4648700             -12.6498
        63        2.0000           -0.4555804             -12.3970
        64        2.0000           -0.4544101             -12.3651
        65        2.0000           -0.4523335             -12.3086
        66        2.0000           -0.4413460             -12.0096
        67        2.0000           -0.4321241             -11.7587 (HOMO)
        68                         -0.3425767              -9.3220 (LUMO)
        69                         -0.3242492              -8.8233
        70                         -0.2859534              -7.7812
        71                         -0.2775006              -7.5512
        72                         -0.2715679              -7.3897
        73                         -0.2419306              -6.5833
        74                         -0.1687846              -4.5929
        75                         -0.1613239              -4.3898
        76                         -0.1604578              -4.3663
        77                         -0.1553781              -4.2281
        78                         -0.1504007              -4.0926
       ...                                ...                  ...
       144                          0.7005158              19.0620
      -------------------------------------------------------------
                  HL-Gap            0.0895473 Eh            2.4367 eV

Wiberg/Mayer (AO) data.
largest (>0.10) Wiberg bond orders for each atom

     #   Z sym  total        # sym  WBO       # sym  WBO       # sym  WBO
 ---------------------------------------------------------------------------
     1   6 C    3.920 --    26 H    0.979    28 H    0.978    27 H    0.975
                             2 N    0.929
     2   7 N    3.512 --    20 C    1.178     3 C    1.127     1 C    0.929
                             4 O    0.132
     3   6 C    3.915 --     4 O    1.557     2 N    1.127     5 C    1.081
     4   8 O    1.904 --     3 C    1.557     2 N    0.132
     5   6 C    3.918 --     7 C    1.510     3 C    1.081     6 O    1.080
     6   8 O    2.071 --     5 C    1.080    29 H    0.796
     7   6 C    3.963 --     5 C    1.510    19 N    1.181     8 C    1.006
     8   6 C    3.905 --     9 O    1.494    10 N    1.319     7 C    1.006
     9   8 O    1.911 --     8 C    1.494    10 N    0.162
    10   7 N    3.387 --     8 C    1.319    11 C    0.933    30 H    0.882
                             9 O    0.162
    11   6 C    3.941 --    12 C    0.993    31 H    0.976    32 H    0.971
                            10 N    0.933
    12   6 C    3.988 --    18 C    1.421    13 C    1.417    11 C    0.993
    13   6 C    3.993 --    14 C    1.445    12 C    1.417    33 H    0.969
                            17 C    0.111
    14   6 C    3.992 --    13 C    1.445    15 C    1.399    34 H    0.969
                            18 C    0.110
    15   6 C    3.861 --    17 C    1.401    14 C    1.399    16 F    0.927
    16   9 F    1.055 --    15 C    0.927
    17   6 C    3.991 --    18 C    1.442    15 C    1.401    35 H    0.969
                            13 C    0.111
    18   6 C    3.993 --    17 C    1.442    12 C    1.421    36 H    0.971
                            14 C    0.110
    19   7 N    3.034 --    20 C    1.557     7 C    1.181
    20   6 C    3.932 --    19 N    1.557     2 N    1.178    21 C    1.026
    21   6 C    3.990 --    20 C    1.026    38 H    0.983    37 H    0.965
                            39 H    0.963
    22   6 C    3.872 --    25 N    1.681    24 C    1.060    23 C    1.056
    23   6 C    3.983 --    22 C    1.056    40 H    0.975    42 H    0.961
                            41 H    0.932
    24   6 C    3.985 --    22 C    1.060    44 H    0.978    45 H    0.953
                            43 H    0.939
    25   7 N    3.522 --    22 C    1.681    47 H    0.882    46 H    0.801
    26   1 H    0.998 --     1 C    0.979
    27   1 H    1.005 --     1 C    0.975
    28   1 H    0.998 --     1 C    0.978
    29   1 H    0.839 --     6 O    0.796
    30   1 H    0.939 --    10 N    0.882
    31   1 H    1.001 --    11 C    0.976
    32   1 H    1.007 --    11 C    0.971
    33   1 H    1.010 --    13 C    0.969
    34   1 H    0.998 --    14 C    0.969
    35   1 H    0.997 --    17 C    0.969
    36   1 H    0.999 --    18 C    0.971
    37   1 H    0.997 --    21 C    0.965
    38   1 H    1.009 --    21 C    0.983
    39   1 H    0.996 --    21 C    0.963
    40   1 H    0.995 --    23 C    0.975
    41   1 H    1.002 --    23 C    0.932
    42   1 H    1.007 --    23 C    0.961
    43   1 H    0.991 --    24 C    0.939
    44   1 H    0.991 --    24 C    0.978
    45   1 H    0.992 --    24 C    0.953
    46   1 H    0.937 --    25 N    0.801
    47   1 H    0.913 --    25 N    0.882
 ---------------------------------------------------------------------------

           -------------------------------------------------
          | TOTAL ENERGY              -79.546392088101 Eh   |
          | GRADIENT NORM               0.000689813217 Eh/α |
          | HOMO-LUMO GAP               2.436706817307 eV   |
           -------------------------------------------------

 * finished run on 2023/06/20 at 15:22:35.760
