   * xtb version 6.5.1 (579679a) compiled by 'ehlert@majestix' on 2022-07-11
          program call               : /lustre/hpc/kemi/ree/PhD/git/ReactivityQM/dep/xtb-6.5.1/bin/xtb --gfn 1 /lustre/hpc/kemi/ree/PhD/git/ReactivityQM/calculations/R02oxygendeprot/reac01/conf16/R02oxygendeprot_reac01_conf16_gfn1.xyz --opt --vfukui --chrg -1 --uhf 0 --alpb DMSO

   ID    Z sym.   atoms
    1    6 C      1, 3, 5, 7-10, 12, 14, 17, 18, 21, 23
    2    8 O      2, 4, 13, 19, 22, 24
    3    7 N      6, 11, 15, 16, 20
    4    1 H      25-38

      * Solvation model:               ALPB
        Solvent                        DMSO
        Solvent mass                       7.8130E+01 g/mol
          :  Hamiltonian                  GFN1-xTB          :
 * total energy  :   -79.6019913 Eh     change       -0.3439027E-10 Eh
 * total energy  :   -79.6142682 Eh     change       -0.1227692E-01 Eh
 * total energy  :   -79.6184918 Eh     change       -0.4223554E-02 Eh
 * total energy  :   -79.6193571 Eh     change       -0.8653086E-03 Eh
 * total energy  :   -79.6200089 Eh     change       -0.6517870E-03 Eh
 * total energy  :   -79.6202997 Eh     change       -0.2907987E-03 Eh
 * total energy  :   -79.6204755 Eh     change       -0.1758588E-03 Eh
 * total energy  :   -79.6205791 Eh     change       -0.1035184E-03 Eh
 * total energy  :   -79.6206493 Eh     change       -0.7029314E-04 Eh
 * total energy  :   -79.6207082 Eh     change       -0.5882583E-04 Eh
 * total energy  :   -79.6215733 Eh     change       -0.9570259E-05 Eh
 * total energy  :   -79.6215868 Eh     change       -0.1348997E-04 Eh
 * total energy  :   -79.6215964 Eh     change       -0.9636347E-05 Eh
 * total energy  :   -79.6216040 Eh     change       -0.7520756E-05 Eh
 * total energy  :   -79.6216109 Eh     change       -0.6912915E-05 Eh
 * total energy  :   -79.6216135 Eh     change       -0.2622146E-05 Eh
 * total energy  :   -79.6216213 Eh     change       -0.7843566E-05 Eh
 * total energy  :   -79.6216270 Eh     change       -0.5688817E-05 Eh
 * total energy  :   -79.6216319 Eh     change       -0.4872715E-05 Eh
   *** GEOMETRY OPTIMIZATION CONVERGED AFTER 55 ITERATIONS ***

 final structure:
================
38
 xtb: 6.5.1 (579679a)
C            5.53121547966411        0.91585063029954        2.03634293426296
O            4.36987720056996        0.68880775888105        1.25064842819997
C            4.33375821029916        1.33853671872225        0.04615479278697
O            5.25440933813589        2.06804154620150       -0.28696306882774
C            3.12913769800676        1.04011639837324       -0.71007821022650
N            2.24230701865204        0.18022194565373       -0.08967502488762
C            1.15405349384128       -0.16268852979687       -0.66896971488994
C            0.18731129633394       -1.11960504924040       -0.00356735916856
C            0.19523862770595       -2.45907511886134       -0.75388422222536
C            0.57528419846356       -1.31020044169222        1.46550025927055
N           -1.15070226438932       -0.51234323980224       -0.08662700174153
C           -2.27033852574524       -1.09298298191944        0.38163589946667
O           -2.34856900421155       -2.20295024241020        0.88062839176341
C           -3.44117936104140       -0.18874843144379        0.21316793476166
N           -3.41456101648840        1.01223276247662       -0.28086093541128
N           -4.69266049167129        1.48436465834399       -0.23705006813718
C           -5.41678210079791        0.54084895672897        0.28223394670305
C           -6.87365701523525        0.55670100190061        0.53929292213825
O           -4.68434500236895       -0.54053544181122        0.58881294266106
N            0.82129116521400        0.29297590406720       -1.93094555470829
C            1.60248953309981        1.15484305459692       -2.65966727517688
O            1.23496020410588        1.51222391451413       -3.77579409896869
C            2.88960949178996        1.59504373298730       -1.99608085601345
O            3.63260330120960        2.38582113448300       -2.60299457799313
H            5.64075264625230        1.97957175312303        2.27164637692704
H            6.42903681885784        0.57661554781919        1.50910343855620
H            5.40936797781704        0.34678412013270        2.95708256373771
H           -0.46256218506178       -3.17473502513075       -0.26472203834099
H            1.20829637289521       -2.85929559703796       -0.76366868074212
H           -0.13925489047616       -2.31572621633004       -1.77989340890103
H            0.51875787922160       -0.35767303575890        1.99116169034842
H           -0.09101658675417       -2.02515911736525        1.94380957177327
H            1.59842561772862       -1.67987587369047        1.52022037202175
H           -1.22524536963550        0.43268475332893       -0.43473142342814
H           -7.36702109781246       -0.20345795619597       -0.06695048466520
H           -7.07055217037798        0.33095849069836        1.58722239055855
H           -7.27847403310838        1.53550397070740        0.29279159214519
H           -0.03126145469968       -0.01963045554411       -2.36433444362431

          :  Hamiltonian                  GFN1-xTB          :
         :: total energy             -79.621631899603 Eh    ::
         :: gradient norm              0.000695513754 Eh/a0 ::
         :: HOMO-LUMO gap              1.682167926984 eV    ::
         :: SCC energy               -80.349148711386 Eh    ::
         :: -> Gsolv                  -0.123803400762 Eh    ::
         :: repulsion energy           0.750285842368 Eh    ::

    * Orbital Energies and Occupations

         #    Occupation            Energy/Eh            Energy/eV
      -------------------------------------------------------------
         1        2.0000           -0.8601094             -23.4048
       ...           ...                  ...                  ...
        52        2.0000           -0.4846919             -13.1891
        53        2.0000           -0.4785066             -13.0208
        54        2.0000           -0.4654486             -12.6655
        55        2.0000           -0.4598581             -12.5134
        56        2.0000           -0.4564868             -12.4216
        57        2.0000           -0.4558116             -12.4033
        58        2.0000           -0.4475456             -12.1783
        59        2.0000           -0.4410126             -12.0006
        60        2.0000           -0.4402188             -11.9790
        61        2.0000           -0.4375597             -11.9066
        62        2.0000           -0.4180730             -11.3763
        63        2.0000           -0.3786678             -10.3041
        64        2.0000           -0.3668164              -9.9816 (HOMO)
        65                         -0.3049978              -8.2994 (LUMO)
        66                         -0.2711259              -7.3777
        67                         -0.2537053              -6.9037
        68                         -0.2409705              -6.5571
        69                         -0.1973616              -5.3705
        70                         -0.1932140              -5.2576
        71                         -0.1408010              -3.8314
        72                         -0.1224125              -3.3310
        73                         -0.1180617              -3.2126
        74                         -0.1135854              -3.0908
        75                         -0.1090623              -2.9677
       ...                                ...                  ...
       124                          0.7662486              20.8507
      -------------------------------------------------------------
                  HL-Gap            0.0618185 Eh            1.6822 eV

Wiberg/Mayer (AO) data.
largest (>0.10) Wiberg bond orders for each atom

     #   Z sym  total        # sym  WBO       # sym  WBO       # sym  WBO
 ---------------------------------------------------------------------------
     1   6 C    3.899 --    27 H    0.987    26 H    0.980    25 H    0.980
                             2 O    0.927
     2   8 O    2.137 --     3 C    1.025     1 C    0.927     4 O    0.109
     3   6 C    3.850 --     4 O    1.594     5 C    1.117     2 O    1.025
     4   8 O    1.869 --     3 C    1.594     2 O    0.109
     5   6 C    3.916 --    23 C    1.266     6 N    1.155     3 C    1.117
                            24 O    0.130
     6   7 N    3.031 --     7 C    1.637     5 C    1.155
     7   6 C    3.933 --     6 N    1.637    20 N    1.088     8 C    0.978
     8   6 C    3.930 --    10 C    0.993     9 C    0.983     7 C    0.978
                            11 N    0.911
     9   6 C    3.990 --    29 H    0.986    30 H    0.984     8 C    0.983
                            28 H    0.980
    10   6 C    3.992 --     8 C    0.993    31 H    0.985    33 H    0.984
                            32 H    0.984
    11   7 N    3.353 --    12 C    1.267     8 C    0.911    34 H    0.896
                            13 O    0.181
    12   6 C    3.919 --    13 O    1.586    11 N    1.267    14 C    0.984
    13   8 O    1.904 --    12 C    1.586    11 N    0.181
    14   6 C    3.873 --    15 N    1.613    19 O    1.064    12 C    0.984
    15   7 N    3.016 --    14 C    1.613    16 N    1.196
    16   7 N    2.981 --    17 C    1.609    15 N    1.196
    17   6 C    3.872 --    16 N    1.609    19 O    1.082    18 C    1.031
    18   6 C    3.987 --    17 C    1.031    37 H    0.983    36 H    0.966
                            35 H    0.962
    19   8 O    2.329 --    17 C    1.082    14 C    1.064
    20   7 N    3.422 --    21 C    1.157     7 C    1.088    38 H    0.898
                            22 O    0.135
    21   6 C    3.876 --    22 O    1.581    20 N    1.157    23 C    0.966
    22   8 O    1.859 --    21 C    1.581    20 N    0.135
    23   6 C    3.942 --    24 O    1.527     5 C    1.266    21 C    0.966
    24   8 O    1.831 --    23 C    1.527     5 C    0.130
    25   1 H    1.014 --     1 C    0.980
    26   1 H    1.014 --     1 C    0.980
    27   1 H    1.016 --     1 C    0.987
    28   1 H    1.010 --     9 C    0.980
    29   1 H    1.003 --     9 C    0.986
    30   1 H    1.003 --     9 C    0.984
    31   1 H    1.009 --    10 C    0.985
    32   1 H    1.009 --    10 C    0.984
    33   1 H    1.014 --    10 C    0.984
    34   1 H    0.956 --    11 N    0.896
    35   1 H    0.997 --    18 C    0.962
    36   1 H    0.997 --    18 C    0.966
    37   1 H    0.999 --    18 C    0.983
    38   1 H    0.945 --    20 N    0.898
 ---------------------------------------------------------------------------

           -------------------------------------------------
          | TOTAL ENERGY              -79.621631899603 Eh   |
          | GRADIENT NORM               0.000695513754 Eh/α |
          | HOMO-LUMO GAP               1.682167926984 eV   |
           -------------------------------------------------

 * finished run on 2023/06/21 at 17:00:48.910
