   * xtb version 6.5.1 (579679a) compiled by 'ehlert@majestix' on 2022-07-11
          program call               : /lustre/hpc/kemi/ree/PhD/git/ReactivityQM/dep/xtb-6.5.1/bin/xtb --gfn 1 /lustre/hpc/kemi/ree/PhD/git/ReactivityQM/calculations/R02deprot/reac01prodE08/conf16/R02deprot_reac01prodE08_conf16_gfn1.xyz --opt --vfukui --chrg -2 --uhf 0 --alpb DMSO

   ID    Z sym.   atoms
    1    6 C      1, 3, 5, 7-10, 12, 14, 15, 18, 19, 22, 24
    2    8 O      2, 4, 13, 20, 23, 25
    3    7 N      6, 11, 16, 17, 21
    4    1 H      26-42

      * Solvation model:               ALPB
        Solvent                        DMSO
        Solvent mass                       7.8130E+01 g/mol
          :  Hamiltonian                  GFN1-xTB          :
 * total energy  :   -83.6078065 Eh     change       -0.2640377E-10 Eh
 * total energy  :   -83.6225729 Eh     change       -0.1476645E-01 Eh
 * total energy  :   -83.6284150 Eh     change       -0.5842134E-02 Eh
 * total energy  :   -83.6293240 Eh     change       -0.9089080E-03 Eh
 * total energy  :   -83.6298731 Eh     change       -0.5491285E-03 Eh
 * total energy  :   -83.6300910 Eh     change       -0.2179050E-03 Eh
 * total energy  :   -83.6302862 Eh     change       -0.1952057E-03 Eh
 * total energy  :   -83.6304532 Eh     change       -0.1669792E-03 Eh
 * total energy  :   -83.6306046 Eh     change       -0.1514457E-03 Eh
 * total energy  :   -83.6307305 Eh     change       -0.1258611E-03 Eh
 * total energy  :   -83.6329185 Eh     change       -0.1018864E-04 Eh
 * total energy  :   -83.6329324 Eh     change       -0.1388664E-04 Eh
 * total energy  :   -83.6329510 Eh     change       -0.1857513E-04 Eh
 * total energy  :   -83.6329665 Eh     change       -0.1554574E-04 Eh
 * total energy  :   -83.6329751 Eh     change       -0.8644930E-05 Eh
 * total energy  :   -83.6329821 Eh     change       -0.6924242E-05 Eh
 * total energy  :   -83.6329916 Eh     change       -0.9578207E-05 Eh
 * total energy  :   -83.6329991 Eh     change       -0.7450249E-05 Eh
 * total energy  :   -83.6330029 Eh     change       -0.3780927E-05 Eh
   *** GEOMETRY OPTIMIZATION CONVERGED AFTER 54 ITERATIONS ***

 final structure:
================
42
 xtb: 6.5.1 (579679a)
C            6.82857499416439        1.00356392930322       -0.25469499889212
O            5.50096553034367        1.01868055343023       -0.77597251098925
C            4.57655749131295        0.33415033822571       -0.04838971097311
O            4.89388018861425       -0.24646333518113        0.97450035261745
C            3.21539096948184        0.38223999948619       -0.60501035923102
N            2.29467182421955       -0.27939419751984        0.16376915939051
C            1.04109506623801       -0.26500664017680       -0.24186064252774
C            0.05929989491508       -1.02901467473956        0.64661464522645
C            0.29207077070538       -2.53498656713939        0.42993078023617
C            0.30896812580647       -0.66221652167730        2.11660052038931
N           -1.29662708339990       -0.67374017751312        0.26138133730929
C           -2.41603169944724       -1.14798844501561        0.80751758239772
O           -2.46105444592349       -1.91431536424876        1.77283110834114
C           -3.70795132740399       -0.61813949737238        0.08643041510920
C           -4.62774616164864       -1.82837424620030       -0.17063870605917
N           -3.35716345713644        0.07876491374536       -1.14048155023870
N           -3.79852741205504        1.36600520959784       -0.97742570239895
C           -4.35497614178591        1.50047301247623        0.16803493151672
C           -4.97190828501184        2.72780065197982        0.74342215284937
O           -4.36345500435579        0.32691681970878        0.93413668425466
N            0.56278407899678        0.30919630736427       -1.33663021004303
C            1.40740320728896        0.97518777417195       -2.17331055922854
O            1.00599937915786        1.51935633633521       -3.21822866390327
C            2.81980196242298        1.01202393682452       -1.76696909637407
O            3.64415445262022        1.69361238533543       -2.60924584611299
H            7.21516830030831       -0.01886851299422       -0.22757020127212
H            7.43779931745360        1.61405394653071       -0.91744752762926
H            6.84497330596477        1.41888414097626        0.75674784662021
H            1.33344487837733       -2.77175727760120        0.64428886119828
H            0.07558746231699       -2.80279735565157       -0.60426060632100
H           -0.34834543932959       -3.11965743016319        1.08930014086021
H           -0.31518589004726       -1.26427513800949        2.77547151245911
H            1.35622238587979       -0.84350601060539        2.35632664607327
H            0.08945750137274        0.39239812788193        2.28385570221126
H           -1.41889523809682       -0.12120622613011       -0.60055677181995
H           -5.56841021411880       -1.48139234098075       -0.59303990497120
H           -4.14795183914610       -2.50416766894980       -0.87632170931742
H           -4.82353328998220       -2.35603760294928        0.76205027412250
H           -6.03662729752652        2.57852813702172        0.93911521367951
H           -4.85765930556479        3.54974453125023        0.03784292937203
H           -4.49679260932163        3.00351620803930        1.68818152172368
H            4.56457205334301        1.67820897112237       -2.31084503964179

          :  Hamiltonian                  GFN1-xTB          :
         :: total energy             -83.633002879114 Eh    ::
         :: gradient norm              0.000571564745 Eh/a0 ::
         :: HOMO-LUMO gap              0.166510963614 eV    ::
         :: SCC energy               -84.364577803320 Eh    ::
         :: -> Gsolv                  -0.277044872452 Eh    ::
         :: repulsion energy           0.757640517341 Eh    ::

    * Orbital Energies and Occupations

         #    Occupation            Energy/Eh            Energy/eV
      -------------------------------------------------------------
         1        2.0000           -0.8112923             -22.0764
       ...           ...                  ...                  ...
        56        2.0000           -0.4460106             -12.1366
        57        2.0000           -0.4437036             -12.0738
        58        2.0000           -0.4222072             -11.4888
        59        2.0000           -0.4104431             -11.1687
        60        2.0000           -0.4019707             -10.9382
        61        2.0000           -0.3981795             -10.8350
        62        2.0000           -0.3962792             -10.7833
        63        2.0000           -0.3881862             -10.5631
        64        2.0000           -0.3780688             -10.2878
        65        2.0000           -0.3617360              -9.8433
        66        2.0000           -0.3589766              -9.7683
        67        2.0000           -0.3507228              -9.5437
        68        1.9232           -0.2770693              -7.5394 (HOMO)
        69        0.0768           -0.2709501              -7.3729 (LUMO)
        70                         -0.2155530              -5.8655
        71                         -0.2031203              -5.5272
        72                         -0.1811862              -4.9303
        73                         -0.1641994              -4.4681
        74                         -0.1241977              -3.3796
        75                         -0.1087745              -2.9599
        76                         -0.1001756              -2.7259
        77                         -0.0951143              -2.5882
        78                         -0.0924764              -2.5164
        79                         -0.0887151              -2.4141
       ...                                ...                  ...
       134                          0.7352574              20.0074
      -------------------------------------------------------------
                  HL-Gap            0.0061192 Eh            0.1665 eV

Wiberg/Mayer (AO) data.
largest (>0.10) Wiberg bond orders for each atom

     #   Z sym  total        # sym  WBO       # sym  WBO       # sym  WBO
 ---------------------------------------------------------------------------
     1   6 C    3.884 --    27 H    0.987    26 H    0.981    28 H    0.981
                             2 O    0.908
     2   8 O    2.165 --     3 C    1.037     1 C    0.908     4 O    0.113
     3   6 C    3.797 --     4 O    1.621     5 C    1.051     2 O    1.037
     4   8 O    1.873 --     3 C    1.621     2 O    0.113
     5   6 C    3.950 --    24 C    1.452     6 N    1.201     3 C    1.051
     6   7 N    2.985 --     7 C    1.449     5 C    1.201
     7   6 C    3.956 --     6 N    1.449    21 N    1.383     8 C    0.969
     8   6 C    3.947 --    10 C    0.989     9 C    0.979     7 C    0.969
                            11 N    0.938
     9   6 C    3.996 --    30 H    0.987    29 H    0.987    31 H    0.984
                             8 C    0.979
    10   6 C    3.996 --     8 C    0.989    34 H    0.987    33 H    0.985
                            32 H    0.984
    11   7 N    3.374 --    12 C    1.323     8 C    0.938    35 H    0.860
                            13 O    0.169
    12   6 C    3.868 --    13 O    1.554    11 N    1.323    14 C    0.887
    13   8 O    1.853 --    12 C    1.554    11 N    0.169
    14   6 C    3.895 --    16 N    1.019    15 C    0.969    20 O    0.913
                            12 C    0.887
    15   6 C    3.991 --    37 H    0.988    36 H    0.986    38 H    0.986
                            14 C    0.969
    16   7 N    2.591 --    17 N    1.174    14 C    1.019    18 C    0.187
    17   7 N    3.004 --    18 C    1.669    16 N    1.174
    18   6 C    3.841 --    17 N    1.669    19 C    1.016    20 O    0.941
                            16 N    0.187
    19   6 C    3.996 --    18 C    1.016    40 H    0.987    41 H    0.977
                            39 H    0.977
    20   8 O    2.057 --    18 C    0.941    14 C    0.913
    21   7 N    2.986 --     7 C    1.383    22 C    1.223    23 O    0.121
    22   6 C    3.925 --    23 O    1.487    21 N    1.223    24 C    1.083
    23   8 O    1.770 --    22 C    1.487    21 N    0.121
    24   6 C    3.870 --     5 C    1.452    22 C    1.083    25 O    1.049
    25   8 O    2.030 --    24 C    1.049    42 H    0.827
    26   1 H    1.011 --     1 C    0.981
    27   1 H    1.013 --     1 C    0.987
    28   1 H    1.012 --     1 C    0.981
    29   1 H    1.013 --     9 C    0.987
    30   1 H    1.008 --     9 C    0.987
    31   1 H    1.015 --     9 C    0.984
    32   1 H    1.018 --    10 C    0.984
    33   1 H    1.023 --    10 C    0.985
    34   1 H    1.008 --    10 C    0.987
    35   1 H    1.008 --    11 N    0.860
    36   1 H    1.018 --    15 C    0.986
    37   1 H    1.015 --    15 C    0.988
    38   1 H    1.015 --    15 C    0.986
    39   1 H    1.009 --    19 C    0.977
    40   1 H    1.010 --    19 C    0.987
    41   1 H    1.008 --    19 C    0.977
    42   1 H    0.879 --    25 O    0.827
 ---------------------------------------------------------------------------

           -------------------------------------------------
          | TOTAL ENERGY              -83.633002879114 Eh   |
          | GRADIENT NORM               0.000571564745 Eh/α |
          | HOMO-LUMO GAP               0.166510963614 eV   |
           -------------------------------------------------

 * finished run on 2023/06/20 at 17:52:14.809
