   * xtb version 6.5.1 (579679a) compiled by 'ehlert@majestix' on 2022-07-11
          program call               : /lustre/hpc/kemi/ree/PhD/git/ReactivityQM/dep/xtb-6.5.1/bin/xtb --gfn 1 /lustre/hpc/kemi/ree/PhD/git/ReactivityQM/calculations/R03/reac01prodN01/conf07/R03_reac01prodN01_conf07_gfn1.xyz --opt --vfukui --chrg 1 --uhf 0 --alpb DMSO

   ID    Z sym.   atoms
    1    6 C      1, 3-7, 9, 10
    2    7 N      2
    3    9 F      8
    4    1 H      11-21

      * Solvation model:               ALPB
        Solvent                        DMSO
        Solvent mass                       7.8130E+01 g/mol
          :  Hamiltonian                  GFN1-xTB          :
 * total energy  :   -30.8255387 Eh     change       -0.1364242E-11 Eh
 * total energy  :   -30.8291874 Eh     change       -0.3648753E-02 Eh
 * total energy  :   -30.8297954 Eh     change       -0.6079682E-03 Eh
 * total energy  :   -30.8298499 Eh     change       -0.5451660E-04 Eh
 * total energy  :   -30.8298625 Eh     change       -0.1255935E-04 Eh
 * total energy  :   -30.8298658 Eh     change       -0.3325134E-05 Eh
   *** GEOMETRY OPTIMIZATION CONVERGED AFTER 6 ITERATIONS ***

 final structure:
================
21
 xtb: 6.5.1 (579679a)
C            3.22889626511041        0.12878993605893        0.46512675946362
N            1.75116784379475        0.12673911669009        0.58915408259857
C            1.06792125200182       -0.12485361990441       -0.72210428410275
C           -0.42463237391926       -0.08723274414764       -0.52600717276291
C           -1.11573217875103       -1.25435289505729       -0.20427928077571
C           -2.49069649172178       -1.22719684098307       -0.02382049218394
C           -3.14880132778141       -0.01820925459633       -0.17023281942712
F           -4.47402128801687        0.01408912525976       -0.00289505855277
C           -2.49054690099856        1.15848401338676       -0.48388673666170
C           -1.11573376327804        1.11582957016647       -0.66180665392280
H            3.51652788687717        0.91890983031329       -0.22359363303698
H            3.54576705810711       -0.83971720274320        0.08707402240273
H            3.64891391476080        0.31024442199726        1.45132514111495
H            1.44808165716377        1.02541685069680        0.95625303661725
H            1.47359924214396       -0.59194206771035        1.25316147391964
H            1.40687725940626       -1.10061529451713       -1.07210912324406
H            1.40663401668879        0.65180950961291       -1.40911486632121
H           -0.57680491796727       -2.18747803214096       -0.09831562767673
H           -3.04108268697378       -2.12527681395420        0.22481661067106
H           -3.04018109104663        2.08510945932668       -0.58665446449899
H           -0.57615337560015        2.02145393224567       -0.90925191362009

          :  Hamiltonian                  GFN1-xTB          :
         :: total energy             -30.829865800074 Eh    ::
         :: gradient norm              0.000652733109 Eh/a0 ::
         :: HOMO-LUMO gap              4.543235240733 eV    ::
         :: SCC energy               -31.241460150795 Eh    ::
         :: -> Gsolv                  -0.101332521612 Eh    ::
         :: repulsion energy           0.421319342042 Eh    ::

    * Orbital Energies and Occupations

         #    Occupation            Energy/Eh            Energy/eV
      -------------------------------------------------------------
         1        2.0000           -0.8855957             -24.0983
       ...           ...                  ...                  ...
        15        2.0000           -0.5956088             -16.2073
        16        2.0000           -0.5790353             -15.7564
        17        2.0000           -0.5675221             -15.4431
        18        2.0000           -0.5635902             -15.3361
        19        2.0000           -0.5596401             -15.2286
        20        2.0000           -0.5591614             -15.2156
        21        2.0000           -0.5536516             -15.0656
        22        2.0000           -0.5335495             -14.5186
        23        2.0000           -0.5323290             -14.4854
        24        2.0000           -0.5175388             -14.0829
        25        2.0000           -0.4919327             -13.3862
        26        2.0000           -0.4708376             -12.8121
        27        2.0000           -0.4596514             -12.5078 (HOMO)
        28                         -0.2926906              -7.9645 (LUMO)
        29                         -0.2918010              -7.9403
        30                         -0.1812849              -4.9330
        31                         -0.1729420              -4.7060
        32                         -0.1676713              -4.5626
        33                         -0.1559465              -4.2435
        34                         -0.1527041              -4.1553
        35                         -0.1164485              -3.1687
        36                         -0.1100543              -2.9947
        37                         -0.1024898              -2.7889
        38                         -0.0996863              -2.7126
       ...                                ...                  ...
        62                          0.6272958              17.0696
      -------------------------------------------------------------
                  HL-Gap            0.1669608 Eh            4.5432 eV

Wiberg/Mayer (AO) data.
largest (>0.10) Wiberg bond orders for each atom

     #   Z sym  total        # sym  WBO       # sym  WBO       # sym  WBO
 ---------------------------------------------------------------------------
     1   6 C    3.894 --    12 H    0.984    11 H    0.984    13 H    0.980
                             2 N    0.920
     2   7 N    3.607 --     1 C    0.920     3 C    0.894    14 H    0.892
                            15 H    0.892
     3   6 C    3.902 --     4 C    1.005    16 H    0.974    17 H    0.974
                             2 N    0.894
     4   6 C    3.983 --     5 C    1.413    10 C    1.413     3 C    1.005
     5   6 C    3.993 --     6 C    1.448     4 C    1.413    18 H    0.970
                             9 C    0.109
     6   6 C    3.991 --     5 C    1.448     7 C    1.396    19 H    0.967
                            10 C    0.109
     7   6 C    3.865 --     6 C    1.396     9 C    1.396     8 F    0.941
     8   9 F    1.074 --     7 C    0.941
     9   6 C    3.991 --    10 C    1.448     7 C    1.396    20 H    0.967
                             5 C    0.109
    10   6 C    3.993 --     9 C    1.448     4 C    1.413    21 H    0.970
                             6 C    0.109
    11   1 H    0.991 --     1 C    0.984
    12   1 H    0.991 --     1 C    0.984
    13   1 H    0.989 --     1 C    0.980
    14   1 H    0.921 --     2 N    0.892
    15   1 H    0.920 --     2 N    0.892
    16   1 H    0.995 --     3 C    0.974
    17   1 H    0.995 --     3 C    0.974
    18   1 H    0.996 --     5 C    0.970
    19   1 H    0.995 --     6 C    0.967
    20   1 H    0.995 --     9 C    0.967
    21   1 H    0.996 --    10 C    0.970
 ---------------------------------------------------------------------------

           -------------------------------------------------
          | TOTAL ENERGY              -30.829865800074 Eh   |
          | GRADIENT NORM               0.000652733109 Eh/α |
          | HOMO-LUMO GAP               4.543235240733 eV   |
           -------------------------------------------------

 * finished run on 2023/06/20 at 15:13:51.464
