   * xtb version 6.5.1 (579679a) compiled by 'ehlert@majestix' on 2022-07-11
          program call               : /lustre/hpc/kemi/ree/PhD/git/ReactivityQM/dep/xtb-6.5.1/bin/xtb --gfn 1 /lustre/hpc/kemi/ree/PhD/git/ReactivityQM/calculations/R02deprot/reac01prodN16/conf10/R02deprot_reac01prodN16_conf10_gfn1.xyz --opt --vfukui --chrg 0 --uhf 0 --alpb DMSO

   ID    Z sym.   atoms
    1    6 C      1, 3, 5, 7-10, 12, 14, 17, 18, 21, 23, 24
    2    8 O      2, 4, 13, 19, 22, 25
    3    7 N      6, 11, 15, 16, 20
    4    1 H      26-42

      * Solvation model:               ALPB
        Solvent                        DMSO
        Solvent mass                       7.8130E+01 g/mol
          :  Hamiltonian                  GFN1-xTB          :
 * total energy  :   -82.9439252 Eh     change       -0.1604405E-10 Eh
 * total energy  :   -82.9570859 Eh     change       -0.1316075E-01 Eh
 * total energy  :   -82.9624371 Eh     change       -0.5351139E-02 Eh
 * total energy  :   -82.9635283 Eh     change       -0.1091198E-02 Eh
 * total energy  :   -82.9640771 Eh     change       -0.5488702E-03 Eh
 * total energy  :   -82.9643565 Eh     change       -0.2793675E-03 Eh
 * total energy  :   -82.9645666 Eh     change       -0.2101146E-03 Eh
 * total energy  :   -82.9647188 Eh     change       -0.1521447E-03 Eh
 * total energy  :   -82.9648455 Eh     change       -0.1266930E-03 Eh
 * total energy  :   -82.9649636 Eh     change       -0.1181006E-03 Eh
 * total energy  :   -82.9709195 Eh     change       -0.7718995E-05 Eh
 * total energy  :   -82.9709271 Eh     change       -0.7565630E-05 Eh
 * total energy  :   -82.9709344 Eh     change       -0.7296735E-05 Eh
 * total energy  :   -82.9709401 Eh     change       -0.5705971E-05 Eh
 * total energy  :   -82.9709462 Eh     change       -0.6079310E-05 Eh
 * total energy  :   -82.9709525 Eh     change       -0.6335205E-05 Eh
 * total energy  :   -82.9709589 Eh     change       -0.6423468E-05 Eh
 * total energy  :   -82.9709640 Eh     change       -0.5083874E-05 Eh
 * total energy  :   -82.9709685 Eh     change       -0.4450233E-05 Eh
   *** GEOMETRY OPTIMIZATION CONVERGED AFTER 104 ITERATIONS ***

 final structure:
================
42
 xtb: 6.5.1 (579679a)
C           -6.29668561847654        0.15923314593019        1.23877298714156
O           -5.05769394190679        0.15106082948809        0.51033884710102
C           -4.02425008678716        0.74506506210819        1.08877584686570
O           -4.06049639922842        1.30260930314150        2.15391830299515
C           -2.76865839210410        0.62390543317507        0.25607130641853
N           -1.65930856733944        0.62242063479374        0.88834564729410
C           -0.48350341164353        0.46464984881433        0.14037724580491
C            0.72185458305796        0.08665207784366        0.95799567825398
C            0.93471173410952        1.14271788222973        2.05307672791961
C            0.47239677145070       -1.29908278503118        1.57459171895480
N            1.86615565081797        0.04278446406196        0.05805148126913
C            3.11785945288962       -0.26201891265830        0.45135814044633
O            3.45644171345779       -0.52388707058514        1.59264017313091
C            4.05816077211453       -0.22885400867020       -0.69899245235762
N            3.75257319824831        0.03965798444792       -1.93262873441230
N            4.91037017168733       -0.02874205292483       -2.64788579190250
C            5.84883950445929       -0.33413631142770       -1.80390160589157
C            7.28972773974635       -0.52033842589807       -2.08278393537013
O            5.37347961258290       -0.47382725369772       -0.55777534584691
N           -0.39869516712204        0.65508190726350       -1.11919941638152
C           -1.55089227679708        0.99994198043259       -1.85135382192825
O           -1.48959113146117        1.63547120112623       -2.86675891760331
C           -2.83853318269237        0.43130028531086       -1.25086384773693
C           -2.86745775176628       -1.09371930602493       -1.51100836954346
O           -3.92594717065442        1.07114667665625       -1.84693841986275
H           -6.14025968914322       -0.25986348572018        2.23430472702852
H           -6.99118929765695       -0.45229765386488        0.66920755688533
H           -6.66553011022167        1.18298947217784        1.32457541631689
H            0.03697720448732        1.21017514531627        2.66492660009454
H            1.77599321121633        0.85662019942898        2.68106158171697
H            1.13510416668285        2.11341156786625        1.60221219060440
H            1.30626385422279       -1.57107836769493        2.21891967064944
H           -0.44324828955792       -1.27266332717583        2.16234473316861
H            0.36959192110844       -2.04242447137268        0.78610181427572
H            1.68274717501278        0.22223468261023       -0.92253168942133
H            7.47768758242349       -0.38118322310255       -3.14448062963321
H            7.87487160879197        0.19985503829761       -1.51078545859077
H            7.60143426140426       -1.52085939797386       -1.78357071780600
H           -3.74551316317895       -1.52030084453320       -1.03194647072426
H           -2.92531864127316       -1.26395668775927       -2.58426896744340
H           -1.97169765241440       -1.56336483348992       -1.11119683742817
H           -4.75877094851175        0.65361259705238       -1.59083896448933

          :  Hamiltonian                  GFN1-xTB          :
         :: total energy             -82.970968467576 Eh    ::
         :: gradient norm              0.000736388752 Eh/a0 ::
         :: HOMO-LUMO gap              1.743620429915 eV    ::
         :: SCC energy               -83.747846465105 Eh    ::
         :: -> Gsolv                  -0.055758335610 Eh    ::
         :: repulsion energy           0.803027631583 Eh    ::

    * Orbital Energies and Occupations

         #    Occupation            Energy/Eh            Energy/eV
      -------------------------------------------------------------
         1        2.0000           -0.8650988             -23.5405
       ...           ...                  ...                  ...
        55        2.0000           -0.5085006             -13.8370
        56        2.0000           -0.5072236             -13.8023
        57        2.0000           -0.5061695             -13.7736
        58        2.0000           -0.5029258             -13.6853
        59        2.0000           -0.4966826             -13.5154
        60        2.0000           -0.4893861             -13.3169
        61        2.0000           -0.4841025             -13.1731
        62        2.0000           -0.4682748             -12.7424
        63        2.0000           -0.4640726             -12.6281
        64        2.0000           -0.4622736             -12.5791
        65        2.0000           -0.4537725             -12.3478
        66        2.0000           -0.4490921             -12.2204
        67        2.0000           -0.4372771             -11.8989 (HOMO)
        68                         -0.3732002             -10.1553 (LUMO)
        69                         -0.3118099              -8.4848
        70                         -0.3097648              -8.4291
        71                         -0.2582951              -7.0286
        72                         -0.2539727              -6.9109
        73                         -0.2361920              -6.4271
        74                         -0.1996540              -5.4329
        75                         -0.1434501              -3.9035
        76                         -0.1427507              -3.8844
        77                         -0.1369393              -3.7263
        78                         -0.1250842              -3.4037
       ...                                ...                  ...
       134                          0.7294524              19.8494
      -------------------------------------------------------------
                  HL-Gap            0.0640769 Eh            1.7436 eV

Wiberg/Mayer (AO) data.
largest (>0.10) Wiberg bond orders for each atom

     #   Z sym  total        # sym  WBO       # sym  WBO       # sym  WBO
 ---------------------------------------------------------------------------
     1   6 C    3.850 --    27 H    0.985    26 H    0.979    28 H    0.978
                             2 O    0.876
     2   8 O    2.229 --     3 C    1.132     1 C    0.876     4 O    0.145
     3   6 C    3.851 --     4 O    1.696     2 O    1.132     5 C    0.949
     4   8 O    1.960 --     3 C    1.696     2 O    0.145
     5   6 C    3.934 --     6 N    1.764    23 C    0.956     3 C    0.949
     6   7 N    3.052 --     5 C    1.764     7 C    1.060
     7   6 C    3.925 --    20 N    1.701     6 N    1.060     8 C    0.996
     8   6 C    3.939 --     7 C    0.996     9 C    0.969    10 C    0.965
                            11 N    0.937
     9   6 C    3.985 --    31 H    0.986    29 H    0.984    30 H    0.978
                             8 C    0.969
    10   6 C    3.985 --    34 H    0.985    33 H    0.984    32 H    0.978
                             8 C    0.965
    11   7 N    3.351 --    12 C    1.257     8 C    0.937    35 H    0.880
                            13 O    0.178
    12   6 C    3.918 --    13 O    1.590    11 N    1.257    14 C    0.988
    13   8 O    1.908 --    12 C    1.590    11 N    0.178
    14   6 C    3.875 --    15 N    1.611    19 O    1.064    12 C    0.988
    15   7 N    3.015 --    14 C    1.611    16 N    1.199
    16   7 N    2.980 --    17 C    1.605    15 N    1.199
    17   6 C    3.871 --    16 N    1.605    19 O    1.083    18 C    1.031
    18   6 C    3.986 --    17 C    1.031    36 H    0.983    38 H    0.964
                            37 H    0.963
    19   8 O    2.330 --    17 C    1.083    14 C    1.064
    20   7 N    3.084 --     7 C    1.701    21 C    1.046
    21   6 C    3.866 --    22 O    1.765    20 N    1.046    23 C    0.934
    22   8 O    1.991 --    21 C    1.765
    23   6 C    3.931 --    25 O    0.983     5 C    0.956    21 C    0.934
                            24 C    0.923
    24   6 C    3.983 --    41 H    0.984    39 H    0.981    40 H    0.978
                            23 C    0.923
    25   8 O    1.911 --    23 C    0.983    42 H    0.838
    26   1 H    1.003 --     1 C    0.979
    27   1 H    1.007 --     1 C    0.985
    28   1 H    1.003 --     1 C    0.978
    29   1 H    1.008 --     9 C    0.984
    30   1 H    1.008 --     9 C    0.978
    31   1 H    1.001 --     9 C    0.986
    32   1 H    1.007 --    10 C    0.978
    33   1 H    1.004 --    10 C    0.984
    34   1 H    1.001 --    10 C    0.985
    35   1 H    0.964 --    11 N    0.880
    36   1 H    0.998 --    18 C    0.983
    37   1 H    0.997 --    18 C    0.963
    38   1 H    0.997 --    18 C    0.964
    39   1 H    1.003 --    24 C    0.981
    40   1 H    0.998 --    24 C    0.978
    41   1 H    1.000 --    24 C    0.984
    42   1 H    0.868 --    25 O    0.838
 ---------------------------------------------------------------------------

           -------------------------------------------------
          | TOTAL ENERGY              -82.970968467576 Eh   |
          | GRADIENT NORM               0.000736388752 Eh/α |
          | HOMO-LUMO GAP               1.743620429915 eV   |
           -------------------------------------------------

 * finished run on 2023/06/20 at 18:26:58.044
