   * xtb version 6.5.1 (579679a) compiled by 'ehlert@majestix' on 2022-07-11
          program call               : /lustre/hpc/kemi/ree/PhD/git/ReactivityQM/dep/xtb-6.5.1/bin/xtb --gfn 1 /lustre/hpc/kemi/ree/PhD/git/ReactivityQM/calculations/R01/reac02prodE03/conf16/R01_reac02prodE03_conf16_gfn1.xyz --opt --vfukui --chrg -1 --uhf 0 --alpb DMSO

   ID    Z sym.   atoms
    1    6 C      1, 3, 5, 6, 8-11, 14, 16
    2    8 O      2, 4, 15, 17
    3    7 N      7, 12, 13
    4    1 H      18-33

      * Solvation model:               ALPB
        Solvent                        DMSO
        Solvent mass                       7.8130E+01 g/mol
          :  Hamiltonian                  GFN1-xTB          :
 * total energy  :   -58.5223568 Eh     change       -0.3993250E-11 Eh
 * total energy  :   -58.5360900 Eh     change       -0.1373321E-01 Eh
 * total energy  :   -58.5400305 Eh     change       -0.3940491E-02 Eh
 * total energy  :   -58.5406909 Eh     change       -0.6603917E-03 Eh
 * total energy  :   -58.5410815 Eh     change       -0.3906569E-03 Eh
 * total energy  :   -58.5412301 Eh     change       -0.1485858E-03 Eh
 * total energy  :   -58.5413774 Eh     change       -0.1473120E-03 Eh
 * total energy  :   -58.5415242 Eh     change       -0.1467780E-03 Eh
 * total energy  :   -58.5417001 Eh     change       -0.1758910E-03 Eh
 * total energy  :   -58.5419110 Eh     change       -0.2109285E-03 Eh
 * total energy  :   -58.5486099 Eh     change       -0.1179655E-04 Eh
 * total energy  :   -58.5486362 Eh     change       -0.2628044E-04 Eh
 * total energy  :   -58.5486334 Eh     change        0.2778699E-05 Eh
 * total energy  :   -58.5486625 Eh     change       -0.2916448E-04 Eh
 * total energy  :   -58.5486708 Eh     change       -0.8301773E-05 Eh
 * total energy  :   -58.5486789 Eh     change       -0.8086086E-05 Eh
 * total energy  :   -58.5486892 Eh     change       -0.1029053E-04 Eh
 * total energy  :   -58.5487015 Eh     change       -0.1231528E-04 Eh
 * total energy  :   -58.5487051 Eh     change       -0.3524346E-05 Eh
   *** GEOMETRY OPTIMIZATION CONVERGED AFTER 69 ITERATIONS ***

 final structure:
================
33
 xtb: 6.5.1 (579679a)
C            4.13349817267013        1.31671700322132        0.66738608180217
O            3.28331790386979        0.45858986195938       -0.08756565792695
C            1.95382269643603        0.60629521165601        0.10834894396347
O            1.51301684780010        1.44864344416436        0.86904912935114
C            1.13310112068486       -0.47329338978596       -0.60006658968074
C            1.74892623992187       -0.86097442182335       -1.94730532318001
N           -0.21898396249305        0.02887002555311       -0.82688835700608
C           -1.05671203974440       -0.06434227508728        0.13631480813005
C           -2.43579420089309        0.56453840862121       -0.04766067309473
C           -3.54589239509118       -0.46724520464294        0.17808531738777
C           -2.58345011767808        1.73879970181456        0.93073155904863
N           -2.56657602426633        1.08197625984602       -1.40841834678930
N           -0.78567868182873       -0.64348491349823        1.33904769006251
C            0.25343246870281       -1.66405143707200        1.43774479598270
O            0.13819629263349       -2.47206953193373        2.39342821042700
C            1.15651163510303       -1.60795008874053        0.41067563549979
O            2.27621912623097       -2.47401825596379        0.35636252843983
H            3.92772892019606        2.36464479002671        0.42927500300173
H            5.15833908224751        1.07073480016832        0.39386182577589
H            3.98626506270064        1.16134846093778        1.74091841650249
H            2.75159413770516       -1.26130379518026       -1.80783016363839
H            1.12694963360057       -1.61832738185292       -2.42165277844524
H            1.80081948558600        0.00929531792607       -2.60058330687320
H           -3.54606679072074       -0.82115360988480        1.20794603771612
H           -3.40812659379507       -1.32078453016885       -0.48513005006185
H           -4.51444062143289       -0.01450242187316       -0.03303164044625
H           -1.77996160500627        2.45894666083758        0.77434464415408
H           -3.53789090040156        2.23732258598633        0.76452829781784
H           -2.54311826596924        1.38627764497158        1.96047843588828
H           -1.73386784026235        1.62013353678411       -1.63152328488175
H           -2.58769886439515        0.30175348060232       -2.05341508934507
H           -1.55674229697602       -0.80763936909841        1.96752151324331
H            2.05926137486424       -3.28374756846994       -0.11880961282875

          :  Hamiltonian                  GFN1-xTB          :
         :: total energy             -58.548705064093 Eh    ::
         :: gradient norm              0.000871262221 Eh/a0 ::
         :: HOMO-LUMO gap              2.323674393036 eV    ::
         :: SCC energy               -59.090511946242 Eh    ::
         :: -> Gsolv                  -0.111445571730 Eh    ::
         :: repulsion energy           0.561524354561 Eh    ::

    * Orbital Energies and Occupations

         #    Occupation            Energy/Eh            Energy/eV
      -------------------------------------------------------------
         1        2.0000           -0.8071649             -21.9641
       ...           ...                  ...                  ...
        36        2.0000           -0.4759106             -12.9502
        37        2.0000           -0.4731638             -12.8754
        38        2.0000           -0.4730800             -12.8732
        39        2.0000           -0.4681814             -12.7399
        40        2.0000           -0.4550149             -12.3816
        41        2.0000           -0.4481512             -12.1948
        42        2.0000           -0.4466738             -12.1546
        43        2.0000           -0.4296397             -11.6911
        44        2.0000           -0.3960519             -10.7771
        45        2.0000           -0.3888570             -10.5813
        46        2.0000           -0.3795262             -10.3274
        47        2.0000           -0.3677032             -10.0057
        48        2.0000           -0.3153007              -8.5798 (HOMO)
        49                         -0.2299073              -6.2561 (LUMO)
        50                         -0.2103627              -5.7243
        51                         -0.1306502              -3.5552
        52                         -0.1274298              -3.4675
        53                         -0.1142004              -3.1076
        54                         -0.1082238              -2.9449
        55                         -0.0968566              -2.6356
        56                         -0.0829437              -2.2570
        57                         -0.0701760              -1.9096
        58                         -0.0677185              -1.8427
        59                         -0.0639183              -1.7393
       ...                                ...                  ...
       100                          0.7219357              19.6449
      -------------------------------------------------------------
                  HL-Gap            0.0853935 Eh            2.3237 eV

Wiberg/Mayer (AO) data.
largest (>0.10) Wiberg bond orders for each atom

     #   Z sym  total        # sym  WBO       # sym  WBO       # sym  WBO
 ---------------------------------------------------------------------------
     1   6 C    3.893 --    19 H    0.987    18 H    0.981    20 H    0.981
                             2 O    0.915
     2   8 O    2.170 --     3 C    1.064     1 C    0.915     4 O    0.114
     3   6 C    3.811 --     4 O    1.631     2 O    1.064     5 C    0.928
     4   8 O    1.891 --     3 C    1.631     2 O    0.114
     5   6 C    3.964 --     6 C    0.992     7 N    0.972    16 C    0.936
                             3 C    0.928
     6   6 C    3.997 --     5 C    0.992    23 H    0.988    22 H    0.987
                            21 H    0.985
     7   7 N    2.981 --     8 C    1.684     5 C    0.972    13 N    0.152
     8   6 C    3.944 --     7 N    1.684    13 N    1.176     9 C    0.962
     9   6 C    3.969 --    10 C    0.993    12 N    0.988    11 C    0.987
                             8 C    0.962
    10   6 C    3.996 --     9 C    0.993    26 H    0.986    25 H    0.986
                            24 H    0.983
    11   6 C    3.997 --     9 C    0.987    29 H    0.986    28 H    0.986
                            27 H    0.986
    12   7 N    2.951 --     9 C    0.988    31 H    0.949    30 H    0.944
    13   7 N    3.296 --     8 C    1.176    32 H    0.917    14 C    0.908
                             7 N    0.152
    14   6 C    3.917 --    16 C    1.494    15 O    1.397    13 N    0.908
    15   8 O    1.718 --    14 C    1.397    16 C    0.173
    16   6 C    3.762 --    14 C    1.494    17 O    0.939     5 C    0.936
                            15 O    0.173
    17   8 O    1.901 --    16 C    0.939    33 H    0.871
    18   1 H    1.013 --     1 C    0.981
    19   1 H    1.014 --     1 C    0.987
    20   1 H    1.012 --     1 C    0.981
    21   1 H    1.020 --     6 C    0.985
    22   1 H    1.012 --     6 C    0.987
    23   1 H    1.010 --     6 C    0.988
    24   1 H    1.005 --    10 C    0.983
    25   1 H    1.004 --    10 C    0.986
    26   1 H    1.007 --    10 C    0.986
    27   1 H    1.006 --    11 C    0.986
    28   1 H    1.009 --    11 C    0.986
    29   1 H    1.006 --    11 C    0.986
    30   1 H    0.984 --    12 N    0.944
    31   1 H    0.973 --    12 N    0.949
    32   1 H    0.970 --    13 N    0.917
    33   1 H    0.895 --    17 O    0.871
 ---------------------------------------------------------------------------

           -------------------------------------------------
          | TOTAL ENERGY              -58.548705064093 Eh   |
          | GRADIENT NORM               0.000871262221 Eh/α |
          | HOMO-LUMO GAP               2.323674393036 eV   |
           -------------------------------------------------

 * finished run on 2023/06/20 at 14:58:52.118
