   * xtb version 6.5.1 (579679a) compiled by 'ehlert@majestix' on 2022-07-11
          program call               : /lustre/hpc/kemi/ree/PhD/git/ReactivityQM/dep/xtb-6.5.1/bin/xtb --gfn 1 /lustre/hpc/kemi/ree/PhD/git/ReactivityQM/calculations/R02oxygendeprot/reac01prodN04/conf13/R02oxygendeprot_reac01prodN04_conf13_gfn1.xyz --opt --vfukui --chrg 0 --uhf 0 --alpb DMSO

   ID    Z sym.   atoms
    1    6 C      1, 3, 5, 6, 8-11, 13, 15, 18, 19, 22, 24
    2    8 O      2, 4, 14, 20, 23, 25
    3    7 N      7, 12, 16, 17, 21
    4    1 H      26-42

      * Solvation model:               ALPB
        Solvent                        DMSO
        Solvent mass                       7.8130E+01 g/mol
          :  Hamiltonian                  GFN1-xTB          :
 * total energy  :   -82.9635453 Eh     change       -0.7219114E-11 Eh
 * total energy  :   -82.9800808 Eh     change       -0.1653559E-01 Eh
 * total energy  :   -82.9860902 Eh     change       -0.6009369E-02 Eh
 * total energy  :   -82.9874450 Eh     change       -0.1354756E-02 Eh
 * total energy  :   -82.9881782 Eh     change       -0.7332162E-03 Eh
 * total energy  :   -82.9885441 Eh     change       -0.3659541E-03 Eh
 * total energy  :   -82.9889057 Eh     change       -0.3615326E-03 Eh
 * total energy  :   -82.9892099 Eh     change       -0.3041877E-03 Eh
 * total energy  :   -82.9894736 Eh     change       -0.2637411E-03 Eh
 * total energy  :   -82.9896714 Eh     change       -0.1977562E-03 Eh
 * total energy  :   -82.9905449 Eh     change       -0.1847873E-04 Eh
 * total energy  :   -82.9905565 Eh     change       -0.1162611E-04 Eh
 * total energy  :   -82.9905665 Eh     change       -0.9945145E-05 Eh
 * total energy  :   -82.9905718 Eh     change       -0.5356348E-05 Eh
 * total energy  :   -82.9905832 Eh     change       -0.1140343E-04 Eh
 * total energy  :   -82.9905885 Eh     change       -0.5297116E-05 Eh
 * total energy  :   -82.9905962 Eh     change       -0.7645148E-05 Eh
 * total energy  :   -82.9906018 Eh     change       -0.5600391E-05 Eh
 * total energy  :   -82.9906057 Eh     change       -0.3941002E-05 Eh
   *** GEOMETRY OPTIMIZATION CONVERGED AFTER 35 ITERATIONS ***

 final structure:
================
42
 xtb: 6.5.1 (579679a)
C            5.07311491203250       -1.79460618427807        1.11044214842015
O            3.82344367793157       -1.15889919811939        0.83149032777437
C            3.75755174327998        0.16173649454895        0.81187973415924
O            4.88607323378923        0.75704473745583        1.13193781968475
C            5.25607696774496        2.09073086402656        0.76833339997324
C            2.53241573338412        0.73459844930487        0.43800198096963
N            1.64184781827759       -0.18971446677618       -0.10888551809164
C            0.49143568593623        0.17916146916963       -0.52826798447883
C           -0.43563530612486       -0.84960343101103       -1.15755239719700
C            0.16701381126636       -2.24529473321117       -0.98573996728238
C           -0.62989824363704       -0.54573686927277       -2.64880054080942
N           -1.72594458126556       -0.85949648800140       -0.45365744275696
C           -2.71642028058685        0.04159711688302       -0.58958043461101
O           -2.66777916871142        1.06829462182479       -1.24948156638656
C           -3.90549509641373       -0.35581240661740        0.20512076305680
N           -3.99061169397633       -1.38671649049946        0.99182999594341
N           -5.24176386225842       -1.36874038000309        1.52849345000909
C           -5.84161286218852       -0.32754291283723        1.03389481769704
C           -7.22427267419420        0.12637949529477        1.29914610729858
O           -5.04837080314272        0.35287400975676        0.19415006746926
N            0.06693566000146        1.48533926032886       -0.47523661448558
C            0.78729883919313        2.49597126651620        0.09715783938850
O            0.36837971792846        3.63971337489938        0.11493451259391
C            2.12466104609413        2.08834719619507        0.69431495467248
O            2.74187461274169        2.90162289913007        1.38125734667897
H            4.89402718221051       -2.86440925737186        1.02167794967938
H            5.40645128498203       -1.55017280325223        2.12119843238155
H            5.82843233949570       -1.47565598492066        0.38939333143431
H            5.02691897438240        2.77692271965888        1.58536361357409
H            4.74215885840828        2.40192588006395       -0.14152324261682
H            6.33299618718809        2.06410032197806        0.59886841525537
H            1.12878758751460       -2.29239282688389       -1.49319619505567
H            0.32225847690318       -2.46296552694153        0.07008606358322
H           -0.49848387117126       -2.99240843924820       -1.41367896981419
H           -1.00106697145214        0.46479349904879       -2.80361982490486
H           -1.33822101786240       -1.25278605556995       -3.07678006122637
H            0.32693133862105       -0.64921107706583       -3.15819311369565
H           -1.91296382415216       -1.66522262073733        0.12514621979949
H           -7.68111251129948       -0.51512620797008        2.04893569199728
H           -7.81103756261353        0.08651922902323        0.38099139270358
H           -7.21840864479547        1.15771530186040        1.65142239462484
H           -0.83798771346307        1.72712915360984       -0.86988689742470

          :  Hamiltonian                  GFN1-xTB          :
         :: total energy             -82.990605720303 Eh    ::
         :: gradient norm              0.000650135291 Eh/a0 ::
         :: HOMO-LUMO gap              2.325565236218 eV    ::
         :: SCC energy               -83.767779044721 Eh    ::
         :: -> Gsolv                  -0.053939150276 Eh    ::
         :: repulsion energy           0.802648174923 Eh    ::

    * Orbital Energies and Occupations

         #    Occupation            Energy/Eh            Energy/eV
      -------------------------------------------------------------
         1        2.0000           -0.8652415             -23.5444
       ...           ...                  ...                  ...
        55        2.0000           -0.5071029             -13.7990
        56        2.0000           -0.5041744             -13.7193
        57        2.0000           -0.5001055             -13.6086
        58        2.0000           -0.4913204             -13.3695
        59        2.0000           -0.4844196             -13.1817
        60        2.0000           -0.4725790             -12.8595
        61        2.0000           -0.4677949             -12.7293
        62        2.0000           -0.4645951             -12.6423
        63        2.0000           -0.4545875             -12.3700
        64        2.0000           -0.4543870             -12.3645
        65        2.0000           -0.4426276             -12.0445
        66        2.0000           -0.4203743             -11.4390
        67        2.0000           -0.4126841             -11.2297 (HOMO)
        68                         -0.3272212              -8.9041 (LUMO)
        69                         -0.3134017              -8.5281
        70                         -0.2709304              -7.3724
        71                         -0.2582989              -7.0287
        72                         -0.2485797              -6.7642
        73                         -0.2016613              -5.4875
        74                         -0.1575504              -4.2872
        75                         -0.1472972              -4.0082
        76                         -0.1427143              -3.8835
        77                         -0.1370899              -3.7304
        78                         -0.1290640              -3.5120
       ...                                ...                  ...
       134                          0.7518867              20.4599
      -------------------------------------------------------------
                  HL-Gap            0.0854629 Eh            2.3256 eV

Wiberg/Mayer (AO) data.
largest (>0.10) Wiberg bond orders for each atom

     #   Z sym  total        # sym  WBO       # sym  WBO       # sym  WBO
 ---------------------------------------------------------------------------
     1   6 C    3.862 --    26 H    0.984    27 H    0.978    28 H    0.978
                             2 O    0.889
     2   8 O    2.225 --     3 C    1.143     1 C    0.889
     3   6 C    3.830 --     6 C    1.320     4 O    1.145     2 O    1.143
     4   8 O    2.224 --     3 C    1.145     5 C    0.873
     5   6 C    3.845 --    30 H    0.982    31 H    0.980    29 H    0.969
                             4 O    0.873
     6   6 C    3.923 --     3 C    1.320    24 C    1.181     7 N    1.105
     7   7 N    3.025 --     8 C    1.660     6 C    1.105
     8   6 C    3.934 --     7 N    1.660    21 N    1.116     9 C    0.969
     9   6 C    3.933 --    10 C    1.001    11 C    0.984     8 C    0.969
                            12 N    0.916
    10   6 C    3.992 --     9 C    1.001    34 H    0.985    33 H    0.983
                            32 H    0.982
    11   6 C    3.987 --    37 H    0.985     9 C    0.984    36 H    0.984
                            35 H    0.979
    12   7 N    3.349 --    13 C    1.267     9 C    0.916    38 H    0.893
                            14 O    0.177
    13   6 C    3.917 --    14 O    1.571    12 N    1.267    15 C    0.992
    14   8 O    1.919 --    13 C    1.571    12 N    0.177
    15   6 C    3.876 --    16 N    1.608    20 O    1.065    13 C    0.992
    16   7 N    3.018 --    15 C    1.608    17 N    1.202
    17   7 N    2.981 --    18 C    1.602    16 N    1.202
    18   6 C    3.870 --    17 N    1.602    20 O    1.084    19 C    1.032
    19   6 C    3.986 --    18 C    1.032    39 H    0.982    41 H    0.965
                            40 H    0.961
    20   8 O    2.333 --    18 C    1.084    15 C    1.065
    21   7 N    3.443 --    22 C    1.172     8 C    1.116    42 H    0.859
                            23 O    0.140
    22   6 C    3.889 --    23 O    1.629    21 N    1.172    24 C    0.943
    23   8 O    1.906 --    22 C    1.629    21 N    0.140
    24   6 C    3.919 --    25 O    1.600     6 C    1.181    22 C    0.943
    25   8 O    1.921 --    24 C    1.600
    26   1 H    1.009 --     1 C    0.984
    27   1 H    1.005 --     1 C    0.978
    28   1 H    1.004 --     1 C    0.978
    29   1 H    1.022 --     5 C    0.969
    30   1 H    1.007 --     5 C    0.982
    31   1 H    1.009 --     5 C    0.980
    32   1 H    1.010 --    10 C    0.982
    33   1 H    1.005 --    10 C    0.983
    34   1 H    0.999 --    10 C    0.985
    35   1 H    1.009 --    11 C    0.979
    36   1 H    0.999 --    11 C    0.984
    37   1 H    1.001 --    11 C    0.985
    38   1 H    0.950 --    12 N    0.893
    39   1 H    0.998 --    19 C    0.982
    40   1 H    0.996 --    19 C    0.961
    41   1 H    0.996 --    19 C    0.965
    42   1 H    0.937 --    21 N    0.859
 ---------------------------------------------------------------------------

           -------------------------------------------------
          | TOTAL ENERGY              -82.990605720303 Eh   |
          | GRADIENT NORM               0.000650135291 Eh/α |
          | HOMO-LUMO GAP               2.325565236218 eV   |
           -------------------------------------------------

 * finished run on 2023/06/21 at 17:20:07.917
