   * xtb version 6.5.1 (579679a) compiled by 'ehlert@majestix' on 2022-07-11
          program call               : /lustre/hpc/kemi/ree/PhD/git/ReactivityQM/dep/xtb-6.5.1/bin/xtb --gfn 1 /lustre/hpc/kemi/ree/PhD/git/ReactivityQM/calculations/RaltegravirCLI/reac02prodE07/conf17/RaltegravirCLI_reac02prodE07_conf17_gfn1.xyz --opt --vfukui --chrg -1 --uhf 0 --alpb DMSO

   ID    Z sym.   atoms
    1    6 C      1-4, 6-9, 11, 13, 15-18, 21, 22, 24
    2    9 F      5
    3    7 N      10, 14, 19, 20
    4    8 O      12, 23, 25
    5    1 H      26-47

      * Solvation model:               ALPB
        Solvent                        DMSO
        Solvent mass                       7.8130E+01 g/mol
          :  Hamiltonian                  GFN1-xTB          :
 * total energy  :   -80.1832078 Eh     change       -0.2349907E-09 Eh
 * total energy  :   -80.1917568 Eh     change       -0.8548940E-02 Eh
 * total energy  :   -80.1941637 Eh     change       -0.2406915E-02 Eh
 * total energy  :   -80.1945596 Eh     change       -0.3958975E-03 Eh
 * total energy  :   -80.1949892 Eh     change       -0.4296622E-03 Eh
 * total energy  :   -80.1952483 Eh     change       -0.2591102E-03 Eh
 * total energy  :   -80.1955434 Eh     change       -0.2950750E-03 Eh
 * total energy  :   -80.1958409 Eh     change       -0.2974427E-03 Eh
 * total energy  :   -80.1960684 Eh     change       -0.2275807E-03 Eh
 * total energy  :   -80.1962160 Eh     change       -0.1476097E-03 Eh
 * total energy  :   -80.1974142 Eh     change       -0.5283922E-04 Eh
 * total energy  :   -80.1974552 Eh     change       -0.4099016E-04 Eh
 * total energy  :   -80.1974739 Eh     change       -0.1868021E-04 Eh
 * total energy  :   -80.1975109 Eh     change       -0.3700156E-04 Eh
 * total energy  :   -80.1975324 Eh     change       -0.2145871E-04 Eh
 * total energy  :   -80.1975519 Eh     change       -0.1949543E-04 Eh
 * total energy  :   -80.1975645 Eh     change       -0.1263881E-04 Eh
 * total energy  :   -80.1975707 Eh     change       -0.6159490E-05 Eh
 * total energy  :   -80.1975751 Eh     change       -0.4436645E-05 Eh
   *** GEOMETRY OPTIMIZATION CONVERGED AFTER 36 ITERATIONS ***

 final structure:
================
47
 xtb: 6.5.1 (579679a)
C            2.24811651308652       -0.26799337820443        2.51068698281088
C            3.57225973812585       -0.71735614532881        1.82952022232318
C            4.64009303262032        0.33569448420833        2.03849908850589
C            5.09573766391380        1.07272583995649        1.00116169760512
F            6.01134746332726        2.05377641150034        1.27224670764677
C            4.74699823612269        0.89209459954241       -0.34594669685263
C            3.88344640165519       -0.18165315857807       -0.62275849258765
C            3.36727576613007       -0.99560127441869        0.34908939543730
C            2.47620018859930       -2.15111869989815       -0.02378443835579
N            1.10754050482486       -1.67823267252256       -0.29850360680605
C            0.69183254743322       -1.35728341434393       -1.53566738835285
O            1.30079458819078       -1.69437853416643       -2.57118525204178
C           -0.57614507341716       -0.61485010494246       -1.59344882341940
N           -1.17416148104862       -0.27642893217840       -0.40910930005320
C           -2.30230151500025        0.36091166185487       -0.39233099889244
C           -2.90201306220972        0.61897046864406        0.98708995252353
C           -1.86025775445778        0.27995662311590        2.06547357741928
C           -4.13235909737311       -0.27826447076845        1.18340167655959
N           -3.30022442836136        2.02061807876825        1.12322657549525
N           -2.93891131043140        0.72122558198033       -1.55303006554137
C           -4.21884049798554        1.42728168505328       -1.60771922573023
C           -2.42797294220350        0.40022262456760       -2.82519535881192
O           -3.06062859741860        0.72167229935936       -3.83524701747006
C           -1.16863744565885       -0.29617552989038       -2.80076648516181
O           -0.60934822997750       -0.62871216760077       -3.98423972444889
H            1.52022150549556       -1.07905915283553        2.50251466949930
H            1.82628799012744        0.58988611839375        1.98673506098096
H            2.43682188473129        0.01369579134200        3.54709093427496
H            3.87320368093654       -1.65102367608099        2.34269631347681
H            4.96969544940304        0.52666040450412        3.05221383157816
H            5.17784881623248        1.50475879583351       -1.12489895720061
H            3.65045952061725       -0.39928973432381       -1.66380957336301
H            2.41409796886192       -2.88686346994770        0.78575406419622
H            2.82527396312021       -2.65960824607504       -0.93020935530326
H            0.60068421377091       -1.26784653555079        0.47404627782428
H           -0.95289469961691        0.86273048234037        1.91110988140328
H           -2.26723090207925        0.51443027640272        3.04745899163819
H           -1.60485449925174       -0.77831335029431        2.03112728475965
H           -4.92578644334011       -0.01956947650648        0.48526891066990
H           -4.51297382520138       -0.16032505989616        2.19684719456877
H           -3.85801125275627       -1.32204678556201        1.03267347790787
H           -2.47544726207035        2.60441804055095        1.17093824070543
H           -3.80270414013929        2.13320191466048        1.99152213916318
H           -4.42356257676736        1.91796059242591       -0.66159386861096
H           -4.16626257070976        2.17769627478304       -2.39883369431915
H           -5.01573276778527        0.72097335148874       -1.84733510711391
H            0.24102573794753       -1.10956943136841       -3.77181371854179

          :  Hamiltonian                  GFN1-xTB          :
         :: total energy             -80.197575088027 Eh    ::
         :: gradient norm              0.000716201134 Eh/a0 ::
         :: HOMO-LUMO gap              0.205442312227 eV    ::
         :: SCC energy               -81.050176514665 Eh    ::
         :: -> Gsolv                  -0.097978141465 Eh    ::
         :: repulsion energy           0.884030987010 Eh    ::

    * Orbital Energies and Occupations

         #    Occupation            Energy/Eh            Energy/eV
      -------------------------------------------------------------
         1        2.0000           -0.8066959             -21.9513
       ...           ...                  ...                  ...
        56        2.0000           -0.4531468             -12.3308
        57        2.0000           -0.4462675             -12.1436
        58        2.0000           -0.4446327             -12.0991
        59        2.0000           -0.4409042             -11.9976
        60        2.0000           -0.4307327             -11.7208
        61        2.0000           -0.4234548             -11.5228
        62        2.0000           -0.4183706             -11.3844
        63        2.0000           -0.4101899             -11.1618
        64        2.0000           -0.4062655             -11.0550
        65        2.0000           -0.4045243             -11.0077
        66        2.0000           -0.3941948             -10.7266
        67        2.0000           -0.3814846             -10.3807
        68        1.9631           -0.2984038              -8.1200 (HOMO)
        69        0.0369           -0.2908539              -7.9145 (LUMO)
        70                         -0.2541358              -6.9154
        71                         -0.2062574              -5.6125
        72                         -0.1976883              -5.3794
        73                         -0.1302791              -3.5451
        74                         -0.1268490              -3.4517
        75                         -0.1233022              -3.3552
        76                         -0.1160878              -3.1589
        77                         -0.1132611              -3.0820
        78                         -0.0990291              -2.6947
        79                         -0.0922746              -2.5109
       ...                                ...                  ...
       144                          0.7081147              19.2688
      -------------------------------------------------------------
                  HL-Gap            0.0075499 Eh            0.2054 eV

Wiberg/Mayer (AO) data.
largest (>0.10) Wiberg bond orders for each atom

     #   Z sym  total        # sym  WBO       # sym  WBO       # sym  WBO
 ---------------------------------------------------------------------------
     1   6 C    3.980 --    27 H    0.988    28 H    0.985    26 H    0.983
                             2 C    0.968
     2   6 C    3.992 --     3 C    1.006     8 C    1.001     1 C    0.968
                            29 H    0.963
     3   6 C    3.844 --     4 C    1.610     2 C    1.006    30 H    0.974
     4   6 C    3.835 --     3 C    1.610     6 C    1.273     5 F    0.870
     5   9 F    0.982 --     4 C    0.870
     6   6 C    3.816 --     7 C    1.328     4 C    1.273    31 H    0.977
     7   6 C    3.995 --     8 C    1.583     6 C    1.328    32 H    0.971
     8   6 C    3.863 --     7 C    1.583     9 C    1.003     2 C    1.001
     9   6 C    3.937 --     8 C    1.003    33 H    0.979    34 H    0.975
                            10 N    0.911
    10   7 N    3.353 --    11 C    1.276     9 C    0.911    35 H    0.904
                            12 O    0.150
    11   6 C    3.899 --    12 O    1.458    10 N    1.276    13 C    1.053
    12   8 O    1.863 --    11 C    1.458    10 N    0.150
    13   6 C    3.914 --    24 C    1.414    14 N    1.180    11 C    1.053
    14   7 N    3.041 --    15 C    1.562    13 C    1.180
    15   6 C    3.914 --    14 N    1.562    20 N    1.172    16 C    0.974
    16   6 C    3.966 --    17 C    0.992    18 C    0.986    19 N    0.978
                            15 C    0.974
    17   6 C    3.995 --    16 C    0.992    37 H    0.985    36 H    0.983
                            38 H    0.983
    18   6 C    3.994 --    16 C    0.986    41 H    0.986    40 H    0.983
                            39 H    0.982
    19   7 N    2.993 --    16 C    0.978    43 H    0.942    42 H    0.942
    20   7 N    3.443 --    15 C    1.172    22 C    1.072    21 C    0.939
                            23 O    0.119
    21   6 C    3.933 --    46 H    0.979    45 H    0.978    44 H    0.970
                            20 N    0.939
    22   6 C    3.872 --    23 O    1.523    24 C    1.135    20 N    1.072
    23   8 O    1.818 --    22 C    1.523    20 N    0.119
    24   6 C    3.851 --    13 C    1.414    22 C    1.135    25 O    1.084
    25   8 O    2.024 --    24 C    1.084    47 H    0.763
    26   1 H    1.009 --     1 C    0.983
    27   1 H    1.019 --     1 C    0.988
    28   1 H    1.011 --     1 C    0.985
    29   1 H    1.010 --     2 C    0.963
    30   1 H    1.003 --     3 C    0.974
    31   1 H    1.004 --     6 C    0.977
    32   1 H    1.010 --     7 C    0.971
    33   1 H    1.010 --     9 C    0.979
    34   1 H    1.018 --     9 C    0.975
    35   1 H    0.978 --    10 N    0.904
    36   1 H    1.013 --    17 C    0.983
    37   1 H    1.004 --    17 C    0.985
    38   1 H    1.014 --    17 C    0.983
    39   1 H    1.004 --    18 C    0.982
    40   1 H    1.001 --    18 C    0.983
    41   1 H    1.004 --    18 C    0.986
    42   1 H    0.958 --    19 N    0.942
    43   1 H    0.956 --    19 N    0.942
    44   1 H    1.031 --    21 C    0.970
    45   1 H    1.013 --    21 C    0.978
    46   1 H    1.006 --    21 C    0.979
    47   1 H    0.872 --    25 O    0.763
 ---------------------------------------------------------------------------

           -------------------------------------------------
          | TOTAL ENERGY              -80.197575088027 Eh   |
          | GRADIENT NORM               0.000716201134 Eh/α |
          | HOMO-LUMO GAP               0.205442312227 eV   |
           -------------------------------------------------

 * finished run on 2023/06/20 at 15:06:16.857
