                         Program Version 5.0.1 -  RELEASE  -
|  1> # ORCA input file
|  2> ! SP r2SCAN-3c CPCM
|  3>
|  4> %maxcore 1875.0
|  5> %pal nprocs 4 end
|  6> %cpcm smd true SMDsolvent "DMSO" end
|  7>
|  8> *xyz 1 1
|  9> C      -1.715255    2.191157    0.223036
| 10> O      -2.588854    1.111881    0.589989
| 11> C      -2.319909   -0.149051    0.575016
| 12> O      -3.281562   -0.937477    0.909212
| 13> C      -4.565814   -0.398585    1.272631
| 14> C      -1.052168   -0.751264    0.224389
| 15> N       0.003724    0.104989   -0.001935
| 16> C       1.162669   -0.378038   -0.312025
| 17> C       2.368268    0.515525   -0.494439
| 18> C       2.939576    0.805922    0.901735
| 19> C       1.974074    1.817931   -1.200767
| 20> N       3.356096   -0.233940   -1.260750
| 21> N       1.392753   -1.713700   -0.430705
| 22> C       0.438682   -2.668536   -0.241293
| 23> O       0.624975   -3.866004   -0.354460
| 24> C      -0.877251   -2.118447    0.128373
| 25> O      -1.828779   -3.008361    0.333470
| 26> H      -1.351935    2.047704   -0.793752
| 27> H      -0.873714    2.237888    0.913059
| 28> H      -2.324823    3.091235    0.293948
| 29> H      -4.973290    0.166179    0.433835
| 30> H      -5.191980   -1.256052    1.508201
| 31> H      -4.452870    0.254276    2.138518
| 32> H       3.792582    1.476880    0.814143
| 33> H       3.263404   -0.121942    1.371831
| 34> H       2.179727    1.275855    1.524523
| 35> H       1.258632    2.368934   -0.592599
| 36> H       2.859429    2.432547   -1.352639
| 37> H       1.522611    1.600003   -2.167223
| 38> H       3.126632   -0.188363   -2.244458
| 39> H       4.268775    0.182151   -1.136470
| 40> H       2.335628   -1.981446   -0.709396
| 41> H      -1.470032   -3.909854    0.195908
| 42> **                         ****END OF INPUT****

CARTESIAN COORDINATES (ANGSTROEM)
---------------------------------
  C     -1.715255    2.191157    0.223036
  O     -2.588854    1.111881    0.589989
  C     -2.319909   -0.149051    0.575016
  O     -3.281562   -0.937477    0.909212
  C     -4.565814   -0.398585    1.272631
  C     -1.052168   -0.751264    0.224389
  N      0.003724    0.104989   -0.001935
  C      1.162669   -0.378038   -0.312025
  C      2.368268    0.515525   -0.494439
  C      2.939576    0.805922    0.901735
  C      1.974074    1.817931   -1.200767
  N      3.356096   -0.233940   -1.260750
  N      1.392753   -1.713700   -0.430705
  C      0.438682   -2.668536   -0.241293
  O      0.624975   -3.866004   -0.354460
  C     -0.877251   -2.118447    0.128373
  O     -1.828779   -3.008361    0.333470
  H     -1.351935    2.047704   -0.793752
  H     -0.873714    2.237888    0.913059
  H     -2.324823    3.091235    0.293948
  H     -4.973290    0.166179    0.433835
  H     -5.191980   -1.256052    1.508201
  H     -4.452870    0.254276    2.138518
  H      3.792582    1.476880    0.814143
  H      3.263404   -0.121942    1.371831
  H      2.179727    1.275855    1.524523
  H      1.258632    2.368934   -0.592599
  H      2.859429    2.432547   -1.352639
  H      1.522611    1.600003   -2.167223
  H      3.126632   -0.188363   -2.244458
  H      4.268775    0.182151   -1.136470
  H      2.335628   -1.981446   -0.709396
  H     -1.470032   -3.909854    0.195908

 Total Charge           Charge          ....    1
 Multiplicity           Mult            ....    1
 Number of Electrons    NEL             ....  128
 Basis Dimension        Dim             ....  438

ORBITAL ENERGIES
----------------

  NO   OCC          E(Eh)            E(eV)
   0   2.0000     -19.065553      -518.8001
   1   2.0000     -19.062158      -518.7077
   2   2.0000     -19.030735      -517.8526
   3   2.0000     -18.956125      -515.8224
   4   2.0000     -14.236631      -387.3984
   5   2.0000     -14.180070      -385.8593
   6   2.0000     -14.147711      -384.9788
   7   2.0000     -10.238025      -278.5908
   8   2.0000     -10.168997      -276.7125
   9   2.0000     -10.154090      -276.3068
  10   2.0000     -10.134499      -275.7737
  11   2.0000     -10.124360      -275.4979
  12   2.0000     -10.103098      -274.9193
  13   2.0000     -10.100147      -274.8390
  14   2.0000     -10.089616      -274.5524
  15   2.0000     -10.025122      -272.7974
  16   2.0000     -10.019181      -272.6358
  17   2.0000      -1.159791       -31.5595
  18   2.0000      -1.090486       -29.6736
  19   2.0000      -1.079615       -29.3778
  20   2.0000      -1.040259       -28.3069
  21   2.0000      -0.985301       -26.8114
  22   2.0000      -0.901168       -24.5220
  23   2.0000      -0.874967       -23.8091
  24   2.0000      -0.804378       -21.8882
  25   2.0000      -0.760312       -20.6891
  26   2.0000      -0.730377       -19.8746
  27   2.0000      -0.722215       -19.6525
  28   2.0000      -0.684118       -18.6158
  29   2.0000      -0.663531       -18.0556
  30   2.0000      -0.658962       -17.9313
  31   2.0000      -0.593265       -16.1435
  32   2.0000      -0.579960       -15.7815
  33   2.0000      -0.561760       -15.2863
  34   2.0000      -0.558485       -15.1972
  35   2.0000      -0.542698       -14.7676
  36   2.0000      -0.527017       -14.3409
  37   2.0000      -0.516170       -14.0457
  38   2.0000      -0.503233       -13.6937
  39   2.0000      -0.470369       -12.7994
  40   2.0000      -0.461801       -12.5662
  41   2.0000      -0.448342       -12.2000
  42   2.0000      -0.446190       -12.1415
  43   2.0000      -0.436090       -11.8666
  44   2.0000      -0.429912       -11.6985
  45   2.0000      -0.426187       -11.5971
  46   2.0000      -0.418390       -11.3850
  47   2.0000      -0.400340       -10.8938
  48   2.0000      -0.388601       -10.5744
  49   2.0000      -0.381000       -10.3675
  50   2.0000      -0.375251       -10.2111
  51   2.0000      -0.366371        -9.9695
  52   2.0000      -0.360246        -9.8028
  53   2.0000      -0.351913        -9.5760
  54   2.0000      -0.347453        -9.4547
  55   2.0000      -0.346926        -9.4403
  56   2.0000      -0.337007        -9.1704
  57   2.0000      -0.323391        -8.7999
  58   2.0000      -0.318653        -8.6710
  59   2.0000      -0.302636        -8.2351
  60   2.0000      -0.274527        -7.4703
  61   2.0000      -0.266316        -7.2468
  62   2.0000      -0.233898        -6.3647
  63   2.0000      -0.227883        -6.2010
  64   0.0000      -0.137625        -3.7450
  65   0.0000      -0.054779        -1.4906
  66   0.0000      -0.028851        -0.7851
  67   0.0000       0.029652         0.8069
  68   0.0000       0.040579         1.1042

MULLIKEN ATOMIC CHARGES
-----------------------
   0 C :   -0.314201
   1 O :   -0.139966
   2 C :    0.265532
   3 O :   -0.138611
   4 C :   -0.295408
   5 C :    0.128419
   6 N :   -0.167781
   7 C :    0.253729
   8 C :    0.151957
   9 C :   -0.569858
  10 C :   -0.538842
  11 N :   -0.691367
  12 N :   -0.018506
  13 C :    0.096774
  14 O :   -0.432694
  15 C :    0.167418
  16 O :   -0.342193
  17 H :    0.201278
  18 H :    0.202190
  19 H :    0.188779
  20 H :    0.199022
  21 H :    0.200156
  22 H :    0.199378
  23 H :    0.184822
  24 H :    0.182136
  25 H :    0.188950
  26 H :    0.175218
  27 H :    0.181636
  28 H :    0.176741
  29 H :    0.294040
  30 H :    0.302395
  31 H :    0.333833
  32 H :    0.375022
Sum of atomic charges:    1.0000000

LOEWDIN ATOMIC CHARGES
----------------------
   0 C :    0.007997
   1 O :   -0.500216
   2 C :    0.512270
   3 O :   -0.495892
   4 C :    0.003084
   5 C :    0.202125
   6 N :   -0.568962
   7 C :    0.365517
   8 C :    0.060140
   9 C :   -0.347154
  10 C :   -0.363908
  11 N :   -0.676023
  12 N :   -0.436858
  13 C :    0.376444
  14 O :   -0.443654
  15 C :    0.322152
  16 O :   -0.397817
  17 H :    0.199852
  18 H :    0.200283
  19 H :    0.192698
  20 H :    0.198054
  21 H :    0.200336
  22 H :    0.198254
  23 H :    0.171788
  24 H :    0.172997
  25 H :    0.173343
  26 H :    0.171542
  27 H :    0.168782
  28 H :    0.170360
  29 H :    0.257396
  30 H :    0.261473
  31 H :    0.320391
  32 H :    0.323206

  Mayer bond orders larger than 0.100000
B(  0-C ,  1-O ) :   0.8287 B(  0-C , 17-H ) :   0.9350 B(  0-C , 18-H ) :   0.9338
B(  0-C , 19-H ) :   0.9489 B(  1-O ,  2-C ) :   1.3391 B(  2-C ,  3-O ) :   1.3683
B(  2-C ,  5-C ) :   1.0569 B(  3-O ,  4-C ) :   0.7984 B(  4-C , 20-H ) :   0.9396
B(  4-C , 21-H ) :   0.9522 B(  4-C , 22-H ) :   0.9386 B(  5-C ,  6-N ) :   1.0219
B(  5-C , 15-C ) :   1.4049 B(  6-N ,  7-C ) :   1.5302 B(  7-C ,  8-C ) :   0.8657
B(  7-C , 12-N ) :   1.1355 B(  8-C ,  9-C ) :   0.9203 B(  8-C , 10-C ) :   0.9664
B(  8-C , 11-N ) :   0.9054 B(  9-C , 23-H ) :   0.9571 B(  9-C , 24-H ) :   0.9592
B(  9-C , 25-H ) :   0.9700 B( 10-C , 26-H ) :   0.9635 B( 10-C , 27-H ) :   0.9691
B( 10-C , 28-H ) :   0.9647 B( 11-N , 29-H ) :   0.9083 B( 11-N , 30-H ) :   0.9059
B( 12-N , 13-C ) :   1.1115 B( 12-N , 31-H ) :   0.8414 B( 13-C , 14-O ) :   1.9831
B( 13-C , 15-C ) :   0.9028 B( 15-C , 16-O ) :   1.1216 B( 16-O , 32-H ) :   0.8105

Dispersion correction           -0.013218778
FINAL SINGLE POINT ENERGY      -855.546684814638

DIPOLE MOMENT
-------------
                                X             Y             Z
Electronic contribution:     -8.94046     -15.00855       0.71904
Nuclear contribution   :      7.53058      17.49170      -0.61564
                        -----------------------------------------
Total Dipole Moment    :     -1.40988       2.48315       0.10341
                        -----------------------------------------
Magnitude (a.u.)       :      2.85736
Magnitude (Debye)      :      7.26283

Rotational constants in cm-1:     0.022372     0.011934     0.008242
Rotational constants in MHz :   670.701199   357.779023   247.083583

                             ****ORCA TERMINATED NORMALLY****
TOTAL RUN TIME: 0 days 0 hours 1 minutes 20 seconds 639 msec
