   * xtb version 6.5.1 (579679a) compiled by 'ehlert@majestix' on 2022-07-11
          program call               : /lustre/hpc/kemi/ree/PhD/git/ReactivityQM/dep/xtb-6.5.1/bin/xtb --gfn 1 /lustre/hpc/kemi/ree/PhD/git/ReactivityQM/calculations/R01/reac02prodN01/conf15/R01_reac02prodN01_conf15_gfn1.xyz --opt --vfukui --chrg 1 --uhf 0 --alpb DMSO

   ID    Z sym.   atoms
    1    6 C      1, 3, 5, 6, 8-11, 14, 16
    2    8 O      2, 4, 15, 17
    3    7 N      7, 12, 13
    4    1 H      18-33

      * Solvation model:               ALPB
        Solvent                        DMSO
        Solvent mass                       7.8130E+01 g/mol
          :  Hamiltonian                  GFN1-xTB          :
 * total energy  :   -57.8220275 Eh     change       -0.9521273E-11 Eh
 * total energy  :   -57.8450042 Eh     change       -0.2297667E-01 Eh
 * total energy  :   -57.8513006 Eh     change       -0.6296411E-02 Eh
 * total energy  :   -57.8525942 Eh     change       -0.1293608E-02 Eh
 * total energy  :   -57.8531167 Eh     change       -0.5224987E-03 Eh
 * total energy  :   -57.8532715 Eh     change       -0.1547693E-03 Eh
 * total energy  :   -57.8534265 Eh     change       -0.1550274E-03 Eh
 * total energy  :   -57.8535337 Eh     change       -0.1072231E-03 Eh
 * total energy  :   -57.8535996 Eh     change       -0.6584369E-04 Eh
 * total energy  :   -57.8536404 Eh     change       -0.4087343E-04 Eh
 * total energy  :   -57.8537203 Eh     change       -0.1590654E-04 Eh
 * total energy  :   -57.8537347 Eh     change       -0.1432052E-04 Eh
 * total energy  :   -57.8537444 Eh     change       -0.9708121E-05 Eh
 * total energy  :   -57.8537571 Eh     change       -0.1273171E-04 Eh
 * total energy  :   -57.8537654 Eh     change       -0.8268053E-05 Eh
 * total energy  :   -57.8537741 Eh     change       -0.8754452E-05 Eh
 * total energy  :   -57.8537850 Eh     change       -0.1086113E-04 Eh
 * total energy  :   -57.8537978 Eh     change       -0.1282959E-04 Eh
 * total energy  :   -57.8538028 Eh     change       -0.4942117E-05 Eh
   *** GEOMETRY OPTIMIZATION CONVERGED AFTER 22 ITERATIONS ***

 final structure:
================
33
 xtb: 6.5.1 (579679a)
C           -1.71525493984929        2.19115718306483        0.22303644440204
O           -2.58885439873311        1.11188104976325        0.58998852979494
C           -2.31990901092261       -0.14905107834460        0.57501577428977
O           -3.28156167635923       -0.93747672497746        0.90921229954814
C           -4.56581430833721       -0.39858523233203        1.27263060430744
C           -1.05216789347069       -0.75126431585037        0.22438894644262
N            0.00372427099929        0.10498918148825       -0.00193536938370
C            1.16266876934391       -0.37803799464710       -0.31202517474184
C            2.36826772092184        0.51552496802164       -0.49443925048920
C            2.93957647999279        0.80592219669196        0.90173461958471
C            1.97407367476268        1.81793147949458       -1.20076663015667
N            3.35609609007269       -0.23393973944404       -1.26074952577526
N            1.39275290969254       -1.71370012699190       -0.43070527658499
C            0.43868158528196       -2.66853647475340       -0.24129294357676
O            0.62497506504848       -3.86600440035280       -0.35446027610371
C           -0.87725099372943       -2.11844716458904        0.12837315459172
O           -1.82877934389070       -3.00836054490942        0.33346983687662
H           -1.35193457051359        2.04770446196015       -0.79375160512401
H           -0.87371395450075        2.23788773411508        0.91305873553096
H           -2.32482304995106        3.09123490696706        0.29394778925398
H           -4.97329012994803        0.16617877101147        0.43383515847185
H           -5.19197980157286       -1.25605236064324        1.50820082159200
H           -4.45287031395285        0.25427611265242        2.13851760028358
H            3.79258238611673        1.47687997570028        0.81414269003605
H            3.26340361352087       -0.12194186699535        1.37183147283434
H            2.17972686998253        1.27585519477828        1.52452268482954
H            1.25863166530308        2.36893448989568       -0.59259852068034
H            2.85942935985215        2.43254744120432       -1.35263915350255
H            1.52261115166001        1.60000341232029       -2.16722320130333
H            3.12663170458795       -0.18836256002599       -2.24445761091762
H            4.26877505547092        0.18215055459630       -1.13647029071168
H            2.33562847603754       -1.98144555157914       -0.70939613584072
H           -1.47003246291628       -3.90985397728890        0.19590780222092

          :  Hamiltonian                  GFN1-xTB          :
         :: total energy             -57.853802764587 Eh    ::
         :: gradient norm              0.000413329537 Eh/a0 ::
         :: HOMO-LUMO gap              1.386244715040 eV    ::
         :: SCC energy               -58.428481469517 Eh    ::
         :: -> Gsolv                  -0.091257402308 Eh    ::
         :: repulsion energy           0.593575365165 Eh    ::

    * Orbital Energies and Occupations

         #    Occupation            Energy/Eh            Energy/eV
      -------------------------------------------------------------
         1        2.0000           -0.9109907             -24.7893
       ...           ...                  ...                  ...
        35        2.0000           -0.5509942             -14.9933
        36        2.0000           -0.5445828             -14.8189
        37        2.0000           -0.5370794             -14.6147
        38        2.0000           -0.5286424             -14.3851
        39        2.0000           -0.5239950             -14.2586
        40        2.0000           -0.5183277             -14.1044
        41        2.0000           -0.5136540             -13.9772
        42        2.0000           -0.5112942             -13.9130
        43        2.0000           -0.4988017             -13.5731
        44        2.0000           -0.4871951             -13.2573
        45        2.0000           -0.4775370             -12.9944
        46        2.0000           -0.4594600             -12.5025
        47        2.0000           -0.4299111             -11.6985 (HOMO)
        48                         -0.3789675             -10.3122 (LUMO)
        49                         -0.3093490              -8.4178
        50                         -0.2877319              -7.8296
        51                         -0.1945965              -5.2952
        52                         -0.1703369              -4.6351
        53                         -0.1614413              -4.3930
        54                         -0.1339490              -3.6449
        55                         -0.1289563              -3.5091
        56                         -0.1206564              -3.2832
        57                         -0.1124576              -3.0601
        58                         -0.1046213              -2.8469
       ...                                ...                  ...
       100                          0.6935085              18.8713
      -------------------------------------------------------------
                  HL-Gap            0.0509436 Eh            1.3862 eV

Wiberg/Mayer (AO) data.
largest (>0.10) Wiberg bond orders for each atom

     #   Z sym  total        # sym  WBO       # sym  WBO       # sym  WBO
 ---------------------------------------------------------------------------
     1   6 C    3.815 --    20 H    0.979    18 H    0.972    19 H    0.971
                             2 O    0.850
     2   8 O    2.306 --     3 C    1.249     1 C    0.850
     3   6 C    3.815 --     4 O    1.259     2 O    1.249     6 C    1.119
     4   8 O    2.308 --     3 C    1.259     5 C    0.855
     5   6 C    3.825 --    22 H    0.982    23 H    0.973    21 H    0.973
                             4 O    0.855
     6   6 C    3.957 --    16 C    1.425     7 N    1.156     3 C    1.119
     7   7 N    3.030 --     8 C    1.568     6 C    1.156
     8   6 C    3.910 --     7 N    1.568    13 N    1.180     9 C    0.980
     9   6 C    3.964 --    12 N    0.991    11 C    0.984     8 C    0.980
                            10 C    0.973
    10   6 C    3.990 --    26 H    0.985    25 H    0.985    24 H    0.981
                             9 C    0.973
    11   6 C    3.992 --     9 C    0.984    29 H    0.984    28 H    0.983
                            27 H    0.982
    12   7 N    2.986 --     9 C    0.991    30 H    0.936    31 H    0.932
    13   7 N    3.491 --     8 C    1.180    14 C    1.164    32 H    0.851
                            15 O    0.142
    14   6 C    3.916 --    15 O    1.599    13 N    1.164    16 C    1.030
    15   8 O    1.926 --    14 C    1.599    13 N    0.142
    16   6 C    3.911 --     6 C    1.425    17 O    1.169    14 C    1.030
    17   8 O    2.142 --    16 C    1.169    33 H    0.784
    18   1 H    1.012 --     1 C    0.972
    19   1 H    1.015 --     1 C    0.971
    20   1 H    1.002 --     1 C    0.979
    21   1 H    0.998 --     5 C    0.973
    22   1 H    1.002 --     5 C    0.982
    23   1 H    0.999 --     5 C    0.973
    24   1 H    0.997 --    10 C    0.981
    25   1 H    1.001 --    10 C    0.985
    26   1 H    1.002 --    10 C    0.985
    27   1 H    1.005 --    11 C    0.982
    28   1 H    1.000 --    11 C    0.983
    29   1 H    1.001 --    11 C    0.984
    30   1 H    0.949 --    12 N    0.936
    31   1 H    0.946 --    12 N    0.932
    32   1 H    0.937 --    13 N    0.851
    33   1 H    0.826 --    17 O    0.784
 ---------------------------------------------------------------------------

           -------------------------------------------------
          | TOTAL ENERGY              -57.853802764587 Eh   |
          | GRADIENT NORM               0.000413329537 Eh/α |
          | HOMO-LUMO GAP               1.386244715040 eV   |
           -------------------------------------------------

 * finished run on 2023/06/20 at 15:03:33.535
