                         Program Version 5.0.1 -  RELEASE  -
|  1> # ORCA input file
|  2> ! SP r2SCAN-3c CPCM
|  3>
|  4> %maxcore 1875.0
|  5> %pal nprocs 4 end
|  6> %cpcm smd true SMDsolvent "DMSO" end
|  7>
|  8> *xyz -1 1
|  9> C       3.813524   -0.389538   -0.662488
| 10> O       2.413178   -0.192310   -0.587210
| 11> C       1.831827   -0.562584    0.617265
| 12> O       2.528408   -1.029331    1.533196
| 13> C       0.444126   -0.351747    0.662562
| 14> N      -0.346818   -0.614738    1.701235
| 15> N      -1.575617   -0.310317    1.441920
| 16> C      -1.628211    0.219601    0.068656
| 17> C      -2.533958   -0.673886   -0.793966
| 18> C      -2.144961    1.667024    0.091858
| 19> O      -0.293185    0.180397   -0.412522
| 20> H       4.335879    0.191511    0.106631
| 21> H       4.070051   -1.447692   -0.535076
| 22> H       4.132647   -0.054775   -1.649803
| 23> H      -2.139782   -1.688940   -0.798411
| 24> H      -3.540147   -0.684650   -0.380124
| 25> H      -2.568194   -0.301540   -1.816161
| 26> H      -3.145880    1.693069    0.517723
| 27> H      -2.171518    2.073659   -0.917556
| 28> H      -1.481369    2.276786    0.703182
| 29> **                         ****END OF INPUT****

CARTESIAN COORDINATES (ANGSTROEM)
---------------------------------
  C      3.813524   -0.389538   -0.662488
  O      2.413178   -0.192310   -0.587210
  C      1.831827   -0.562584    0.617265
  O      2.528408   -1.029331    1.533196
  C      0.444126   -0.351747    0.662562
  N     -0.346818   -0.614738    1.701235
  N     -1.575617   -0.310317    1.441920
  C     -1.628211    0.219601    0.068656
  C     -2.533958   -0.673886   -0.793966
  C     -2.144961    1.667024    0.091858
  O     -0.293185    0.180397   -0.412522
  H      4.335879    0.191511    0.106631
  H      4.070051   -1.447692   -0.535076
  H      4.132647   -0.054775   -1.649803
  H     -2.139782   -1.688940   -0.798411
  H     -3.540147   -0.684650   -0.380124
  H     -2.568194   -0.301540   -1.816161
  H     -3.145880    1.693069    0.517723
  H     -2.171518    2.073659   -0.917556
  H     -1.481369    2.276786    0.703182

 Total Charge           Charge          ....   -1
 Multiplicity           Mult            ....    1
 Number of Electrons    NEL             ....   84
 Basis Dimension        Dim             ....  279

ORBITAL ENERGIES
----------------

  NO   OCC          E(Eh)            E(eV)
   0   2.0000     -18.963919      -516.0345
   1   2.0000     -18.949115      -515.6316
   2   2.0000     -18.891750      -514.0706
   3   2.0000     -14.167067      -385.5055
   4   2.0000     -14.131490      -384.5374
   5   2.0000     -10.117639      -275.3150
   6   2.0000     -10.088890      -274.5327
   7   2.0000     -10.061310      -273.7822
   8   2.0000     -10.059708      -273.7386
   9   2.0000     -10.003301      -272.2037
  10   2.0000     -10.003261      -272.2026
  11   2.0000      -1.036633       -28.2082
  12   2.0000      -1.019895       -27.7527
  13   2.0000      -0.933483       -25.4014
  14   2.0000      -0.911487       -24.8028
  15   2.0000      -0.764907       -20.8142
  16   2.0000      -0.687436       -18.7061
  17   2.0000      -0.652887       -17.7660
  18   2.0000      -0.644602       -17.5405
  19   2.0000      -0.575711       -15.6659
  20   2.0000      -0.536337       -14.5945
  21   2.0000      -0.505165       -13.7462
  22   2.0000      -0.466972       -12.7070
  23   2.0000      -0.425932       -11.5902
  24   2.0000      -0.409673       -11.1478
  25   2.0000      -0.409126       -11.1329
  26   2.0000      -0.402264       -10.9462
  27   2.0000      -0.372943       -10.1483
  28   2.0000      -0.368127       -10.0173
  29   2.0000      -0.348921        -9.4946
  30   2.0000      -0.346774        -9.4362
  31   2.0000      -0.336111        -9.1460
  32   2.0000      -0.330171        -8.9844
  33   2.0000      -0.318449        -8.6654
  34   2.0000      -0.296730        -8.0744
  35   2.0000      -0.296693        -8.0734
  36   2.0000      -0.269056        -7.3214
  37   2.0000      -0.263097        -7.1592
  38   2.0000      -0.240689        -6.5495
  39   2.0000      -0.215207        -5.8561
  40   2.0000      -0.197649        -5.3783
  41   2.0000      -0.125212        -3.4072
  42   0.0000      -0.032066        -0.8726
  43   0.0000       0.076957         2.0941
  44   0.0000       0.104637         2.8473
  45   0.0000       0.105609         2.8738
  46   0.0000       0.110180         2.9982

MULLIKEN ATOMIC CHARGES
-----------------------
   0 C :   -0.326698
   1 O :   -0.206723
   2 C :   -0.068637
   3 O :   -0.461252
   4 C :    0.140142
   5 N :   -0.143767
   6 N :   -0.338972
   7 C :    0.202218
   8 C :   -0.562860
   9 C :   -0.562212
  10 O :   -0.148544
  11 H :    0.159679
  12 H :    0.159599
  13 H :    0.160482
  14 H :    0.163653
  15 H :    0.169875
  16 H :    0.165406
  17 H :    0.169534
  18 H :    0.165499
  19 H :    0.163578
Sum of atomic charges:   -1.0000000

LOEWDIN ATOMIC CHARGES
----------------------
   0 C :   -0.060292
   1 O :   -0.629906
   2 C :    0.363571
   3 O :   -0.530111
   4 C :    0.309254
   5 N :   -0.427577
   6 N :   -0.474717
   7 C :    0.237052
   8 C :   -0.371968
   9 C :   -0.371868
  10 O :   -0.549883
  11 H :    0.170646
  12 H :    0.170477
  13 H :    0.176076
  14 H :    0.165362
  15 H :    0.166936
  16 H :    0.162293
  17 H :    0.166805
  18 H :    0.162448
  19 H :    0.165405

  Mayer bond orders larger than 0.100000
B(  0-C ,  1-O ) :   0.8616 B(  0-C , 11-H ) :   0.9658 B(  0-C , 12-H ) :   0.9655
B(  0-C , 13-H ) :   0.9678 B(  1-O ,  2-C ) :   0.9773 B(  2-C ,  3-O ) :   1.8052
B(  2-C ,  4-C ) :   1.1835 B(  2-C ,  6-N ) :   0.1389 B(  4-C ,  5-N ) :   1.4524
B(  4-C ,  6-N ) :   0.1254 B(  4-C , 10-O ) :   0.9658 B(  5-N ,  6-N ) :   1.7044
B(  6-N ,  7-C ) :   0.8657 B(  7-C ,  8-C ) :   0.9434 B(  7-C ,  9-C ) :   0.9424
B(  7-C , 10-O ) :   0.7960 B(  8-C , 14-H ) :   0.9691 B(  8-C , 15-H ) :   0.9665
B(  8-C , 16-H ) :   0.9756 B(  9-C , 17-H ) :   0.9667 B(  9-C , 18-H ) :   0.9755
B(  9-C , 19-H ) :   0.9694

Dispersion correction           -0.006303794
FINAL SINGLE POINT ENERGY      -569.220257321816

DIPOLE MOMENT
-------------
                                X             Y             Z
Electronic contribution:      4.71832      -2.44435       4.32246
Nuclear contribution   :     -4.58274       3.45848      -7.02166
                        -----------------------------------------
Total Dipole Moment    :      0.13558       1.01413      -2.69920
                        -----------------------------------------
Magnitude (a.u.)       :      2.88661
Magnitude (Debye)      :      7.33718

Rotational constants in cm-1:     0.084306     0.021891     0.019650
Rotational constants in MHz :  2527.430169   656.272611   589.096957

                             ****ORCA TERMINATED NORMALLY****
TOTAL RUN TIME: 0 days 0 hours 0 minutes 35 seconds 228 msec
