   * xtb version 6.5.1 (579679a) compiled by 'ehlert@majestix' on 2022-07-11
          program call               : /lustre/hpc/kemi/ree/PhD/git/ReactivityQM/dep/xtb-6.5.1/bin/xtb --gfn 1 /lustre/hpc/kemi/ree/PhD/git/ReactivityQM/calculations/R01/reac01prodE06/conf01/R01_reac01prodE06_conf01_gfn1.xyz --opt --vfukui --chrg -1 --uhf 0 --alpb DMSO

   ID    Z sym.   atoms
    1    6 C      1, 3, 5, 8-10
    2    8 O      2, 4, 11
    3    7 N      6, 7
    4    1 H      12-20

      * Solvation model:               ALPB
        Solvent                        DMSO
        Solvent mass                       7.8130E+01 g/mol
          :  Hamiltonian                  GFN1-xTB          :
 * total energy  :   -38.3475936 Eh     change       -0.3062439E-11 Eh
 * total energy  :   -38.3539073 Eh     change       -0.6313651E-02 Eh
 * total energy  :   -38.3554036 Eh     change       -0.1496287E-02 Eh
 * total energy  :   -38.3556312 Eh     change       -0.2276254E-03 Eh
 * total energy  :   -38.3558710 Eh     change       -0.2397542E-03 Eh
 * total energy  :   -38.3559119 Eh     change       -0.4097253E-04 Eh
 * total energy  :   -38.3559360 Eh     change       -0.2407978E-04 Eh
 * total energy  :   -38.3559473 Eh     change       -0.1127680E-04 Eh
 * total energy  :   -38.3559526 Eh     change       -0.5337256E-05 Eh
 * total energy  :   -38.3559540 Eh     change       -0.1356072E-05 Eh
   *** GEOMETRY OPTIMIZATION CONVERGED AFTER 10 ITERATIONS ***

 final structure:
================
20
 xtb: 6.5.1 (579679a)
C            3.81352398003456       -0.38953814055171       -0.66248783360840
O            2.41317793066695       -0.19230977400471       -0.58721011298564
C            1.83182696645278       -0.56258416179850        0.61726494697219
O            2.52840827780720       -1.02933100499165        1.53319561227457
C            0.44412580496670       -0.35174723222742        0.66256168522643
N           -0.34681800355332       -0.61473771129397        1.70123465830434
N           -1.57561707782052       -0.31031667801076        1.44192045045419
C           -1.62821096686849        0.21960133419470        0.06865647075596
C           -2.53395835679879       -0.67388583367035       -0.79396569638360
C           -2.14496059460461        1.66702449227570        0.09185809032275
O           -0.29318499417755        0.18039742525176       -0.41252164626275
H            4.33587854841198        0.19151062475231        0.10663104302697
H            4.07005137938022       -1.44769235108223       -0.53507571173469
H            4.13264669142964       -0.05477463232125       -1.64980339388113
H           -2.13978221639632       -1.68893974613716       -0.79841113841183
H           -3.54014667318314       -0.68464992407129       -0.38012427257239
H           -2.56819354745070       -0.30154011920867       -1.81616080114692
H           -3.14587959361904        1.69306918417946        0.51772315715957
H           -2.17151845912323        2.07365864837469       -0.91755627626164
H           -1.48136909555438        2.27678560034100        0.70318176875183

          :  Hamiltonian                  GFN1-xTB          :
         :: total energy             -38.355953988061 Eh    ::
         :: gradient norm              0.000309342346 Eh/a0 ::
         :: HOMO-LUMO gap              2.130913710182 eV    ::
         :: SCC energy               -38.663751136888 Eh    ::
         :: -> Gsolv                  -0.097421953249 Eh    ::
         :: repulsion energy           0.316258483921 Eh    ::

    * Orbital Energies and Occupations

         #    Occupation            Energy/Eh            Energy/eV
      -------------------------------------------------------------
         1        2.0000           -0.7790245             -21.1983
       ...           ...                  ...                  ...
        19        2.0000           -0.5077378             -13.8162
        20        2.0000           -0.4953966             -13.4804
        21        2.0000           -0.4864733             -13.2376
        22        2.0000           -0.4842067             -13.1759
        23        2.0000           -0.4746469             -12.9158
        24        2.0000           -0.4715386             -12.8312
        25        2.0000           -0.4500320             -12.2460
        26        2.0000           -0.4491534             -12.2221
        27        2.0000           -0.4389615             -11.9448
        28        2.0000           -0.4219413             -11.4816
        29        2.0000           -0.4141134             -11.2686
        30        2.0000           -0.3745250             -10.1913
        31        2.0000           -0.3214364              -8.7467 (HOMO)
        32                         -0.2431267              -6.6158 (LUMO)
        33                         -0.1279421              -3.4815
        34                         -0.1146624              -3.1201
        35                         -0.1057369              -2.8772
        36                         -0.0998264              -2.7164
        37                         -0.0589781              -1.6049
        38                         -0.0527093              -1.4343
        39                         -0.0514948              -1.4012
        40                         -0.0474571              -1.2914
        41                         -0.0294231              -0.8006
        42                         -0.0274094              -0.7458
       ...                                ...                  ...
        62                          0.7095635              19.3082
      -------------------------------------------------------------
                  HL-Gap            0.0783096 Eh            2.1309 eV

Wiberg/Mayer (AO) data.
largest (>0.10) Wiberg bond orders for each atom

     #   Z sym  total        # sym  WBO       # sym  WBO       # sym  WBO
 ---------------------------------------------------------------------------
     1   6 C    3.908 --    14 H    0.987    13 H    0.981    12 H    0.981
                             2 O    0.939
     2   8 O    2.103 --     3 C    0.975     1 C    0.939
     3   6 C    3.883 --     4 O    1.474     5 C    1.251     2 O    0.975
                             7 N    0.105
     4   8 O    1.789 --     3 C    1.474
     5   6 C    3.847 --     6 N    1.367     3 C    1.251    11 O    0.931
                             7 N    0.150
     6   7 N    3.024 --     7 N    1.503     5 C    1.367
     7   7 N    2.899 --     6 N    1.503     8 C    0.978     5 C    0.150
                             3 C    0.105
     8   6 C    3.901 --    10 C    0.978     7 N    0.978     9 C    0.978
                            11 O    0.928
     9   6 C    3.993 --    16 H    0.988    17 H    0.986    15 H    0.985
                             8 C    0.978
    10   6 C    3.993 --    18 H    0.988    19 H    0.986    20 H    0.985
                             8 C    0.978
    11   8 O    2.049 --     5 C    0.931     8 C    0.928
    12   1 H    1.016 --     1 C    0.981
    13   1 H    1.016 --     1 C    0.981
    14   1 H    1.018 --     1 C    0.987
    15   1 H    1.014 --     9 C    0.985
    16   1 H    1.010 --     9 C    0.988
    17   1 H    1.008 --     9 C    0.986
    18   1 H    1.010 --    10 C    0.988
    19   1 H    1.008 --    10 C    0.986
    20   1 H    1.014 --    10 C    0.985
 ---------------------------------------------------------------------------

           -------------------------------------------------
          | TOTAL ENERGY              -38.355953988061 Eh   |
          | GRADIENT NORM               0.000309342346 Eh/α |
          | HOMO-LUMO GAP               2.130913710182 eV   |
           -------------------------------------------------

 * finished run on 2023/06/20 at 14:54:20.828
