   * xtb version 6.5.1 (579679a) compiled by 'ehlert@majestix' on 2022-07-11
          program call               : /lustre/hpc/kemi/ree/PhD/git/ReactivityQM/dep/xtb-6.5.1/bin/xtb --gfn 1 /lustre/hpc/kemi/ree/PhD/git/ReactivityQM/calculations/RaltegravirCLI/reac01/conf04/RaltegravirCLI_reac01_conf04_gfn1.xyz --opt --vfukui --chrg 0 --uhf 0 --alpb DMSO

   ID    Z sym.   atoms
    1    6 C      1, 2, 5, 6
    2    7 N      3, 4
    3    8 O      7, 9
    4   17 Cl     8
    5    1 H      10-12

      * Solvation model:               ALPB
        Solvent                        DMSO
        Solvent mass                       7.8130E+01 g/mol
          :  Hamiltonian                  GFN1-xTB          :
 * total energy  :   -30.0917908 Eh     change       -0.1278977E-11 Eh
 * total energy  :   -30.0947100 Eh     change       -0.2919214E-02 Eh
 * total energy  :   -30.0959961 Eh     change       -0.1286055E-02 Eh
 * total energy  :   -30.0961882 Eh     change       -0.1921499E-03 Eh
 * total energy  :   -30.0962583 Eh     change       -0.7012898E-04 Eh
 * total energy  :   -30.0962728 Eh     change       -0.1446139E-04 Eh
 * total energy  :   -30.0962852 Eh     change       -0.1236576E-04 Eh
 * total energy  :   -30.0962917 Eh     change       -0.6512341E-05 Eh
 * total energy  :   -30.0962992 Eh     change       -0.7466408E-05 Eh
 * total energy  :   -30.0963130 Eh     change       -0.1383781E-04 Eh
 * total energy  :   -30.0964042 Eh     change       -0.3372053E-04 Eh
 * total energy  :   -30.0961153 Eh     change        0.2889851E-03 Eh
 * total energy  :   -30.0964289 Eh     change       -0.3136275E-03 Eh
 * total energy  :   -30.0964367 Eh     change       -0.7865154E-05 Eh
 * total energy  :   -30.0964281 Eh     change        0.8675132E-05 Eh
 * total energy  :   -30.0964617 Eh     change       -0.3358897E-04 Eh
 * total energy  :   -30.0964693 Eh     change       -0.7626241E-05 Eh
 * total energy  :   -30.0964882 Eh     change       -0.1889230E-04 Eh
 * total energy  :   -30.0964918 Eh     change       -0.3580805E-05 Eh
   *** GEOMETRY OPTIMIZATION CONVERGED AFTER 22 ITERATIONS ***

 final structure:
================
12
 xtb: 6.5.1 (579679a)
C           -2.23812031735678        0.21076105307073       -0.04871047383454
C           -0.84810580867317       -0.22685956365374        0.19345882357445
N           -0.44628388826681       -1.26957068652514        0.86367021662907
N            0.90359519870334       -1.27588888573365        0.80702011331644
C            1.25739719661101       -0.23557214969603        0.10490684535689
C            2.62502560259103        0.17382584094625       -0.22263734748636
O            3.60055361970946       -0.43024057592105        0.11766699925984
Cl           2.71724497401117        1.62540005659753       -1.15235413388754
O            0.18038537561384        0.46424822240426       -0.30828281557516
H           -2.51743845887127       -0.00563511888186       -1.08079009743376
H           -2.32138447450942        1.28569014500900        0.10417476416721
H           -2.91287001956239       -0.31615733761631        0.62187710591342

          :  Hamiltonian                  GFN1-xTB          :
         :: total energy             -30.096491758025 Eh    ::
         :: gradient norm              0.000471223169 Eh/a0 ::
         :: HOMO-LUMO gap              3.242888417394 eV    ::
         :: SCC energy               -30.331470119639 Eh    ::
         :: -> Gsolv                  -0.018850319419 Eh    ::
         :: repulsion energy           0.240083516396 Eh    ::

    * Orbital Energies and Occupations

         #    Occupation            Energy/Eh            Energy/eV
      -------------------------------------------------------------
         1        2.0000           -0.9450695             -25.7167
       ...           ...                  ...                  ...
        12        2.0000           -0.6195649             -16.8592
        13        2.0000           -0.5993272             -16.3085
        14        2.0000           -0.5906003             -16.0711
        15        2.0000           -0.5530101             -15.0482
        16        2.0000           -0.5521621             -15.0251
        17        2.0000           -0.5405964             -14.7104
        18        2.0000           -0.5193295             -14.1317
        19        2.0000           -0.4975786             -13.5398
        20        2.0000           -0.4943301             -13.4514
        21        2.0000           -0.4885041             -13.2929
        22        2.0000           -0.4832887             -13.1510
        23        2.0000           -0.4677924             -12.7293
        24        2.0000           -0.4637278             -12.6187 (HOMO)
        25                         -0.3445538              -9.3758 (LUMO)
        26                         -0.2689742              -7.3192
        27                         -0.2308597              -6.2820
        28                         -0.2087985              -5.6817
        29                         -0.1468350              -3.9956
        30                         -0.0789917              -2.1495
        31                         -0.0779531              -2.1212
        32                         -0.0716581              -1.9499
        33                         -0.0715350              -1.9466
        34                         -0.0682725              -1.8578
        35                         -0.0366922              -0.9984
       ...                                ...                  ...
        47                          0.7405540              20.1515
      -------------------------------------------------------------
                  HL-Gap            0.1191740 Eh            3.2429 eV

Wiberg/Mayer (AO) data.
largest (>0.10) Wiberg bond orders for each atom

     #   Z sym  total        # sym  WBO       # sym  WBO       # sym  WBO
 ---------------------------------------------------------------------------
     1   6 C    3.983 --     2 C    1.035    12 H    0.980    11 H    0.967
                            10 H    0.954
     2   6 C    3.865 --     3 N    1.569     9 O    1.094     1 C    1.035
     3   7 N    2.986 --     2 C    1.569     4 N    1.236
     4   7 N    3.010 --     5 C    1.577     3 N    1.236
     5   6 C    3.880 --     4 N    1.577     9 O    1.050     6 C    1.039
     6   6 C    3.890 --     7 O    1.760     5 C    1.039     8 Cl   1.021
     7   8 O    2.030 --     6 C    1.760     8 Cl   0.153
     8  17 Cl   1.231 --     6 C    1.021     7 O    0.153
     9   8 O    2.328 --     2 C    1.094     5 C    1.050
    10   1 H    0.994 --     1 C    0.954
    11   1 H    0.995 --     1 C    0.967
    12   1 H    0.997 --     1 C    0.980
 ---------------------------------------------------------------------------

           -------------------------------------------------
          | TOTAL ENERGY              -30.096491758025 Eh   |
          | GRADIENT NORM               0.000471223169 Eh/α |
          | HOMO-LUMO GAP               3.242888417394 eV   |
           -------------------------------------------------

 * finished run on 2023/06/20 at 14:51:34.831
