   * xtb version 6.5.1 (579679a) compiled by 'ehlert@majestix' on 2022-07-11
          program call               : /lustre/hpc/kemi/ree/PhD/git/ReactivityQM/dep/xtb-6.5.1/bin/xtb --gfn 1 /lustre/hpc/kemi/ree/PhD/git/ReactivityQM/calculations/R01/reac02prodN07/conf07/R01_reac02prodN07_conf07_gfn1.xyz --opt --vfukui --chrg 1 --uhf 0 --alpb DMSO

   ID    Z sym.   atoms
    1    6 C      1, 3, 5, 6, 8, 11-15
    2    8 O      2, 4, 7, 9
    3    7 N      10, 16, 17
    4    1 H      18-33

      * Solvation model:               ALPB
        Solvent                        DMSO
        Solvent mass                       7.8130E+01 g/mol
          :  Hamiltonian                  GFN1-xTB          :
 * total energy  :   -57.7904951 Eh     change       -0.4383338E-10 Eh
 * total energy  :   -57.8057565 Eh     change       -0.1526139E-01 Eh
 * total energy  :   -57.8117549 Eh     change       -0.5998416E-02 Eh
 * total energy  :   -57.8130022 Eh     change       -0.1247273E-02 Eh
 * total energy  :   -57.8142548 Eh     change       -0.1252665E-02 Eh
 * total energy  :   -57.8150934 Eh     change       -0.8385300E-03 Eh
 * total energy  :   -57.8161735 Eh     change       -0.1080083E-02 Eh
 * total energy  :   -57.8173009 Eh     change       -0.1127434E-02 Eh
 * total energy  :   -57.8178070 Eh     change       -0.5061272E-03 Eh
 * total energy  :   -57.8190019 Eh     change       -0.1194888E-02 Eh
 * total energy  :   -57.8706442 Eh     change       -0.1347378E-04 Eh
 * total energy  :   -57.8706725 Eh     change       -0.2828482E-04 Eh
 * total energy  :   -57.8706897 Eh     change       -0.1721200E-04 Eh
 * total energy  :   -57.8707131 Eh     change       -0.2343137E-04 Eh
 * total energy  :   -57.8707213 Eh     change       -0.8101924E-05 Eh
 * total energy  :   -57.8707374 Eh     change       -0.1610760E-04 Eh
 * total energy  :   -57.8707428 Eh     change       -0.5433078E-05 Eh
 * total energy  :   -57.8707523 Eh     change       -0.9468504E-05 Eh
 * total energy  :   -57.8707564 Eh     change       -0.4089031E-05 Eh
   *** GEOMETRY OPTIMIZATION CONVERGED AFTER 128 ITERATIONS ***

 final structure:
================
33
 xtb: 6.5.1 (579679a)
C            2.79896806018200       -1.71403070104891        0.89845582843999
O            1.81096125773012       -0.78246369175462        0.42971400631443
C            2.28310425207646        0.27347486998546       -0.22985261579005
O            3.47118818031535        0.43684833163551       -0.43797164789631
C            1.24934964410772        1.22629046252816       -0.68536548569972
C            1.60526985083537        2.35296923302475       -1.38789035020604
O            2.85673003624199        2.67148477518383       -1.70919512689178
C            0.57050269831687        3.29563577746770       -1.83440575029626
O            0.75004774091678        4.31743724931516       -2.46866444731929
N           -0.69991824595208        2.90483169442604       -1.45058289692464
C           -0.98283038344294        1.76990856316222       -0.75499996065165
C           -2.41642318629536        1.51091213620682       -0.43766666367202
C           -1.50563801918452       -2.01781967322215        1.00040703322632
C           -0.84426204847078       -2.22708606565154       -0.30069773307091
C           -0.84511067188237       -1.18215971478150        2.02082895019586
N           -2.65983370384514       -2.54457032505963        1.23726334001263
N           -0.06337994737357        0.94317206437848       -0.37780334988328
H            2.25672287792628       -2.50551878679095        1.41017280091544
H            3.35777796437030       -2.11860203412442        0.05174067948409
H            3.48308269707817       -1.21203359941472        1.58625748091995
H            3.48174053237140        1.98942078997107       -1.37005236531035
H           -1.45708323798803        3.51423512485493       -1.71990392627341
H           -2.83268113355601        2.33632063074430        0.14015680122455
H           -2.99538355232235        1.41372876195996       -1.35651166280267
H           -2.50258272301787        0.59233548308271        0.13653756892617
H           -0.57314304286344       -1.24979659820267       -0.71185187923752
H            0.09220121895901       -2.76551173970518       -0.14603547427147
H           -1.47114458238693       -2.77458808754520       -1.00027879953859
H            0.03575169631682       -1.70846611760126        2.39420799014126
H           -0.48335497775364       -0.26495714652565        1.54702927910059
H           -1.50570032770476       -0.94989501002165        2.85286064829621
H           -3.13370738227685       -2.41146846895188        2.11558692349859
H           -3.13122254120215       -3.12003718755805        0.55851180487767

          :  Hamiltonian                  GFN1-xTB          :
         :: total energy             -57.870756350055 Eh    ::
         :: gradient norm              0.000687280613 Eh/a0 ::
         :: HOMO-LUMO gap              2.265015566181 eV    ::
         :: SCC energy               -58.481879436032 Eh    ::
         :: -> Gsolv                  -0.124396055820 Eh    ::
         :: repulsion energy           0.629982928659 Eh    ::

    * Orbital Energies and Occupations

         #    Occupation            Energy/Eh            Energy/eV
      -------------------------------------------------------------
         1        2.0000           -0.8692555             -23.6536
       ...           ...                  ...                  ...
        35        2.0000           -0.5563904             -15.1402
        36        2.0000           -0.5473183             -14.8933
        37        2.0000           -0.5456654             -14.8483
        38        2.0000           -0.5441877             -14.8081
        39        2.0000           -0.5395858             -14.6829
        40        2.0000           -0.5280543             -14.3691
        41        2.0000           -0.5257038             -14.3051
        42        2.0000           -0.5096735             -13.8689
        43        2.0000           -0.4986653             -13.5694
        44        2.0000           -0.4946772             -13.4609
        45        2.0000           -0.4705046             -12.8031
        46        2.0000           -0.4577164             -12.4551
        47        2.0000           -0.4373513             -11.9009 (HOMO)
        48                         -0.3541135              -9.6359 (LUMO)
        49                         -0.3339852              -9.0882
        50                         -0.2906706              -7.9096
        51                         -0.2505650              -6.8182
        52                         -0.1731295              -4.7111
        53                         -0.1674159              -4.5556
        54                         -0.1648984              -4.4871
        55                         -0.1610134              -4.3814
        56                         -0.1520261              -4.1368
        57                         -0.1424616              -3.8766
        58                         -0.1180003              -3.2110
       ...                                ...                  ...
       100                          0.7184986              19.5513
      -------------------------------------------------------------
                  HL-Gap            0.0832378 Eh            2.2650 eV

Wiberg/Mayer (AO) data.
largest (>0.10) Wiberg bond orders for each atom

     #   Z sym  total        # sym  WBO       # sym  WBO       # sym  WBO
 ---------------------------------------------------------------------------
     1   6 C    3.860 --    18 H    0.986    19 H    0.978    20 H    0.978
                             2 O    0.885
     2   8 O    2.212 --     3 C    1.116     1 C    0.885     4 O    0.125
     3   6 C    3.847 --     4 O    1.615     2 O    1.116     5 C    1.028
     4   8 O    1.954 --     3 C    1.615     2 O    0.125
     5   6 C    3.962 --     6 C    1.488    17 N    1.162     3 C    1.028
     6   6 C    3.922 --     5 C    1.488     7 O    1.134     8 C    1.049
     7   8 O    2.100 --     6 C    1.134    21 H    0.772
     8   6 C    3.907 --     9 O    1.613    10 N    1.117     6 C    1.049
     9   8 O    1.910 --     8 C    1.613    10 N    0.134
    10   7 N    3.458 --    11 C    1.179     8 C    1.117    22 H    0.880
                             9 O    0.134
    11   6 C    3.930 --    17 N    1.568    10 N    1.179    12 C    1.026
    12   6 C    3.989 --    11 C    1.026    25 H    0.984    23 H    0.965
                            24 H    0.964
    13   6 C    3.857 --    16 N    1.628    14 C    1.071    15 C    1.069
    14   6 C    3.981 --    13 C    1.071    28 H    0.978    27 H    0.935
                            26 H    0.931
    15   6 C    3.980 --    13 C    1.069    31 H    0.977    30 H    0.936
                            29 H    0.932
    16   7 N    3.506 --    13 C    1.628    32 H    0.874    33 H    0.873
    17   7 N    3.061 --    11 C    1.568     5 C    1.162
    18   1 H    1.011 --     1 C    0.986
    19   1 H    1.005 --     1 C    0.978
    20   1 H    1.005 --     1 C    0.978
    21   1 H    0.848 --     7 O    0.772
    22   1 H    0.919 --    10 N    0.880
    23   1 H    0.994 --    12 C    0.965
    24   1 H    0.994 --    12 C    0.964
    25   1 H    1.004 --    12 C    0.984
    26   1 H    1.018 --    14 C    0.931
    27   1 H    0.996 --    14 C    0.935
    28   1 H    0.991 --    14 C    0.978
    29   1 H    0.994 --    15 C    0.932
    30   1 H    1.022 --    15 C    0.936
    31   1 H    0.991 --    15 C    0.977
    32   1 H    0.904 --    16 N    0.874
    33   1 H    0.904 --    16 N    0.873
 ---------------------------------------------------------------------------

           -------------------------------------------------
          | TOTAL ENERGY              -57.870756350055 Eh   |
          | GRADIENT NORM               0.000687280613 Eh/α |
          | HOMO-LUMO GAP               2.265015566181 eV   |
           -------------------------------------------------

 * finished run on 2023/06/20 at 15:08:17.266
