   * xtb version 6.5.1 (579679a) compiled by 'ehlert@majestix' on 2022-07-11
          program call               : /lustre/hpc/kemi/ree/PhD/git/ReactivityQM/dep/xtb-6.5.1/bin/xtb --gfn 1 /lustre/hpc/kemi/ree/PhD/git/ReactivityQM/calculations/R02oxygendeprot/reac01prodE12/conf10/R02oxygendeprot_reac01prodE12_conf10_gfn1.xyz --opt --vfukui --chrg -2 --uhf 0 --alpb DMSO

   ID    Z sym.   atoms
    1    6 C      1, 3, 5, 6, 8, 9, 12-15, 17, 19, 22, 23
    2    8 O      2, 4, 7, 10, 18, 24
    3    7 N      11, 16, 20, 21, 25
    4    1 H      26-42

      * Solvation model:               ALPB
        Solvent                        DMSO
        Solvent mass                       7.8130E+01 g/mol
          :  Hamiltonian                  GFN1-xTB          :
 * total energy  :   -83.5981022 Eh     change        0.1949161E-09 Eh
 * total energy  :   -83.6128699 Eh     change       -0.1476772E-01 Eh
 * total energy  :   -83.6187852 Eh     change       -0.5915344E-02 Eh
 * total energy  :   -83.6197459 Eh     change       -0.9606829E-03 Eh
 * total energy  :   -83.6204601 Eh     change       -0.7141712E-03 Eh
 * total energy  :   -83.6207651 Eh     change       -0.3050535E-03 Eh
 * total energy  :   -83.6210278 Eh     change       -0.2626291E-03 Eh
 * total energy  :   -83.6211996 Eh     change       -0.1717868E-03 Eh
 * total energy  :   -83.6213174 Eh     change       -0.1178629E-03 Eh
 * total energy  :   -83.6214399 Eh     change       -0.1224603E-03 Eh
 * total energy  :   -83.6452097 Eh     change       -0.4808048E-04 Eh
 * total energy  :   -83.6452419 Eh     change       -0.3215838E-04 Eh
 * total energy  :   -83.6452705 Eh     change       -0.2858763E-04 Eh
 * total energy  :   -83.6452998 Eh     change       -0.2928718E-04 Eh
 * total energy  :   -83.6453155 Eh     change       -0.1578691E-04 Eh
 * total energy  :   -83.6453494 Eh     change       -0.3386760E-04 Eh
 * total energy  :   -83.6453583 Eh     change       -0.8901014E-05 Eh
 * total energy  :   -83.6453744 Eh     change       -0.1605030E-04 Eh
 * total energy  :   -83.6453784 Eh     change       -0.4011073E-05 Eh
   *** GEOMETRY OPTIMIZATION CONVERGED AFTER 84 ITERATIONS ***

 final structure:
================
42
 xtb: 6.5.1 (579679a)
C           -5.54830052644746        2.67570257347245       -1.16710308101381
O           -4.40666401392996        2.21424138561472       -0.47187683886801
C           -3.72501311940078        1.17568683557721       -1.07613654323695
O           -4.15201482336164        0.71886618065221       -2.14235722742969
C           -2.57375924422863        0.72203391840973       -0.36300490703954
C           -2.07594853269431        1.27476157572569        0.83376546473954
O           -2.57135369635676        2.20261321991936        1.50552236780410
C           -0.76030706733111        0.60678693386640        1.35373024857054
C           -0.63149800717584        0.79141048945508        2.86879446313770
O            0.38172572745524        1.14972548738870        0.70416400073188
N           -0.85991206380344       -0.81100869633475        1.04528048791785
C           -1.00701564205262       -0.98153822858584       -0.35024552189348
C            0.04676108177374       -1.85861105992452       -1.00441170600291
C            0.01117914584154       -3.28675235216157       -0.43527076067476
C           -0.18268734775435       -1.88970603951298       -2.52277249558201
N            1.29062540979215       -1.15657170960676       -0.64112376752125
C            2.42120153855739       -1.63852378681712       -1.09261916117525
O            2.65290168599622       -2.64307080845648       -1.80656114050305
C            3.60984082091583       -0.80608034013728       -0.66576531559147
N            4.84691255405482       -0.97672598199256       -1.03156993193877
N            5.58649170721333        0.00698399338533       -0.41808050403412
C            4.75196221411940        0.70738799235111        0.27897033047362
C            5.06159490801302        1.88222197475022        1.12940172860664
O            3.49292372723383        0.25434876726897        0.16809544745616
N           -1.83301499131778       -0.29230552808651       -1.02893956246315
H           -5.98118573418494        3.48543655487592       -0.57903062706609
H           -6.29001524185525        1.87732469338657       -1.28653508159025
H           -5.28174756371951        3.05226795564885       -2.16187015964189
H           -0.62473812248472        1.85482277655495        3.10492894121988
H            0.29703900041904        0.34323850811270        3.21637703533860
H           -1.47165539513244        0.31812419116653        3.37458457933937
H           -0.03258733410698       -1.29434069984979        1.38244360190505
H            0.22556164417517       -3.27991259497362        0.63287277831834
H            0.75191635606017       -3.91248567578733       -0.93238243992737
H           -0.97670611251032       -3.72266839328609       -0.59013509561012
H           -1.17506133991484       -2.29203456035837       -2.73308718615733
H            0.56055076511590       -2.51688763524310       -3.01291561545440
H           -0.12506527232070       -0.88005568295229       -2.93223968005887
H            0.88176629337560        0.39531460728980        0.27127743453598
H            4.82431205108360        1.66730395621618        2.17113819260418
H            6.11921031445450        2.11881010001026        1.04581000609476
H            4.47177524644973        2.74386210295668        0.81713424168400

          :  Hamiltonian                  GFN1-xTB          :
         :: total energy             -83.645378372983 Eh    ::
         :: gradient norm              0.000869094432 Eh/a0 ::
         :: HOMO-LUMO gap              2.325219016895 eV    ::
         :: SCC energy               -84.370282902660 Eh    ::
         :: -> Gsolv                  -0.266594779654 Eh    ::
         :: repulsion energy           0.751443323631 Eh    ::

    * Orbital Energies and Occupations

         #    Occupation            Energy/Eh            Energy/eV
      -------------------------------------------------------------
         1        2.0000           -0.8196667             -22.3043
       ...           ...                  ...                  ...
        56        2.0000           -0.4387295             -11.9384
        57        2.0000           -0.4326791             -11.7738
        58        2.0000           -0.4212783             -11.4636
        59        2.0000           -0.4161987             -11.3253
        60        2.0000           -0.4122658             -11.2183
        61        2.0000           -0.4105477             -11.1716
        62        2.0000           -0.3969082             -10.8004
        63        2.0000           -0.3837224             -10.4416
        64        2.0000           -0.3755313             -10.2187
        65        2.0000           -0.3649246              -9.9301
        66        2.0000           -0.3518989              -9.5757
        67        2.0000           -0.3503963              -9.5348
        68        2.0000           -0.3288456              -8.9483 (HOMO)
        69                         -0.2433954              -6.6231 (LUMO)
        70                         -0.2196253              -5.9763
        71                         -0.2189275              -5.9573
        72                         -0.2002826              -5.4500
        73                         -0.1274091              -3.4670
        74                         -0.1270529              -3.4573
        75                         -0.1131985              -3.0803
        76                         -0.1029704              -2.8020
        77                         -0.0904040              -2.4600
        78                         -0.0864838              -2.3533
        79                         -0.0801450              -2.1809
       ...                                ...                  ...
       134                          0.7571177              20.6022
      -------------------------------------------------------------
                  HL-Gap            0.0854502 Eh            2.3252 eV

Wiberg/Mayer (AO) data.
largest (>0.10) Wiberg bond orders for each atom

     #   Z sym  total        # sym  WBO       # sym  WBO       # sym  WBO
 ---------------------------------------------------------------------------
     1   6 C    3.913 --    26 H    0.987    28 H    0.980    27 H    0.980
                             2 O    0.942
     2   8 O    2.117 --     3 C    0.991     1 C    0.942
     3   6 C    3.853 --     4 O    1.520     5 C    1.211     2 O    0.991
     4   8 O    1.813 --     3 C    1.520
     5   6 C    3.892 --     6 C    1.317     3 C    1.211    25 N    1.046
                             7 O    0.117
     6   6 C    3.923 --     7 O    1.520     5 C    1.317     8 C    0.908
     7   8 O    1.823 --     6 C    1.520     5 C    0.117
     8   6 C    3.890 --     9 C    0.989    11 N    0.947    10 O    0.946
                             6 C    0.908
     9   6 C    3.997 --     8 C    0.989    31 H    0.988    30 H    0.987
                            29 H    0.984
    10   8 O    1.878 --     8 C    0.946    39 H    0.802
    11   7 N    3.128 --    12 C    1.041     8 C    0.947    32 H    0.933
                            25 N    0.100
    12   6 C    3.938 --    25 N    1.741    11 N    1.041    13 C    0.971
    13   6 C    3.970 --    15 C    0.990    14 C    0.982    12 C    0.971
                            16 N    0.966
    14   6 C    3.993 --    35 H    0.988    33 H    0.983    34 H    0.982
                            13 C    0.982
    15   6 C    3.995 --    13 C    0.990    36 H    0.987    38 H    0.986
                            37 H    0.984
    16   7 N    2.995 --    17 C    1.493    13 C    0.966    18 O    0.223
                            39 H    0.115
    17   6 C    3.941 --    16 N    1.493    18 O    1.419    19 C    0.956
    18   8 O    1.771 --    17 C    1.419    16 N    0.223
    19   6 C    3.831 --    20 N    1.623    24 O    1.045    17 C    0.956
    20   7 N    2.968 --    19 C    1.623    21 N    1.168
    21   7 N    2.974 --    22 C    1.637    20 N    1.168
    22   6 C    3.886 --    21 N    1.637    24 O    1.077    23 C    1.025
    23   6 C    3.993 --    22 C    1.025    41 H    0.985    42 H    0.970
                            40 H    0.968
    24   8 O    2.311 --    22 C    1.077    19 C    1.045
    25   7 N    3.016 --    12 C    1.741     5 C    1.046    11 N    0.100
    26   1 H    1.019 --     1 C    0.987
    27   1 H    1.019 --     1 C    0.980
    28   1 H    1.019 --     1 C    0.980
    29   1 H    1.019 --     9 C    0.984
    30   1 H    1.010 --     9 C    0.987
    31   1 H    1.012 --     9 C    0.988
    32   1 H    0.981 --    11 N    0.933
    33   1 H    1.008 --    14 C    0.983
    34   1 H    1.020 --    14 C    0.982
    35   1 H    1.008 --    14 C    0.988
    36   1 H    1.014 --    15 C    0.987
    37   1 H    1.022 --    15 C    0.984
    38   1 H    1.019 --    15 C    0.986
    39   1 H    0.940 --    10 O    0.802    16 N    0.115
    40   1 H    1.001 --    23 C    0.968
    41   1 H    1.003 --    23 C    0.985
    42   1 H    1.001 --    23 C    0.970
 ---------------------------------------------------------------------------

           -------------------------------------------------
          | TOTAL ENERGY              -83.645378372983 Eh   |
          | GRADIENT NORM               0.000869094432 Eh/α |
          | HOMO-LUMO GAP               2.325219016895 eV   |
           -------------------------------------------------

 * finished run on 2023/06/21 at 17:14:23.670
