   * xtb version 6.5.1 (579679a) compiled by 'ehlert@majestix' on 2022-07-11
          program call               : /lustre/hpc/kemi/ree/PhD/git/ReactivityQM/dep/xtb-6.5.1/bin/xtb --gfn 1 /lustre/hpc/kemi/ree/PhD/git/ReactivityQM/calculations/R02methylcation/reac01prodE04/conf01/R02methylcation_reac01prodE04_conf01_gfn1.xyz --opt --vfukui --chrg -2 --uhf 0 --alpb DMSO

   ID    Z sym.   atoms
    1    6 C      1, 3, 5, 6, 8-11, 13, 15, 18, 19, 22, 24
    2    8 O      2, 4, 14, 20, 23, 25
    3    7 N      7, 12, 16, 17, 21
    4    1 H      26-42

      * Solvation model:               ALPB
        Solvent                        DMSO
        Solvent mass                       7.8130E+01 g/mol
          :  Hamiltonian                  GFN1-xTB          :
 * total energy  :   -83.5806025 Eh     change       -0.1488459E-08 Eh
 * total energy  :   -83.6014677 Eh     change       -0.2086516E-01 Eh
 * total energy  :   -83.6088832 Eh     change       -0.7415511E-02 Eh
 * total energy  :   -83.6106363 Eh     change       -0.1753102E-02 Eh
 * total energy  :   -83.6117153 Eh     change       -0.1079035E-02 Eh
 * total energy  :   -83.6122021 Eh     change       -0.4867206E-03 Eh
 * total energy  :   -83.6124148 Eh     change       -0.2127046E-03 Eh
 * total energy  :   -83.6125453 Eh     change       -0.1305708E-03 Eh
 * total energy  :   -83.6126194 Eh     change       -0.7405235E-04 Eh
 * total energy  :   -83.6126673 Eh     change       -0.4796741E-04 Eh
 * total energy  :   -83.6138039 Eh     change       -0.9441597E-05 Eh
 * total energy  :   -83.6138134 Eh     change       -0.9588225E-05 Eh
 * total energy  :   -83.6138201 Eh     change       -0.6635678E-05 Eh
 * total energy  :   -83.6138300 Eh     change       -0.9946766E-05 Eh
 * total energy  :   -83.6138359 Eh     change       -0.5906387E-05 Eh
 * total energy  :   -83.6138433 Eh     change       -0.7372838E-05 Eh
 * total energy  :   -83.6138500 Eh     change       -0.6668279E-05 Eh
 * total energy  :   -83.6138564 Eh     change       -0.6429114E-05 Eh
 * total energy  :   -83.6138613 Eh     change       -0.4934158E-05 Eh
   *** GEOMETRY OPTIMIZATION CONVERGED AFTER 52 ITERATIONS ***

 final structure:
================
42
 xtb: 6.5.1 (579679a)
C           -2.51419263550988        2.41067056506543       -1.87207058944528
O           -2.35976320301161        1.21736529203988       -1.11446013506724
C           -3.50702672014934        0.55484295795258       -0.82328277297260
O           -4.59324945178770        0.97267643087288       -1.19940798934252
C           -3.28982992748372       -0.77479396743111       -0.12322037772893
C           -4.53253691629683       -1.13115238777972        0.69877279036103
N           -2.12722529263696       -0.74124233809504        0.75010032920714
C           -0.97847879892159       -0.97613552939374        0.22917664737636
C            0.26144196884785       -0.91869133981512        1.11358988588632
C            0.53422220742150       -2.34963542686045        1.60470834051592
C            0.01483698226312        0.02435701028583        2.29969479501445
N            1.37265794021014       -0.44481085674638        0.28706353998783
C            2.63524803924623       -0.21130378295612        0.85296758575020
O            3.02314942000933       -0.74784590728283        1.91143001811859
C            3.41785121575118        0.65888312404063        0.03252778454985
N            3.01608973094074        1.25582867143004       -1.09399075605270
N            4.07239998647901        2.00726528580390       -1.53223197038157
C            5.03711240511750        1.84595695385836       -0.68721459633013
C            6.38533104141898        2.46430836659503       -0.73927280852169
O            4.71765426453874        1.01416922567719        0.33285517008112
N           -0.79364180179471       -1.33138710063104       -1.06968109928193
C           -1.84763258924148       -1.92209526315242       -1.84849326311510
O           -1.48513429701813       -2.60601574620226       -2.85045481665305
C           -3.15339587885551       -1.72371181899102       -1.35005972945866
O           -4.21795079376802       -2.24326776167316       -1.83042735708013
H           -2.95590886190845        2.19703843607698       -2.85067420395678
H           -3.15846095668046        3.11971625320312       -1.34326469122472
H           -1.52270144855807        2.84247528369939       -2.00029812378519
H           -5.41587475446741       -1.11685122376736        0.06049322129704
H           -4.66493029785249       -0.41616897882793        1.51007056887807
H           -4.41873078355487       -2.12792809280016        1.12342383470420
H            0.76969107971825       -2.99361828972891        0.75747421108227
H           -0.35368494583794       -2.73450256392865        2.10609728788917
H            1.36749758373558       -2.36793574163531        2.30436029676536
H            0.86433567615906        0.01090676692476        2.98057151784502
H           -0.13944345105675        1.04214549593464        1.94144491198338
H           -0.87797385873350       -0.29459481208412        2.83685014847878
H            1.10605675007258        0.28589559111374       -0.36697967150767
H            6.48691584514623        3.03769482183796       -1.65751852645861
H            6.53385048174014        3.12644711763465        0.11437106514010
H            7.15671407042054        1.69506172439596       -0.70607762143512
H            0.13471397588634       -1.61001644465696       -1.35212285111402

          :  Hamiltonian                  GFN1-xTB          :
         :: total energy             -83.613861335258 Eh    ::
         :: gradient norm              0.000448208838 Eh/a0 ::
         :: HOMO-LUMO gap              0.038222022873 eV    ::
         :: SCC energy               -84.339959738193 Eh    ::
         :: -> Gsolv                  -0.267772415628 Eh    ::
         :: repulsion energy           0.753030822527 Eh    ::

    * Orbital Energies and Occupations

         #    Occupation            Energy/Eh            Energy/eV
      -------------------------------------------------------------
         1        2.0000           -0.8032359             -21.8572
       ...           ...                  ...                  ...
        56        2.0000           -0.4492131             -12.2237
        57        2.0000           -0.4450535             -12.1105
        58        2.0000           -0.4312935             -11.7361
        59        2.0000           -0.4264273             -11.6037
        60        2.0000           -0.4105915             -11.1728
        61        2.0000           -0.4075357             -11.0896
        62        2.0000           -0.4056531             -11.0384
        63        2.0000           -0.3994755             -10.8703
        64        2.0000           -0.3906942             -10.6313
        65        2.0000           -0.3806621             -10.3583
        66        2.0000           -0.3761476             -10.2355
        67        2.0000           -0.3462826              -9.4228
        68        1.3537           -0.2703182              -7.3557 (HOMO)
        69        0.6463           -0.2689136              -7.3175 (LUMO)
        70                         -0.2236686              -6.0863
        71                         -0.2116409              -5.7590
        72                         -0.2033086              -5.5323
        73                         -0.1425493              -3.8790
        74                         -0.1248832              -3.3982
        75                         -0.1227585              -3.3404
        76                         -0.1165043              -3.1702
        77                         -0.0978357              -2.6622
        78                         -0.0944540              -2.5702
        79                         -0.0882208              -2.4006
       ...                                ...                  ...
       134                          0.7129997              19.4017
      -------------------------------------------------------------
                  HL-Gap            0.0014046 Eh            0.0382 eV

Wiberg/Mayer (AO) data.
largest (>0.10) Wiberg bond orders for each atom

     #   Z sym  total        # sym  WBO       # sym  WBO       # sym  WBO
 ---------------------------------------------------------------------------
     1   6 C    3.897 --    28 H    0.987    27 H    0.981    26 H    0.981
                             2 O    0.921
     2   8 O    2.151 --     3 C    1.052     1 C    0.921     4 O    0.109
     3   6 C    3.780 --     4 O    1.599     2 O    1.052     5 C    0.947
     4   8 O    1.864 --     3 C    1.599     2 O    0.109
     5   6 C    3.959 --     6 C    0.990     7 N    0.979     3 C    0.947
                            24 C    0.876
     6   6 C    3.990 --     5 C    0.990    30 H    0.989    31 H    0.987
                            29 H    0.984
     7   7 N    2.940 --     8 C    1.654     5 C    0.979    21 N    0.147
     8   6 C    3.932 --     7 N    1.654    21 N    1.176     9 C    0.970
     9   6 C    3.950 --    11 C    0.990    10 C    0.983     8 C    0.970
                            12 N    0.944
    10   6 C    3.993 --    33 H    0.988    32 H    0.986     9 C    0.983
                            34 H    0.979
    11   6 C    3.992 --     9 C    0.990    36 H    0.987    35 H    0.984
                            37 H    0.984
    12   7 N    3.148 --    13 C    1.078     9 C    0.944    38 H    0.918
                            14 O    0.108
    13   6 C    3.749 --    14 O    1.454    15 C    1.150    12 N    1.078
    14   8 O    1.696 --    13 C    1.454    12 N    0.108
    15   6 C    3.697 --    16 N    1.397    13 C    1.150    20 O    0.979
    16   7 N    2.747 --    15 C    1.397    17 N    1.185
    17   7 N    2.980 --    18 C    1.629    16 N    1.185
    18   6 C    3.821 --    17 N    1.629    20 O    1.051    19 C    1.024
    19   6 C    3.994 --    18 C    1.024    39 H    0.986    41 H    0.972
                            40 H    0.970
    20   8 O    2.187 --    18 C    1.051    15 C    0.979
    21   7 N    3.319 --     8 C    1.176    22 C    0.955    42 H    0.911
                             7 N    0.147
    22   6 C    3.740 --    23 O    1.387    24 C    1.249    21 N    0.955
    23   8 O    1.597 --    22 C    1.387
    24   6 C    3.730 --    25 O    1.371    22 C    1.249     5 C    0.876
    25   8 O    1.573 --    24 C    1.371
    26   1 H    1.013 --     1 C    0.981
    27   1 H    1.014 --     1 C    0.981
    28   1 H    1.016 --     1 C    0.987
    29   1 H    1.026 --     6 C    0.984
    30   1 H    1.011 --     6 C    0.989
    31   1 H    1.012 --     6 C    0.987
    32   1 H    1.009 --    10 C    0.986
    33   1 H    1.008 --    10 C    0.988
    34   1 H    1.023 --    10 C    0.979
    35   1 H    1.014 --    11 C    0.984
    36   1 H    1.009 --    11 C    0.987
    37   1 H    1.022 --    11 C    0.984
    38   1 H    0.980 --    12 N    0.918
    39   1 H    1.004 --    19 C    0.986
    40   1 H    1.001 --    19 C    0.970
    41   1 H    1.001 --    19 C    0.972
    42   1 H    0.971 --    21 N    0.911
 ---------------------------------------------------------------------------

           -------------------------------------------------
          | TOTAL ENERGY              -83.613861335258 Eh   |
          | GRADIENT NORM               0.000448208838 Eh/α |
          | HOMO-LUMO GAP               0.038222022873 eV   |
           -------------------------------------------------

 * finished run on 2023/06/21 at 17:10:47.315
