   * xtb version 6.5.1 (579679a) compiled by 'ehlert@majestix' on 2022-07-11
          program call               : /lustre/hpc/kemi/ree/PhD/git/ReactivityQM/dep/xtb-6.5.1/bin/xtb --gfn 1 /lustre/hpc/kemi/ree/PhD/git/ReactivityQM/calculations/R01/reac02prodN07/conf09/R01_reac02prodN07_conf09_gfn1.xyz --opt --vfukui --chrg 1 --uhf 0 --alpb DMSO

   ID    Z sym.   atoms
    1    6 C      1, 3, 5, 6, 8, 11-15
    2    8 O      2, 4, 7, 9
    3    7 N      10, 16, 17
    4    1 H      18-33

      * Solvation model:               ALPB
        Solvent                        DMSO
        Solvent mass                       7.8130E+01 g/mol
          :  Hamiltonian                  GFN1-xTB          :
 * total energy  :   -57.7916374 Eh     change       -0.6712284E-09 Eh
 * total energy  :   -57.8055620 Eh     change       -0.1392452E-01 Eh
 * total energy  :   -57.8107900 Eh     change       -0.5228013E-02 Eh
 * total energy  :   -57.8121129 Eh     change       -0.1322917E-02 Eh
 * total energy  :   -57.8136701 Eh     change       -0.1557251E-02 Eh
 * total energy  :   -57.8148347 Eh     change       -0.1164521E-02 Eh
 * total energy  :   -57.8162703 Eh     change       -0.1435682E-02 Eh
 * total energy  :   -57.8177646 Eh     change       -0.1494276E-02 Eh
 * total energy  :   -57.8183013 Eh     change       -0.5367336E-03 Eh
 * total energy  :   -57.8200518 Eh     change       -0.1750493E-02 Eh
 * total energy  :   -57.8678213 Eh     change       -0.1283485E-04 Eh
 * total energy  :   -57.8678485 Eh     change       -0.2729031E-04 Eh
 * total energy  :   -57.8678633 Eh     change       -0.1474513E-04 Eh
 * total energy  :   -57.8678809 Eh     change       -0.1764568E-04 Eh
 * total energy  :   -57.8678967 Eh     change       -0.1573291E-04 Eh
 * total energy  :   -57.8679089 Eh     change       -0.1228039E-04 Eh
 * total energy  :   -57.8679189 Eh     change       -0.9905516E-05 Eh
 * total energy  :   -57.8679253 Eh     change       -0.6493546E-05 Eh
 * total energy  :   -57.8679284 Eh     change       -0.3081634E-05 Eh
   *** GEOMETRY OPTIMIZATION CONVERGED AFTER 113 ITERATIONS ***

 final structure:
================
33
 xtb: 6.5.1 (579679a)
C            2.21251172911441        2.60544585932085       -0.19676333179570
O            1.53899147833843        1.33894092772675       -0.17838747453729
C            2.28169210199255        0.28819950260909       -0.55847813147425
O            3.43307379557722        0.39845453651128       -0.90317552414822
C            1.53278619790902       -0.99697288388370       -0.50228462463005
C            2.08156532231706       -2.18352362393964       -0.90899038344887
O            3.31442457780527       -2.30776452402502       -1.40556353595776
C            1.31046484999656       -3.42252951680622       -0.81812053804041
O            1.74488110763507       -4.50762775991882       -1.16885897342554
N            0.05059306685729       -3.25367084272157       -0.29568824102780
C           -0.44199865540019       -2.04114440737545        0.08641417167243
C           -1.83013569855621       -2.02321257713848        0.62963920744561
C           -1.93365246418228        1.84765006501402        0.56747376212012
C           -1.47554314290230        1.72246794072138       -0.82842418528234
C           -0.96656488437524        1.65750696962007        1.66562735111723
N           -3.17108622931697        2.10669717555496        0.82712035904044
N            0.24651444442955       -0.95143101931665       -0.00702122862891
H            3.04673488361800        2.59398040210761        0.50860548508676
H            1.47794729035843        3.35060680508832        0.09854935498283
H            2.58341811018344        2.81645130570821       -1.20238034662180
H            3.47321190004836       -3.24305278655279       -1.63251587646889
H           -0.52831933779714       -4.07421589411305       -0.21011108861377
H           -1.88344053557168       -2.61255595809206        1.54527471233720
H           -2.52552586774624       -2.45267841962466       -0.09083999774097
H           -2.12506905446724       -1.00061507435613        0.84713488183784
H           -2.29521827148762        1.78079072459261       -1.54039412652501
H           -0.74717845192072        2.50745528224690       -1.03965887745319
H           -0.94356899857847        0.77201731577477       -0.93321851565966
H           -0.29336685345290        2.51702287319866        1.69545381486146
H           -1.45727046001856        1.55463644380921        2.63059376020020
H           -0.34919249608461        0.78089712462355        1.45022950169594
H           -3.50974203773191        2.19168459901778        1.77163427500925
H           -3.85193941634789        2.24008843474944        0.09712136392365

          :  Hamiltonian                  GFN1-xTB          :
         :: total energy             -57.867928426850 Eh    ::
         :: gradient norm              0.000575467308 Eh/a0 ::
         :: HOMO-LUMO gap              2.282563006760 eV    ::
         :: SCC energy               -58.482635973487 Eh    ::
         :: -> Gsolv                  -0.124358545856 Eh    ::
         :: repulsion energy           0.633507151548 Eh    ::

    * Orbital Energies and Occupations

         #    Occupation            Energy/Eh            Energy/eV
      -------------------------------------------------------------
         1        2.0000           -0.8700751             -23.6759
       ...           ...                  ...                  ...
        35        2.0000           -0.5569478             -15.1553
        36        2.0000           -0.5488418             -14.9347
        37        2.0000           -0.5463987             -14.8683
        38        2.0000           -0.5447945             -14.8246
        39        2.0000           -0.5408488             -14.7172
        40        2.0000           -0.5285895             -14.3837
        41        2.0000           -0.5240557             -14.2603
        42        2.0000           -0.5065440             -13.7838
        43        2.0000           -0.4959342             -13.4951
        44        2.0000           -0.4930652             -13.4170
        45        2.0000           -0.4718108             -12.8386
        46        2.0000           -0.4603067             -12.5256
        47        2.0000           -0.4390103             -11.9461 (HOMO)
        48                         -0.3551276              -9.6635 (LUMO)
        49                         -0.3320287              -9.0350
        50                         -0.2917715              -7.9395
        51                         -0.2482529              -6.7553
        52                         -0.1739112              -4.7324
        53                         -0.1663386              -4.5263
        54                         -0.1661175              -4.5203
        55                         -0.1623733              -4.4184
        56                         -0.1525483              -4.1511
        57                         -0.1426124              -3.8807
        58                         -0.1190306              -3.2390
       ...                                ...                  ...
       100                          0.7349370              19.9987
      -------------------------------------------------------------
                  HL-Gap            0.0838826 Eh            2.2826 eV

Wiberg/Mayer (AO) data.
largest (>0.10) Wiberg bond orders for each atom

     #   Z sym  total        # sym  WBO       # sym  WBO       # sym  WBO
 ---------------------------------------------------------------------------
     1   6 C    3.867 --    19 H    0.985    20 H    0.979    18 H    0.979
                             2 O    0.892
     2   8 O    2.195 --     3 C    1.089     1 C    0.892     4 O    0.130
     3   6 C    3.850 --     4 O    1.671     2 O    1.089     5 C    1.007
     4   8 O    1.937 --     3 C    1.671     2 O    0.130
     5   6 C    3.962 --     6 C    1.505    17 N    1.164     3 C    1.007
     6   6 C    3.921 --     5 C    1.505     7 O    1.116     8 C    1.058
     7   8 O    2.095 --     6 C    1.116    21 H    0.805
     8   6 C    3.910 --     9 O    1.586    10 N    1.136     6 C    1.058
     9   8 O    1.910 --     8 C    1.586    10 N    0.133
    10   7 N    3.464 --    11 C    1.172     8 C    1.136    22 H    0.878
                             9 O    0.133
    11   6 C    3.929 --    17 N    1.573    10 N    1.172    12 C    1.026
    12   6 C    3.989 --    11 C    1.026    25 H    0.984    24 H    0.965
                            23 H    0.962
    13   6 C    3.856 --    16 N    1.629    14 C    1.071    15 C    1.068
    14   6 C    3.981 --    13 C    1.071    26 H    0.978    27 H    0.935
                            28 H    0.932
    15   6 C    3.980 --    13 C    1.068    30 H    0.976    31 H    0.939
                            29 H    0.930
    16   7 N    3.507 --    13 C    1.629    32 H    0.873    33 H    0.873
    17   7 N    3.059 --    11 C    1.573     5 C    1.164
    18   1 H    1.006 --     1 C    0.979
    19   1 H    1.012 --     1 C    0.985
    20   1 H    1.007 --     1 C    0.979
    21   1 H    0.843 --     7 O    0.805
    22   1 H    0.915 --    10 N    0.878
    23   1 H    0.994 --    12 C    0.962
    24   1 H    0.994 --    12 C    0.965
    25   1 H    1.004 --    12 C    0.984
    26   1 H    0.991 --    14 C    0.978
    27   1 H    0.995 --    14 C    0.935
    28   1 H    1.018 --    14 C    0.932
    29   1 H    0.993 --    15 C    0.930
    30   1 H    0.991 --    15 C    0.976
    31   1 H    1.023 --    15 C    0.939
    32   1 H    0.904 --    16 N    0.873
    33   1 H    0.904 --    16 N    0.873
 ---------------------------------------------------------------------------

           -------------------------------------------------
          | TOTAL ENERGY              -57.867928426850 Eh   |
          | GRADIENT NORM               0.000575467308 Eh/α |
          | HOMO-LUMO GAP               2.282563006760 eV   |
           -------------------------------------------------

 * finished run on 2023/06/20 at 15:07:57.021
