   * xtb version 6.5.1 (579679a) compiled by 'ehlert@majestix' on 2022-07-11
          program call               : /lustre/hpc/kemi/ree/PhD/git/ReactivityQM/dep/xtb-6.5.1/bin/xtb --gfn 1 /lustre/hpc/kemi/ree/PhD/git/ReactivityQM/calculations/R01/reac02prodN05/conf06/R01_reac02prodN05_conf06_gfn1.xyz --opt --vfukui --chrg 1 --uhf 0 --alpb DMSO

   ID    Z sym.   atoms
    1    6 C      1, 3, 4, 6, 8-11, 14, 16
    2    8 O      2, 5, 15, 17
    3    7 N      7, 12, 13
    4    1 H      18-33

      * Solvation model:               ALPB
        Solvent                        DMSO
        Solvent mass                       7.8130E+01 g/mol
          :  Hamiltonian                  GFN1-xTB          :
 * total energy  :   -57.7090429 Eh     change       -0.2550848E-11 Eh
 * total energy  :   -57.7222394 Eh     change       -0.1319657E-01 Eh
 * total energy  :   -57.7288463 Eh     change       -0.6606826E-02 Eh
 * total energy  :   -57.7313001 Eh     change       -0.2453881E-02 Eh
 * total energy  :   -57.7334967 Eh     change       -0.2196540E-02 Eh
 * total energy  :   -57.7345755 Eh     change       -0.1078779E-02 Eh
 * total energy  :   -57.7359615 Eh     change       -0.1386039E-02 Eh
 * total energy  :   -57.7371225 Eh     change       -0.1161044E-02 Eh
 * total energy  :   -57.7385747 Eh     change       -0.1452188E-02 Eh
 * total energy  :   -57.7403975 Eh     change       -0.1822806E-02 Eh
 * total energy  :   -57.8212948 Eh     change       -0.1135292E-04 Eh
 * total energy  :   -57.8212843 Eh     change        0.1054853E-04 Eh
 * total energy  :   -57.8213189 Eh     change       -0.3464235E-04 Eh
 * total energy  :   -57.8213261 Eh     change       -0.7197386E-05 Eh
 * total energy  :   -57.8213339 Eh     change       -0.7752603E-05 Eh
 * total energy  :   -57.8213387 Eh     change       -0.4788612E-05 Eh
 * total energy  :   -57.8213495 Eh     change       -0.1083200E-04 Eh
 * total energy  :   -57.8213540 Eh     change       -0.4449920E-05 Eh
 * total energy  :   -57.8213570 Eh     change       -0.3004106E-05 Eh
   *** GEOMETRY OPTIMIZATION CONVERGED AFTER 106 ITERATIONS ***

 final structure:
================
33
 xtb: 6.5.1 (579679a)
C           -1.76618165142725        0.42399969082899        2.94388138366418
O           -1.40263687191506        0.03072666448673        1.59807117032756
C           -2.23104611030779        0.22943990055208        0.62771466634526
C           -2.48799424954092        0.26993837718298       -1.89896387347100
O           -3.33216131270072        0.67404735773931        0.63781518961768
C           -1.56057166502324       -0.22108789509488       -0.78546896164304
N           -0.30659256506973        0.45856005380326       -0.80129242259684
C            0.76929725526881       -0.14822811335906       -0.47270605980432
C            2.09365022731741        0.57977618973338       -0.39704260553054
C            2.15352564472690        1.25730026366648        0.97981774697580
C            2.19385982132989        1.61495320978727       -1.52290558835832
N            3.14698691711280       -0.42277719420575       -0.47830394505431
N            0.82444811295669       -1.47889138268480       -0.11351159634260
C           -0.22385405057855       -2.32764504918557       -0.17044794472175
O           -0.21220682523731       -3.51618071933540        0.06616858827025
C           -1.48315079490902       -1.66168877551845       -0.62334373095377
O           -2.50096780935143       -2.41043582070825       -0.80879134048541
H           -1.79838412897328       -0.48214628176338        3.54736107142638
H           -0.98361455644925        1.09066910130946        3.30244765303212
H           -2.73473033339641        0.92348414821786        2.94023637901390
H           -2.05336441780508        0.00627269403411       -2.86033798559351
H           -2.58460931058117        1.35093785698868       -1.82811586437816
H           -3.46592179919347       -0.19524783546862       -1.79647754073726
H            3.08546521321693        1.81225095184097        1.07293356886151
H            2.10674675077447        0.50525925710410        1.76589148996686
H            1.31577191351110        1.94396598412161        1.09307274365399
H            2.15684906453496        1.11895201072496       -2.49133089786502
H            1.36348699049670        2.31670570000438       -1.45312960801865
H            3.13340922693754        2.15732687351161       -1.43753180012578
H            3.99613548470290       -0.07192861763838       -0.05865103286346
H            3.34080242458649       -0.64582937429806       -1.44487474427201
H            1.76335420321726       -1.82626698047460        0.09375704667062
H           -2.31580179822547       -3.35621324590625       -0.60237915501303

          :  Hamiltonian                  GFN1-xTB          :
         :: total energy             -57.821356958506 Eh    ::
         :: gradient norm              0.000708164636 Eh/a0 ::
         :: HOMO-LUMO gap              0.387432758810 eV    ::
         :: SCC energy               -58.400247748197 Eh    ::
         :: -> Gsolv                  -0.094484950706 Eh    ::
         :: repulsion energy           0.598925465610 Eh    ::

    * Orbital Energies and Occupations

         #    Occupation            Energy/Eh            Energy/eV
      -------------------------------------------------------------
         1        2.0000           -0.9146026             -24.8876
       ...           ...                  ...                  ...
        35        2.0000           -0.5509528             -14.9922
        36        2.0000           -0.5482269             -14.9180
        37        2.0000           -0.5389754             -14.6663
        38        2.0000           -0.5356426             -14.5756
        39        2.0000           -0.5307962             -14.4437
        40        2.0000           -0.5277308             -14.3603
        41        2.0000           -0.5227586             -14.2250
        42        2.0000           -0.5185208             -14.1097
        43        2.0000           -0.5055458             -13.7566
        44        2.0000           -0.5025468             -13.6750
        45        2.0000           -0.4900597             -13.3352
        46        2.0000           -0.4858417             -13.2204
        47        1.9989           -0.4361474             -11.8682 (HOMO)
        48        0.0011           -0.4219095             -11.4807 (LUMO)
        49                         -0.3310936              -9.0095
        50                         -0.3044087              -8.2834
        51                         -0.2619498              -7.1280
        52                         -0.1669003              -4.5416
        53                         -0.1534990              -4.1769
        54                         -0.1494963              -4.0680
        55                         -0.1373581              -3.7377
        56                         -0.1328853              -3.6160
        57                         -0.1189206              -3.2360
        58                         -0.1076417              -2.9291
       ...                                ...                  ...
       100                          0.7479250              20.3521
      -------------------------------------------------------------
                  HL-Gap            0.0142379 Eh            0.3874 eV

Wiberg/Mayer (AO) data.
largest (>0.10) Wiberg bond orders for each atom

     #   Z sym  total        # sym  WBO       # sym  WBO       # sym  WBO
 ---------------------------------------------------------------------------
     1   6 C    3.818 --    20 H    0.981    19 H    0.978    18 H    0.975
                             2 O    0.838
     2   8 O    2.253 --     3 C    1.218     1 C    0.838     5 O    0.148
     3   6 C    3.855 --     5 O    1.743     2 O    1.218     6 C    0.711
     4   6 C    3.967 --    23 H    0.981    22 H    0.980    21 H    0.978
                             6 C    0.954
     5   8 O    2.087 --     3 C    1.743     2 O    0.148
     6   6 C    3.958 --    16 C    1.103     7 N    1.018     4 C    0.954
                             3 C    0.711
     7   7 N    3.021 --     8 C    1.675     6 C    1.018
     8   6 C    3.903 --     7 N    1.675    13 N    1.109     9 C    0.975
     9   6 C    3.960 --    12 N    0.991    11 C    0.984     8 C    0.975
                            10 C    0.971
    10   6 C    3.990 --    25 H    0.985    26 H    0.985    24 H    0.980
                             9 C    0.971
    11   6 C    3.991 --    27 H    0.984    29 H    0.984     9 C    0.984
                            28 H    0.982
    12   7 N    2.998 --     9 C    0.991    31 H    0.933    30 H    0.928
    13   7 N    3.494 --    14 C    1.211     8 C    1.109    32 H    0.838
                            15 O    0.168
    14   6 C    3.924 --    15 O    1.623    13 N    1.211    16 C    0.975
    15   8 O    1.965 --    14 C    1.623    13 N    0.168
    16   6 C    3.803 --    17 O    1.356     6 C    1.103    14 C    0.975
    17   8 O    2.276 --    16 C    1.356    33 H    0.744
    18   1 H    1.001 --     1 C    0.975
    19   1 H    1.002 --     1 C    0.978
    20   1 H    0.998 --     1 C    0.981
    21   1 H    0.995 --     4 C    0.978
    22   1 H    0.998 --     4 C    0.980
    23   1 H    0.999 --     4 C    0.981
    24   1 H    0.997 --    10 C    0.980
    25   1 H    1.000 --    10 C    0.985
    26   1 H    1.002 --    10 C    0.985
    27   1 H    1.001 --    11 C    0.984
    28   1 H    1.006 --    11 C    0.982
    29   1 H    1.000 --    11 C    0.984
    30   1 H    0.942 --    12 N    0.928
    31   1 H    0.946 --    12 N    0.933
    32   1 H    0.931 --    13 N    0.838
    33   1 H    0.790 --    17 O    0.744
 ---------------------------------------------------------------------------

           -------------------------------------------------
          | TOTAL ENERGY              -57.821356958506 Eh   |
          | GRADIENT NORM               0.000708164636 Eh/α |
          | HOMO-LUMO GAP               0.387432758810 eV   |
           -------------------------------------------------

 * finished run on 2023/06/20 at 15:06:44.602
