   * xtb version 6.5.1 (579679a) compiled by 'ehlert@majestix' on 2022-07-11
          program call               : /lustre/hpc/kemi/ree/PhD/git/ReactivityQM/dep/xtb-6.5.1/bin/xtb --gfn 1 /lustre/hpc/kemi/ree/PhD/git/ReactivityQM/calculations/R01/reac02prodE06/conf17/R01_reac02prodE06_conf17_gfn1.xyz --opt --vfukui --chrg -1 --uhf 0 --alpb DMSO

   ID    Z sym.   atoms
    1    6 C      1, 3, 5, 6, 8, 9, 12-15
    2    8 O      2, 4, 7, 10
    3    7 N      11, 16, 17
    4    1 H      18-33

      * Solvation model:               ALPB
        Solvent                        DMSO
        Solvent mass                       7.8130E+01 g/mol
          :  Hamiltonian                  GFN1-xTB          :
 * total energy  :   -58.5363678 Eh     change       -0.9428902E-11 Eh
 * total energy  :   -58.5437282 Eh     change       -0.7360318E-02 Eh
 * total energy  :   -58.5463572 Eh     change       -0.2629066E-02 Eh
 * total energy  :   -58.5467972 Eh     change       -0.4399651E-03 Eh
 * total energy  :   -58.5470221 Eh     change       -0.2249445E-03 Eh
 * total energy  :   -58.5471063 Eh     change       -0.8413350E-04 Eh
 * total energy  :   -58.5471855 Eh     change       -0.7926674E-04 Eh
 * total energy  :   -58.5472377 Eh     change       -0.5212583E-04 Eh
 * total energy  :   -58.5472936 Eh     change       -0.5590682E-04 Eh
 * total energy  :   -58.5473514 Eh     change       -0.5779922E-04 Eh
 * total energy  :   -58.5476489 Eh     change       -0.1032312E-04 Eh
 * total energy  :   -58.5476600 Eh     change       -0.1114695E-04 Eh
 * total energy  :   -58.5476685 Eh     change       -0.8429201E-05 Eh
 * total energy  :   -58.5476738 Eh     change       -0.5307528E-05 Eh
 * total energy  :   -58.5476789 Eh     change       -0.5096132E-05 Eh
 * total energy  :   -58.5476844 Eh     change       -0.5583332E-05 Eh
 * total energy  :   -58.5476906 Eh     change       -0.6133208E-05 Eh
 * total energy  :   -58.5476959 Eh     change       -0.5277678E-05 Eh
 * total energy  :   -58.5477005 Eh     change       -0.4678540E-05 Eh
   *** GEOMETRY OPTIMIZATION CONVERGED AFTER 27 ITERATIONS ***

 final structure:
================
33
 xtb: 6.5.1 (579679a)
C            3.71865993571961       -2.59128777023240        0.96734730142634
O            2.54176819071612       -1.88176731799047        0.59919399201399
C            2.69946849491376       -0.56586385750593        0.33754356539444
O            3.80919751595431       -0.03727361716546        0.41916111916765
C            1.47829052627582        0.12876402854042       -0.02919738264072
C            1.48658155826806        1.46158409679198       -0.32890144146874
O            2.60213467064650        2.20869572399361       -0.30012697752044
C            0.22503869619148        2.19546439967249       -0.87692994902736
C            0.08347816792482        3.55127971600863       -0.10889083243118
O            0.19383659914925        2.27626723082932       -2.16689281163989
N           -0.94037394958769        1.33164905298057       -0.31080760207355
C           -0.81922189154528       -0.01415965079045       -0.23444159805331
C           -2.10472924159425       -0.83531586307025       -0.23874817180173
C           -1.77140623172769       -2.32743699552766       -0.16096727638280
C           -2.97727778120736       -0.42637608476227        0.96206382789251
N           -2.82020879832860       -0.59071831285320       -1.49515313321853
N            0.29842690181254       -0.63865067734732       -0.06822115332158
H            3.42270028206332       -3.62232623548747        1.15492396259033
H            4.16027550234862       -2.16036478748299        1.87056820204551
H            4.45738373783545       -2.55684643620385        0.16101659503663
H            3.37436690314744        1.65961409514246       -0.02966434596777
H            0.04823841501379        3.38742482688478        0.96666143036743
H           -0.83287925080610        4.04135394502312       -0.43150969539202
H            0.93207408505375        4.18721882319340       -0.35574715280761
H           -1.83668649874123        1.67805593114511       -0.61837198521909
H           -1.19007243202957       -2.53454892204549        0.73758562180797
H           -2.68716670389862       -2.91655418919975       -0.13309112137727
H           -1.18497512109151       -2.62469731336531       -1.03135897176672
H           -2.45167904279023       -0.62575773386409        1.89631724751761
H           -3.90881746101454       -0.99041189298573        0.95469068254046
H           -3.21531371187473        0.63535628556211        0.91318872852852
H           -3.14414544446595        0.36912913392145       -1.51236496201382
H           -3.64696562233150       -1.17150163181006       -1.50887471220573

          :  Hamiltonian                  GFN1-xTB          :
         :: total energy             -58.547700528708 Eh    ::
         :: gradient norm              0.000390770074 Eh/a0 ::
         :: HOMO-LUMO gap              2.247747678640 eV    ::
         :: SCC energy               -59.085197208748 Eh    ::
         :: -> Gsolv                  -0.115241846938 Eh    ::
         :: repulsion energy           0.556101181846 Eh    ::

    * Orbital Energies and Occupations

         #    Occupation            Energy/Eh            Energy/eV
      -------------------------------------------------------------
         1        2.0000           -0.8087171             -22.0063
       ...           ...                  ...                  ...
        36        2.0000           -0.4750330             -12.9263
        37        2.0000           -0.4736819             -12.8895
        38        2.0000           -0.4696359             -12.7794
        39        2.0000           -0.4622228             -12.5777
        40        2.0000           -0.4563743             -12.4186
        41        2.0000           -0.4484816             -12.2038
        42        2.0000           -0.4376211             -11.9083
        43        2.0000           -0.4161633             -11.3244
        44        2.0000           -0.3931212             -10.6974
        45        2.0000           -0.3859982             -10.5035
        46        2.0000           -0.3630577              -9.8793
        47        2.0000           -0.3488611              -9.4930
        48        2.0000           -0.3459278              -9.4132 (HOMO)
        49                         -0.2633246              -7.1654 (LUMO)
        50                         -0.2146436              -5.8407
        51                         -0.1320967              -3.5945
        52                         -0.1265630              -3.4440
        53                         -0.1081522              -2.9430
        54                         -0.1057018              -2.8763
        55                         -0.0883672              -2.4046
        56                         -0.0875806              -2.3832
        57                         -0.0721328              -1.9628
        58                         -0.0638987              -1.7388
        59                         -0.0630366              -1.7153
       ...                                ...                  ...
       100                          0.6984704              19.0063
      -------------------------------------------------------------
                  HL-Gap            0.0826032 Eh            2.2477 eV

Wiberg/Mayer (AO) data.
largest (>0.10) Wiberg bond orders for each atom

     #   Z sym  total        # sym  WBO       # sym  WBO       # sym  WBO
 ---------------------------------------------------------------------------
     1   6 C    3.892 --    18 H    0.987    20 H    0.980    19 H    0.980
                             2 O    0.918
     2   8 O    2.170 --     3 C    1.067     1 C    0.918     4 O    0.106
     3   6 C    3.839 --     4 O    1.543     5 C    1.105     2 O    1.067
     4   8 O    1.897 --     3 C    1.543     2 O    0.106
     5   6 C    3.946 --     6 C    1.537     3 C    1.105    17 N    1.071
     6   6 C    3.863 --     5 C    1.537     7 O    1.106     8 C    0.900
     7   8 O    2.079 --     6 C    1.106    21 H    0.791
     8   6 C    3.924 --    10 O    1.240     9 C    0.938     6 C    0.900
                            11 N    0.779
     9   6 C    3.992 --    22 H    0.991    23 H    0.987    24 H    0.986
                             8 C    0.938
    10   8 O    1.542 --     8 C    1.240
    11   7 N    3.264 --    12 C    1.231    25 H    0.922     8 C    0.779
                            17 N    0.157
    12   6 C    3.947 --    17 N    1.594    11 N    1.231    13 C    0.968
    13   6 C    3.966 --    14 C    1.002    15 C    0.981    16 N    0.977
                            12 C    0.968
    14   6 C    3.997 --    13 C    1.002    27 H    0.987    26 H    0.985
                            28 H    0.985
    15   6 C    3.995 --    30 H    0.986    29 H    0.985    31 H    0.984
                            13 C    0.981
    16   7 N    2.951 --    13 C    0.977    33 H    0.950    32 H    0.948
    17   7 N    2.970 --    12 C    1.594     5 C    1.071    11 N    0.157
    18   1 H    1.015 --     1 C    0.987
    19   1 H    1.012 --     1 C    0.980
    20   1 H    1.012 --     1 C    0.980
    21   1 H    0.876 --     7 O    0.791
    22   1 H    1.014 --     9 C    0.991
    23   1 H    1.013 --     9 C    0.987
    24   1 H    1.016 --     9 C    0.986
    25   1 H    0.967 --    11 N    0.922
    26   1 H    1.019 --    14 C    0.985
    27   1 H    1.004 --    14 C    0.987
    28   1 H    1.018 --    14 C    0.985
    29   1 H    1.005 --    15 C    0.985
    30   1 H    1.005 --    15 C    0.986
    31   1 H    1.008 --    15 C    0.984
    32   1 H    0.967 --    16 N    0.948
    33   1 H    0.966 --    16 N    0.950
 ---------------------------------------------------------------------------

           -------------------------------------------------
          | TOTAL ENERGY              -58.547700528708 Eh   |
          | GRADIENT NORM               0.000390770074 Eh/α |
          | HOMO-LUMO GAP               2.247747678640 eV   |
           -------------------------------------------------

 * finished run on 2023/06/20 at 15:00:27.785
