   * xtb version 6.5.1 (579679a) compiled by 'ehlert@majestix' on 2022-07-11
          program call               : /lustre/hpc/kemi/ree/PhD/git/ReactivityQM/dep/xtb-6.5.1/bin/xtb --gfn 1 /lustre/hpc/kemi/ree/PhD/git/ReactivityQM/calculations/R02deprot/reac01prodN19/conf10/R02deprot_reac01prodN19_conf10_gfn1.xyz --opt --vfukui --chrg 0 --uhf 0 --alpb DMSO

   ID    Z sym.   atoms
    1    6 C      1, 3, 5, 7-10, 12, 14, 17, 18, 21, 23, 24
    2    8 O      2, 4, 13, 19, 22, 25
    3    7 N      6, 11, 15, 16, 20
    4    1 H      26-42

      * Solvation model:               ALPB
        Solvent                        DMSO
        Solvent mass                       7.8130E+01 g/mol
          :  Hamiltonian                  GFN1-xTB          :
 * total energy  :   -82.9848406 Eh     change       -0.6878054E-11 Eh
 * total energy  :   -82.9995251 Eh     change       -0.1468454E-01 Eh
 * total energy  :   -83.0054121 Eh     change       -0.5887038E-02 Eh
 * total energy  :   -83.0067997 Eh     change       -0.1387509E-02 Eh
 * total energy  :   -83.0076483 Eh     change       -0.8486908E-03 Eh
 * total energy  :   -83.0080044 Eh     change       -0.3560972E-03 Eh
 * total energy  :   -83.0082466 Eh     change       -0.2421404E-03 Eh
 * total energy  :   -83.0084520 Eh     change       -0.2053857E-03 Eh
 * total energy  :   -83.0086215 Eh     change       -0.1695223E-03 Eh
 * total energy  :   -83.0087513 Eh     change       -0.1298255E-03 Eh
 * total energy  :   -83.0094317 Eh     change       -0.1598606E-04 Eh
 * total energy  :   -83.0094389 Eh     change       -0.7259183E-05 Eh
 * total energy  :   -83.0094477 Eh     change       -0.8713008E-05 Eh
 * total energy  :   -83.0094543 Eh     change       -0.6639220E-05 Eh
 * total energy  :   -83.0094603 Eh     change       -0.6037455E-05 Eh
 * total energy  :   -83.0094673 Eh     change       -0.6953313E-05 Eh
 * total energy  :   -83.0094746 Eh     change       -0.7335503E-05 Eh
 * total energy  :   -83.0094805 Eh     change       -0.5887643E-05 Eh
 * total energy  :   -83.0094848 Eh     change       -0.4253279E-05 Eh
   *** GEOMETRY OPTIMIZATION CONVERGED AFTER 33 ITERATIONS ***

 final structure:
================
42
 xtb: 6.5.1 (579679a)
C           -2.80169477538833        4.06325399857120       -0.90067834820837
O           -2.82518203130543        2.63886253948992       -0.71275080513846
C           -1.65635558567510        2.07649252133250       -0.38237719305711
O           -0.63987262245461        2.71160375524530       -0.24507001377234
C           -1.73380141692472        0.59657326361450       -0.19514992638832
N           -0.54655305325806        0.03985024585192        0.11236305632874
C           -0.49144255651979       -1.25577603920126        0.32223749227992
C            0.83726544049425       -1.88066505437189        0.69688686621395
C            0.83110317547982       -2.15766123169441        2.20883531909047
C            1.04841421621369       -3.17518387852941       -0.09817061537205
N            1.87973095482609       -0.91146003930702        0.36700419260355
C            3.18836639690295       -1.12089251328800        0.57607863093571
O            3.67676715530925       -2.12288638542856        1.07925924639423
C            4.03764568472831        0.01040670428863        0.11560792767137
N            5.32754648421299        0.11199589322607        0.20578947297459
N            5.66940667791982        1.30336965713745       -0.36305152771154
C            4.56716486422880        1.85393529043725       -0.76635300057818
C            4.40618300853038        3.15266520677885       -1.45574597568371
O            3.49759175743060        1.08865086584919       -0.49277211218318
N           -1.54363836976945       -2.07729229056037        0.26265638581809
C           -2.72659863125865       -1.58002264426687       -0.05121541084668
O           -3.69984566749997       -2.49588112308905       -0.09568299753373
C           -5.04716882666305       -2.21388904333518       -0.46453043680883
C           -2.87890458310888       -0.18537570724653       -0.30043272950624
O           -4.09751023438605        0.29042785542143       -0.61097042396250
H           -2.51413177743494        4.55335280669014        0.03191454944558
H           -3.80732295130660        4.35618590016545       -1.19072668644970
H           -2.08635647974996        4.31935888989970       -1.68494897253272
H           -0.01336728447588       -2.80120048019374        2.45019304990423
H            1.75420110625114       -2.65263784894564        2.50569978951445
H            0.73413581540713       -1.22150486915818        2.75650710253187
H            1.96698313087200       -3.66771848442443        0.21593776291321
H            0.20588432600163       -3.84246505903165        0.07701558348606
H            1.10755754533012       -2.95111837674570       -1.16222082662876
H            1.56520844323633       -0.03579456195160       -0.03200803168901
H            3.88740800432402        3.00896905788062       -2.40295324768879
H            3.80998259432846        3.82982261086181       -0.84433194532062
H            5.38359251488122        3.59297055672478       -1.63712787766323
H           -5.10000881398011       -1.79891743743669       -1.47322498339355
H           -5.56539329155466       -3.17372135235225       -0.43779997070923
H           -5.51441831933033       -1.52742811865982        0.24465547322685
H           -4.09257102486729        1.25074591975749       -0.77009184250483

          :  Hamiltonian                  GFN1-xTB          :
         :: total energy             -83.009484760524 Eh    ::
         :: gradient norm              0.000349220273 Eh/a0 ::
         :: HOMO-LUMO gap              2.873090313718 eV    ::
         :: SCC energy               -83.784581273440 Eh    ::
         :: -> Gsolv                  -0.054092176438 Eh    ::
         :: repulsion energy           0.800010024749 Eh    ::

    * Orbital Energies and Occupations

         #    Occupation            Energy/Eh            Energy/eV
      -------------------------------------------------------------
         1        2.0000           -0.8622452             -23.4629
       ...           ...                  ...                  ...
        55        2.0000           -0.4991741             -13.5832
        56        2.0000           -0.4983183             -13.5599
        57        2.0000           -0.4967861             -13.5182
        58        2.0000           -0.4806180             -13.0783
        59        2.0000           -0.4772736             -12.9873
        60        2.0000           -0.4713097             -12.8250
        61        2.0000           -0.4690324             -12.7630
        62        2.0000           -0.4593136             -12.4986
        63        2.0000           -0.4561355             -12.4121
        64        2.0000           -0.4479789             -12.1901
        65        2.0000           -0.4430765             -12.0567
        66        2.0000           -0.4328385             -11.7781
        67        2.0000           -0.4290268             -11.6744 (HOMO)
        68                         -0.3234427              -8.8013 (LUMO)
        69                         -0.3056269              -8.3165
        70                         -0.2817375              -7.6665
        71                         -0.2543370              -6.9209
        72                         -0.2389044              -6.5009
        73                         -0.1938490              -5.2749
        74                         -0.1558533              -4.2410
        75                         -0.1412130              -3.8426
        76                         -0.1356355              -3.6908
        77                         -0.1342283              -3.6525
        78                         -0.1197905              -3.2597
       ...                                ...                  ...
       134                          0.7279210              19.8077
      -------------------------------------------------------------
                  HL-Gap            0.1055841 Eh            2.8731 eV

Wiberg/Mayer (AO) data.
largest (>0.10) Wiberg bond orders for each atom

     #   Z sym  total        # sym  WBO       # sym  WBO       # sym  WBO
 ---------------------------------------------------------------------------
     1   6 C    3.858 --    27 H    0.986    26 H    0.980    28 H    0.980
                             2 O    0.882
     2   8 O    2.209 --     3 C    1.094     1 C    0.882     4 O    0.132
     3   6 C    3.845 --     4 O    1.679     2 O    1.094     5 C    0.995
     4   8 O    1.941 --     3 C    1.679     2 O    0.132
     5   6 C    3.967 --    24 C    1.396     6 N    1.294     3 C    0.995
     6   7 N    3.049 --     7 C    1.454     5 C    1.294
     7   6 C    3.946 --     6 N    1.454    20 N    1.329     8 C    0.983
     8   6 C    3.936 --    10 C    0.985     7 C    0.983     9 C    0.974
                            11 N    0.930
     9   6 C    3.989 --    31 H    0.986    29 H    0.986    30 H    0.980
                             8 C    0.974
    10   6 C    3.990 --    34 H    0.986     8 C    0.985    33 H    0.984
                            32 H    0.982
    11   7 N    3.369 --    12 C    1.282     8 C    0.930    35 H    0.879
                            13 O    0.181
    12   6 C    3.920 --    13 O    1.569    11 N    1.282    14 C    0.988
    13   8 O    1.888 --    12 C    1.569    11 N    0.181
    14   6 C    3.871 --    15 N    1.624    19 O    1.049    12 C    0.988
    15   7 N    2.997 --    14 C    1.624    16 N    1.195
    16   7 N    2.981 --    17 C    1.613    15 N    1.195
    17   6 C    3.870 --    16 N    1.613    19 O    1.073    18 C    1.031
    18   6 C    3.987 --    17 C    1.031    38 H    0.983    36 H    0.965
                            37 H    0.962
    19   8 O    2.317 --    17 C    1.073    14 C    1.049
    20   7 N    3.019 --    21 C    1.399     7 C    1.329
    21   6 C    3.907 --    20 N    1.399    24 C    1.213    22 O    1.090
    22   8 O    2.187 --    21 C    1.090    23 C    0.900
    23   6 C    3.872 --    40 H    0.984    39 H    0.980    41 H    0.979
                            22 O    0.900
    24   6 C    3.922 --     5 C    1.396    21 C    1.213    25 O    1.082
    25   8 O    2.067 --    24 C    1.082    42 H    0.792
    26   1 H    1.006 --     1 C    0.980
    27   1 H    1.008 --     1 C    0.986
    28   1 H    1.006 --     1 C    0.980
    29   1 H    1.005 --     9 C    0.986
    30   1 H    1.010 --     9 C    0.980
    31   1 H    1.003 --     9 C    0.986
    32   1 H    1.010 --    10 C    0.982
    33   1 H    1.013 --    10 C    0.984
    34   1 H    1.003 --    10 C    0.986
    35   1 H    0.958 --    11 N    0.879
    36   1 H    0.997 --    18 C    0.965
    37   1 H    0.997 --    18 C    0.962
    38   1 H    0.999 --    18 C    0.983
    39   1 H    1.012 --    23 C    0.980
    40   1 H    1.012 --    23 C    0.984
    41   1 H    1.013 --    23 C    0.979
    42   1 H    0.847 --    25 O    0.792
 ---------------------------------------------------------------------------

           -------------------------------------------------
          | TOTAL ENERGY              -83.009484760524 Eh   |
          | GRADIENT NORM               0.000349220273 Eh/α |
          | HOMO-LUMO GAP               2.873090313718 eV   |
           -------------------------------------------------

 * finished run on 2023/06/20 at 18:31:01.834
