   * xtb version 6.5.1 (579679a) compiled by 'ehlert@majestix' on 2022-07-11
          program call               : /lustre/hpc/kemi/ree/PhD/git/ReactivityQM/dep/xtb-6.5.1/bin/xtb --gfn 1 /lustre/hpc/kemi/ree/PhD/git/ReactivityQM/calculations/R01/reac01prodN05/conf11/R01_reac01prodN05_conf11_gfn1.xyz --opt --vfukui --chrg 1 --uhf 0 --alpb DMSO

   ID    Z sym.   atoms
    1    6 C      1, 3, 4, 6, 9, 10
    2    8 O      2, 5, 11
    3    7 N      7, 8
    4    1 H      12-20

      * Solvation model:               ALPB
        Solvent                        DMSO
        Solvent mass                       7.8130E+01 g/mol
          :  Hamiltonian                  GFN1-xTB          :
 * total energy  :   -37.4543410 Eh     change       -0.3836931E-11 Eh
 * total energy  :   -37.4696716 Eh     change       -0.1533063E-01 Eh
 * total energy  :   -37.4800533 Eh     change       -0.1038170E-01 Eh
 * total energy  :   -37.4853751 Eh     change       -0.5321749E-02 Eh
 * total energy  :   -37.4997359 Eh     change       -0.1436080E-01 Eh
 * total energy  :   -37.5177651 Eh     change       -0.1802923E-01 Eh
 * total energy  :   -37.5507319 Eh     change       -0.3296677E-01 Eh
 * total energy  :   -37.5736070 Eh     change       -0.2287510E-01 Eh
 * total energy  :   -37.5741082 Eh     change       -0.5012650E-03 Eh
 * total energy  :   -37.5914726 Eh     change       -0.1736441E-01 Eh
 * total energy  :   -37.6286261 Eh     change       -0.2674145E-04 Eh
 * total energy  :   -37.6286417 Eh     change       -0.1559563E-04 Eh
 * total energy  :   -37.6286544 Eh     change       -0.1270692E-04 Eh
 * total energy  :   -37.6286648 Eh     change       -0.1040465E-04 Eh
 * total energy  :   -37.6286722 Eh     change       -0.7392497E-05 Eh
 * total energy  :   -37.6286720 Eh     change        0.1870661E-06 Eh
 * total energy  :   -37.6286789 Eh     change       -0.6961022E-05 Eh
 * total energy  :   -37.6286838 Eh     change       -0.4879796E-05 Eh
 * total energy  :   -37.6286887 Eh     change       -0.4881233E-05 Eh
   *** GEOMETRY OPTIMIZATION CONVERGED AFTER 62 ITERATIONS ***

 final structure:
================
20
 xtb: 6.5.1 (579679a)
C           -3.50718587018280        1.05866517472703       -0.26218436103913
O           -2.82855505305628       -0.19073365953950       -0.51956313838546
C           -1.57398887551644       -0.31893513763134       -0.39501349413800
C           -0.96962791078907       -1.62860153348137       -0.68099515531142
O           -0.90344866666605        0.73318224887219       -0.01885579477861
C            0.42889994571491        0.84227578084962        0.18389275146062
N            1.01294131869449        1.91945127634334        0.57465594377681
N            2.33678391204410        1.60613457736683        0.65062018978675
C            2.46513966048727        0.36651907943795        0.30215432421979
C            3.69659032913025       -0.44211296994286        0.22420405155591
O            1.26467309851779       -0.18558403228029       -0.01163032213269
H           -3.19942466948464        1.78724277828750       -1.01181677219112
H           -4.56809258087220        0.83660094617131       -0.34115369422643
H           -3.24643220617128        1.41135053802559        0.73468100155748
H           -0.22579866835570       -1.52067655004314       -1.47263154544703
H           -0.44095407285993       -1.98661270409692        0.20442676786733
H           -1.74121969888760       -2.33648863215367       -0.97630534101849
H            3.66454770683164       -1.23733999600389        0.96953219639463
H            4.56191373002872        0.19227104697137        0.40431157808261
H            3.77323857139293       -0.90660723187971       -0.75828018603300

          :  Hamiltonian                  GFN1-xTB          :
         :: total energy             -37.628688693531 Eh    ::
         :: gradient norm              0.000909173077 Eh/a0 ::
         :: HOMO-LUMO gap              2.886928213130 eV    ::
         :: SCC energy               -37.975696417805 Eh    ::
         :: -> Gsolv                  -0.083959922633 Eh    ::
         :: repulsion energy           0.355020851379 Eh    ::

    * Orbital Energies and Occupations

         #    Occupation            Energy/Eh            Energy/eV
      -------------------------------------------------------------
         1        2.0000           -0.9497747             -25.8447
       ...           ...                  ...                  ...
        18        2.0000           -0.6239214             -16.9778
        19        2.0000           -0.5971568             -16.2495
        20        2.0000           -0.5937940             -16.1580
        21        2.0000           -0.5801422             -15.7865
        22        2.0000           -0.5685187             -15.4702
        23        2.0000           -0.5651103             -15.3774
        24        2.0000           -0.5614661             -15.2783
        25        2.0000           -0.5574260             -15.1683
        26        2.0000           -0.5504845             -14.9794
        27        2.0000           -0.5409957             -14.7212
        28        2.0000           -0.5163699             -14.0511
        29        2.0000           -0.4914009             -13.3717
        30        2.0000           -0.4847552             -13.1909 (HOMO)
        31                         -0.3786625             -10.3039 (LUMO)
        32                         -0.2948410              -8.0230
        33                         -0.2788657              -7.5883
        34                         -0.1798865              -4.8950
        35                         -0.1662975              -4.5252
        36                         -0.1544125              -4.2018
        37                         -0.1110813              -3.0227
        38                         -0.1086903              -2.9576
        39                         -0.1045516              -2.8450
        40                         -0.1036022              -2.8192
        41                         -0.0856913              -2.3318
       ...                                ...                  ...
        62                          0.5660432              15.4028
      -------------------------------------------------------------
                  HL-Gap            0.1060927 Eh            2.8869 eV

Wiberg/Mayer (AO) data.
largest (>0.10) Wiberg bond orders for each atom

     #   Z sym  total        # sym  WBO       # sym  WBO       # sym  WBO
 ---------------------------------------------------------------------------
     1   6 C    3.802 --    13 H    0.980    14 H    0.971    12 H    0.968
                             2 O    0.833
     2   8 O    2.349 --     3 C    1.344     1 C    0.833
     3   6 C    3.764 --     2 O    1.344     5 O    1.180     4 C    1.048
     4   6 C    3.958 --     3 C    1.048    17 H    0.972    16 H    0.927
                            15 H    0.927
     5   8 O    2.361 --     3 C    1.180     6 C    0.966
     6   6 C    3.814 --     7 N    1.608    11 O    1.063     5 O    0.966
     7   7 N    3.007 --     6 C    1.608     8 N    1.181
     8   7 N    2.983 --     9 C    1.630     7 N    1.181
     9   6 C    3.839 --     8 N    1.630    10 C    1.037    11 O    1.026
    10   6 C    3.978 --     9 C    1.037    19 H    0.979    20 H    0.960
                            18 H    0.954
    11   8 O    2.308 --     6 C    1.063     9 C    1.026
    12   1 H    0.993 --     1 C    0.968
    13   1 H    0.998 --     1 C    0.980
    14   1 H    0.994 --     1 C    0.971
    15   1 H    0.987 --     4 C    0.927
    16   1 H    0.987 --     4 C    0.927
    17   1 H    0.986 --     4 C    0.972
    18   1 H    0.992 --    10 C    0.954
    19   1 H    0.994 --    10 C    0.979
    20   1 H    0.992 --    10 C    0.960
 ---------------------------------------------------------------------------

           -------------------------------------------------
          | TOTAL ENERGY              -37.628688693531 Eh   |
          | GRADIENT NORM               0.000909173077 Eh/α |
          | HOMO-LUMO GAP               2.886928213130 eV   |
           -------------------------------------------------

 * finished run on 2023/06/20 at 14:56:05.240
