   * xtb version 6.5.1 (579679a) compiled by 'ehlert@majestix' on 2022-07-11
          program call               : /lustre/hpc/kemi/ree/PhD/git/ReactivityQM/dep/xtb-6.5.1/bin/xtb --gfn 1 /lustre/hpc/kemi/ree/PhD/git/ReactivityQM/calculations/R02methylcation/reac01prodE06/conf09/R02methylcation_reac01prodE06_conf09_gfn1.xyz --opt --vfukui --chrg -2 --uhf 0 --alpb DMSO

   ID    Z sym.   atoms
    1    6 C      1, 3, 5, 6, 8, 11-15, 17, 19, 22, 23
    2    8 O      2, 4, 7, 9, 18, 24
    3    7 N      10, 16, 20, 21, 25
    4    1 H      26-42

      * Solvation model:               ALPB
        Solvent                        DMSO
        Solvent mass                       7.8130E+01 g/mol
          :  Hamiltonian                  GFN1-xTB          :
 * total energy  :   -83.6064219 Eh     change       -0.3410605E-12 Eh
 * total energy  :   -83.6170610 Eh     change       -0.1063905E-01 Eh
 * total energy  :   -83.6204154 Eh     change       -0.3354395E-02 Eh
 * total energy  :   -83.6210077 Eh     change       -0.5923427E-03 Eh
 * total energy  :   -83.6215173 Eh     change       -0.5096477E-03 Eh
 * total energy  :   -83.6218612 Eh     change       -0.3438726E-03 Eh
 * total energy  :   -83.6222075 Eh     change       -0.3462523E-03 Eh
 * total energy  :   -83.6225398 Eh     change       -0.3323620E-03 Eh
 * total energy  :   -83.6227890 Eh     change       -0.2492083E-03 Eh
 * total energy  :   -83.6229719 Eh     change       -0.1829075E-03 Eh
 * total energy  :   -83.6240168 Eh     change       -0.1367021E-04 Eh
 * total energy  :   -83.6240453 Eh     change       -0.2850042E-04 Eh
 * total energy  :   -83.6240321 Eh     change        0.1320613E-04 Eh
 * total energy  :   -83.6240558 Eh     change       -0.2375179E-04 Eh
 * total energy  :   -83.6240688 Eh     change       -0.1295661E-04 Eh
 * total energy  :   -83.6240788 Eh     change       -0.1003727E-04 Eh
 * total energy  :   -83.6240883 Eh     change       -0.9487429E-05 Eh
 * total energy  :   -83.6240948 Eh     change       -0.6437042E-05 Eh
 * total energy  :   -83.6240974 Eh     change       -0.2652839E-05 Eh
   *** GEOMETRY OPTIMIZATION CONVERGED AFTER 38 ITERATIONS ***

 final structure:
================
42
 xtb: 6.5.1 (579679a)
C           -1.44136012603426        3.67013584085427        1.33734692443006
O           -1.41773776316993        2.35760925539675        0.81138470548057
C           -2.65715423052634        1.80266537867218        0.54523399052383
O           -3.66753988173906        2.45986375356900        0.78678197785552
C           -2.56547984508730        0.45336168625614        0.01198809044376
C           -3.75927537932814       -0.28752265195529       -0.24534143316615
O           -4.94061246204802        0.17450112047279       -0.19951438553457
C           -3.55964278140123       -1.73729112200033       -0.53393683062228
O           -4.47761607481295       -2.56331941058278       -0.65480021556917
N           -2.25770426233195       -2.18630830863617       -0.55507724456565
C           -1.13652057485433       -1.28726003716077       -0.79604127558514
C           -0.98113687189147       -1.08587755991671       -2.32966347215250
C            0.16085367877155       -1.92417556558785       -0.18411644962517
C           -0.09682514020182       -2.23374043439392        1.29911803335413
C            0.61045049492854       -3.19077778206435       -0.92111519075768
N            1.18173110933615       -0.88537771856846       -0.30099405814700
C            2.47326818849693       -1.03080804382647        0.10735449742000
O            2.96905614772728       -2.10383878883708        0.49829523277774
C            3.26478273323612        0.18325621240216       -0.00082249653271
N            4.53386310609181        0.34415888265137        0.33735469261236
N            4.85293925278652        1.64185556341119        0.04968521253274
C            3.79089502599059        2.19877669724315       -0.43686920157916
C            3.65286332222560        3.59772540800872       -0.90881280614065
O            2.74136974725077        1.35033512275924       -0.50005564320181
N           -1.29816783662531       -0.01691255196108       -0.15894488166884
H           -0.40856543229059        3.96216624687923        1.52822635906011
H           -1.89151976707787        4.37280332346070        0.62634049167374
H           -2.00963305674629        3.71333380877586        2.27403296052762
H           -2.15016661504682       -3.12264628098086       -0.91286070602272
H           -1.82270296807544       -0.50134301532585       -2.70027498040631
H           -0.05918191514538       -0.54651565054907       -2.53841703354188
H           -0.96541851739825       -2.04238643211572       -2.84828512299676
H            0.81051007096887       -2.60147345893717        1.77641654963879
H           -0.87346146606382       -2.99309022331587        1.38759054829184
H           -0.42839651646466       -1.32710488248219        1.80790909738045
H           -0.21968149235316       -3.88942828675727       -1.01368059151686
H            0.97790983141283       -2.94839718560380       -1.91715183789039
H            1.41115974620497       -3.68639073848068       -0.37299251776525
H            0.80233847149621        0.05810408751061       -0.36103987356325
H            3.24021526761253        3.61654439142097       -1.91748227654628
H            2.98183678354242        4.15838733499470       -0.25664438592581
H            4.62946099867421        4.07640401530800       -0.90769545299521

          :  Hamiltonian                  GFN1-xTB          :
         :: total energy             -83.624097411139 Eh    ::
         :: gradient norm              0.000579821805 Eh/a0 ::
         :: HOMO-LUMO gap              0.086492917863 eV    ::
         :: SCC energy               -84.345473950678 Eh    ::
         :: -> Gsolv                  -0.268789210137 Eh    ::
         :: repulsion energy           0.748894915662 Eh    ::

    * Orbital Energies and Occupations

         #    Occupation            Energy/Eh            Energy/eV
      -------------------------------------------------------------
         1        2.0000           -0.8183615             -22.2688
       ...           ...                  ...                  ...
        56        2.0000           -0.4422696             -12.0348
        57        2.0000           -0.4395187             -11.9599
        58        2.0000           -0.4200824             -11.4310
        59        2.0000           -0.4163325             -11.3290
        60        2.0000           -0.4122884             -11.2189
        61        2.0000           -0.4084563             -11.1147
        62        2.0000           -0.4034323             -10.9780
        63        2.0000           -0.3969058             -10.8004
        64        2.0000           -0.3912175             -10.6456
        65        2.0000           -0.3789512             -10.3118
        66        2.0000           -0.3663478              -9.9688
        67        2.0000           -0.3338524              -9.0846
        68        1.6839           -0.2749943              -7.4830 (HOMO)
        69        0.3161           -0.2718158              -7.3965 (LUMO)
        70                         -0.2372716              -6.4565
        71                         -0.2218030              -6.0356
        72                         -0.1634762              -4.4484
        73                         -0.1517942              -4.1305
        74                         -0.1289816              -3.5098
        75                         -0.1108372              -3.0160
        76                         -0.1052040              -2.8627
        77                         -0.0963480              -2.6218
        78                         -0.0850015              -2.3130
        79                         -0.0805266              -2.1912
       ...                                ...                  ...
       134                          0.7563855              20.5823
      -------------------------------------------------------------
                  HL-Gap            0.0031786 Eh            0.0865 eV

Wiberg/Mayer (AO) data.
largest (>0.10) Wiberg bond orders for each atom

     #   Z sym  total        # sym  WBO       # sym  WBO       # sym  WBO
 ---------------------------------------------------------------------------
     1   6 C    3.913 --    26 H    0.987    27 H    0.980    28 H    0.980
                             2 O    0.942
     2   8 O    2.118 --     3 C    0.994     1 C    0.942     4 O    0.100
     3   6 C    3.814 --     4 O    1.559     5 C    1.120     2 O    0.994
     4   8 O    1.832 --     3 C    1.559     2 O    0.100
     5   6 C    3.910 --    25 N    1.272     6 C    1.227     3 C    1.120
     6   6 C    3.874 --     7 O    1.416     5 C    1.227     8 C    1.010
     7   8 O    1.661 --     6 C    1.416
     8   6 C    3.859 --     9 O    1.528    10 N    1.154     6 C    1.010
     9   8 O    1.796 --     8 C    1.528    10 N    0.127
    10   7 N    3.249 --     8 C    1.154    11 C    0.929    29 H    0.917
                             9 O    0.127
    11   6 C    3.942 --    25 N    1.027    12 C    0.961    13 C    0.943
                            10 N    0.929
    12   6 C    3.976 --    32 H    0.986    30 H    0.985    31 H    0.985
                            11 C    0.961
    13   6 C    3.934 --    15 C    0.999    14 C    0.990    11 C    0.943
                            16 N    0.938
    14   6 C    3.992 --    13 C    0.990    33 H    0.985    34 H    0.985
                            35 H    0.982
    15   6 C    3.994 --    13 C    0.999    37 H    0.985    36 H    0.983
                            38 H    0.980
    16   7 N    3.273 --    17 C    1.200    13 C    0.938    39 H    0.889
                            18 O    0.144
    17   6 C    3.829 --    18 O    1.467    16 N    1.200    19 C    1.078
    18   8 O    1.746 --    17 C    1.467    16 N    0.144
    19   6 C    3.738 --    20 N    1.478    17 C    1.078    24 O    0.996
    20   7 N    2.809 --    19 C    1.478    21 N    1.189
    21   7 N    2.980 --    22 C    1.624    20 N    1.189
    22   6 C    3.831 --    21 N    1.624    24 O    1.055    23 C    1.026
    23   6 C    3.993 --    22 C    1.026    42 H    0.985    40 H    0.972
                            41 H    0.967
    24   8 O    2.227 --    22 C    1.055    19 C    0.996
    25   7 N    2.669 --     5 C    1.272    11 C    1.027
    26   1 H    1.019 --     1 C    0.987
    27   1 H    1.017 --     1 C    0.980
    28   1 H    1.018 --     1 C    0.980
    29   1 H    0.970 --    10 N    0.917
    30   1 H    1.011 --    12 C    0.985
    31   1 H    1.014 --    12 C    0.985
    32   1 H    1.007 --    12 C    0.986
    33   1 H    1.014 --    14 C    0.985
    34   1 H    1.014 --    14 C    0.985
    35   1 H    1.023 --    14 C    0.982
    36   1 H    1.005 --    15 C    0.983
    37   1 H    1.008 --    15 C    0.985
    38   1 H    1.021 --    15 C    0.980
    39   1 H    0.989 --    16 N    0.889
    40   1 H    1.000 --    23 C    0.972
    41   1 H    1.000 --    23 C    0.967
    42   1 H    1.003 --    23 C    0.985
 ---------------------------------------------------------------------------

           -------------------------------------------------
          | TOTAL ENERGY              -83.624097411139 Eh   |
          | GRADIENT NORM               0.000579821805 Eh/α |
          | HOMO-LUMO GAP               0.086492917863 eV   |
           -------------------------------------------------

 * finished run on 2023/06/21 at 17:15:16.221
