   * xtb version 6.5.1 (579679a) compiled by 'ehlert@majestix' on 2022-07-11
          program call               : /lustre/hpc/kemi/ree/PhD/git/ReactivityQM/dep/xtb-6.5.1/bin/xtb --gfn 1 /lustre/hpc/kemi/ree/PhD/git/ReactivityQM/calculations/R02oxygendeprot/reac01prodN07/conf17/R02oxygendeprot_reac01prodN07_conf17_gfn1.xyz --opt --vfukui --chrg 0 --uhf 0 --alpb DMSO

   ID    Z sym.   atoms
    1    6 C      1, 3, 5, 7-10, 12, 14, 17-19, 22, 24
    2    8 O      2, 4, 13, 20, 23, 25
    3    7 N      6, 11, 15, 16, 21
    4    1 H      26-42

      * Solvation model:               ALPB
        Solvent                        DMSO
        Solvent mass                       7.8130E+01 g/mol
          :  Hamiltonian                  GFN1-xTB          :
 * total energy  :   -82.9499488 Eh     change       -0.3031886E-09 Eh
 * total energy  :   -82.9669150 Eh     change       -0.1696622E-01 Eh
 * total energy  :   -82.9736895 Eh     change       -0.6774524E-02 Eh
 * total energy  :   -82.9749372 Eh     change       -0.1247705E-02 Eh
 * total energy  :   -82.9758603 Eh     change       -0.9231207E-03 Eh
 * total energy  :   -82.9762365 Eh     change       -0.3761567E-03 Eh
 * total energy  :   -82.9765283 Eh     change       -0.2917981E-03 Eh
 * total energy  :   -82.9766891 Eh     change       -0.1608456E-03 Eh
 * total energy  :   -82.9767932 Eh     change       -0.1040565E-03 Eh
 * total energy  :   -82.9768816 Eh     change       -0.8839276E-04 Eh
 * total energy  :   -82.9774057 Eh     change       -0.2103425E-04 Eh
 * total energy  :   -82.9774249 Eh     change       -0.1917741E-04 Eh
 * total energy  :   -82.9774385 Eh     change       -0.1368880E-04 Eh
 * total energy  :   -82.9774544 Eh     change       -0.1583817E-04 Eh
 * total energy  :   -82.9774603 Eh     change       -0.5874429E-05 Eh
 * total energy  :   -82.9774721 Eh     change       -0.1189172E-04 Eh
 * total energy  :   -82.9774785 Eh     change       -0.6313471E-05 Eh
 * total energy  :   -82.9774846 Eh     change       -0.6113173E-05 Eh
 * total energy  :   -82.9774893 Eh     change       -0.4697679E-05 Eh
   *** GEOMETRY OPTIMIZATION CONVERGED AFTER 28 ITERATIONS ***

 final structure:
================
42
 xtb: 6.5.1 (579679a)
C           -6.24657403577158       -1.25122295728605        1.44194344599726
O           -5.00629776007285       -0.65295535579011        1.08887395587700
C           -5.00561417893420        0.06647835520425       -0.07384638818675
O           -6.02376809215686        0.16561203422021       -0.73872609758468
C           -3.70588054010760        0.65177203418854       -0.36459659251288
N           -2.71527229563269        0.37520044321439        0.55804839895859
C           -1.53683829192527        0.84913591274408        0.40857416888523
C           -0.45671458410526        0.57393513135820        1.43121932145098
C           -0.17184002212668        1.84865206698028        2.23681900882079
C           -0.87809164630377       -0.58104617806891        2.34171714164234
N            0.76020655123927        0.18743298031972        0.68274012884012
C            1.93220499705137       -0.08663793175754        1.26165000650072
O            2.19973111081328       -0.06856306405423        2.44423883269890
C            2.97002644681421       -0.44104867724748        0.22517517573411
N            2.81124360606648       -0.50302825132860       -1.06339097158606
N            4.01970203248958       -0.84752756776945       -1.54549275949382
C            4.21593688390193       -1.01576290962367       -2.97019818524142
C            4.87492742455175       -0.98744355853071       -0.55363126639491
C            6.29804884911746       -1.35784991466049       -0.60738718194845
O            4.23642005966786       -0.73640013124062        0.56925149180607
N           -1.20180736399681        1.66407840628224       -0.65746019069447
C           -2.07821837255819        2.00069002727044       -1.66209058741366
O           -1.69540928287087        2.70828697891432       -2.58839572276025
C           -3.48153501217523        1.45147795002552       -1.51826534897347
O           -4.32049026678038        1.72940084355892       -2.39049258334400
H           -6.08850684774675       -1.77911723610471        2.38144981170962
H           -6.56951900437280       -1.95827555180558        0.67059123865283
H           -7.02203468141030       -0.48891982022846        1.57170783834345
H           -1.08711736141545        2.16982495636373        2.73255727634655
H            0.59204487032194        1.66346779645514        2.98911209982827
H            0.16925134259196        2.64010258091915        1.57216817233683
H           -1.82113128140264       -0.32722381490013        2.82415078488676
H           -1.01815817159875       -1.48490210332939        1.75105204314926
H           -0.12139228241930       -0.76194290841092        3.10186203742462
H            0.69213004133407        0.09343043135846       -0.31780568803682
H            5.14784694549514       -0.53223575359716       -3.25437101138843
H            3.37188435359462       -0.55960455470600       -3.48192325375070
H            4.26752516090844       -2.08004219072822       -3.19669185819818
H            6.72954356361274       -1.29683310746104        0.38978350068380
H            6.40023085429223       -2.37500766804243       -0.98955595876190
H            6.83177747019867       -0.69220089703343       -1.28653650345149
H           -0.26847018819618        2.02681217437249       -0.73479373081113

          :  Hamiltonian                  GFN1-xTB          :
         :: total energy             -82.977489270241 Eh    ::
         :: gradient norm              0.000741529984 Eh/a0 ::
         :: HOMO-LUMO gap              0.445466519285 eV    ::
         :: SCC energy               -83.767476141144 Eh    ::
         :: -> Gsolv                  -0.133360579578 Eh    ::
         :: repulsion energy           0.814952840405 Eh    ::

    * Orbital Energies and Occupations

         #    Occupation            Energy/Eh            Energy/eV
      -------------------------------------------------------------
         1        2.0000           -0.9350243             -25.4433
       ...           ...                  ...                  ...
        55        2.0000           -0.5077251             -13.8159
        56        2.0000           -0.5032502             -13.6941
        57        2.0000           -0.4986557             -13.5691
        58        2.0000           -0.4897578             -13.3270
        59        2.0000           -0.4811591             -13.0930
        60        2.0000           -0.4681287             -12.7384
        61        2.0000           -0.4670297             -12.7085
        62        2.0000           -0.4618733             -12.5682
        63        2.0000           -0.4468232             -12.1587
        64        2.0000           -0.4412773             -12.0078
        65        2.0000           -0.4243354             -11.5468
        66        2.0000           -0.3832230             -10.4280
        67        1.9996           -0.3716931             -10.1143 (HOMO)
        68        0.0004           -0.3553226              -9.6688 (LUMO)
        69                         -0.3421533              -9.3105
        70                         -0.2753952              -7.4939
        71                         -0.2477186              -6.7408
        72                         -0.2369531              -6.4478
        73                         -0.2014325              -5.4813
        74                         -0.1835267              -4.9940
        75                         -0.1707356              -4.6460
        76                         -0.1273032              -3.4641
        77                         -0.1249140              -3.3991
        78                         -0.1239649              -3.3733
       ...                                ...                  ...
       134                          0.7648092              20.8115
      -------------------------------------------------------------
                  HL-Gap            0.0163706 Eh            0.4455 eV

Wiberg/Mayer (AO) data.
largest (>0.10) Wiberg bond orders for each atom

     #   Z sym  total        # sym  WBO       # sym  WBO       # sym  WBO
 ---------------------------------------------------------------------------
     1   6 C    3.897 --    26 H    0.987    27 H    0.981    28 H    0.980
                             2 O    0.925
     2   8 O    2.139 --     3 C    1.029     1 C    0.925     4 O    0.110
     3   6 C    3.850 --     4 O    1.598     5 C    1.113     2 O    1.029
     4   8 O    1.872 --     3 C    1.598     2 O    0.110
     5   6 C    3.914 --    24 C    1.263     6 N    1.158     3 C    1.113
                            25 O    0.129
     6   7 N    3.033 --     7 C    1.635     5 C    1.158
     7   6 C    3.934 --     6 N    1.635    21 N    1.085     8 C    0.979
     8   6 C    3.913 --    10 C    0.993     9 C    0.982     7 C    0.979
                            11 N    0.893
     9   6 C    3.988 --    31 H    0.984    29 H    0.984     8 C    0.982
                            30 H    0.980
    10   6 C    3.990 --     8 C    0.993    33 H    0.985    34 H    0.984
                            32 H    0.982
    11   7 N    3.385 --    12 C    1.302     8 C    0.893    35 H    0.893
                            13 O    0.202
    12   6 C    3.927 --    13 O    1.605    11 N    1.302    14 C    0.949
    13   8 O    1.935 --    12 C    1.605    11 N    0.202
    14   6 C    3.836 --    15 N    1.607    20 O    1.066    12 C    0.949
    15   7 N    2.990 --    14 C    1.607    16 N    1.149
    16   7 N    3.631 --    18 C    1.423    15 N    1.149    17 C    0.910
    17   6 C    3.885 --    37 H    0.977    36 H    0.973    38 H    0.965
                            16 N    0.910
    18   6 C    3.844 --    16 N    1.423    20 O    1.156    19 C    1.041
    19   6 C    3.962 --    18 C    1.041    39 H    0.973    41 H    0.949
                            40 H    0.943
    20   8 O    2.389 --    18 C    1.156    14 C    1.066
    21   7 N    3.416 --    22 C    1.150     7 C    1.085    42 H    0.898
                            23 O    0.134
    22   6 C    3.874 --    23 O    1.588    21 N    1.150    24 C    0.965
    23   8 O    1.866 --    22 C    1.588    21 N    0.134
    24   6 C    3.942 --    25 O    1.533     5 C    1.263    22 C    0.965
    25   8 O    1.836 --    24 C    1.533     5 C    0.129
    26   1 H    1.016 --     1 C    0.987
    27   1 H    1.013 --     1 C    0.981
    28   1 H    1.013 --     1 C    0.980
    29   1 H    1.002 --     9 C    0.984
    30   1 H    1.007 --     9 C    0.980
    31   1 H    1.002 --     9 C    0.984
    32   1 H    1.013 --    10 C    0.982
    33   1 H    1.007 --    10 C    0.985
    34   1 H    1.007 --    10 C    0.984
    35   1 H    0.942 --    11 N    0.893
    36   1 H    0.990 --    17 C    0.973
    37   1 H    0.992 --    17 C    0.977
    38   1 H    0.989 --    17 C    0.965
    39   1 H    0.986 --    19 C    0.973
    40   1 H    0.986 --    19 C    0.943
    41   1 H    0.986 --    19 C    0.949
    42   1 H    0.944 --    21 N    0.898
 ---------------------------------------------------------------------------

           -------------------------------------------------
          | TOTAL ENERGY              -82.977489270241 Eh   |
          | GRADIENT NORM               0.000741529984 Eh/α |
          | HOMO-LUMO GAP               0.445466519285 eV   |
           -------------------------------------------------

 * finished run on 2023/06/21 at 17:23:00.284
