   * xtb version 6.5.1 (579679a) compiled by 'ehlert@majestix' on 2022-07-11
          program call               : /lustre/hpc/kemi/ree/PhD/git/ReactivityQM/dep/xtb-6.5.1/bin/xtb --gfn 1 /lustre/hpc/kemi/ree/PhD/git/ReactivityQM/calculations/R02oxygendeprot/reac01prodN11/conf08/R02oxygendeprot_reac01prodN11_conf08_gfn1.xyz --opt --vfukui --chrg 0 --uhf 0 --alpb DMSO

   ID    Z sym.   atoms
    1    6 C      1, 3, 5, 7-10, 12, 13, 15, 18, 19, 22, 24
    2    8 O      2, 4, 14, 20, 23, 25
    3    7 N      6, 11, 16, 17, 21
    4    1 H      26-42

      * Solvation model:               ALPB
        Solvent                        DMSO
        Solvent mass                       7.8130E+01 g/mol
          :  Hamiltonian                  GFN1-xTB          :
 * total energy  :   -82.8601221 Eh     change       -0.1254818E-09 Eh
 * total energy  :   -82.8732931 Eh     change       -0.1317101E-01 Eh
 * total energy  :   -82.8790648 Eh     change       -0.5771670E-02 Eh
 * total energy  :   -82.8803452 Eh     change       -0.1280446E-02 Eh
 * total energy  :   -82.8810167 Eh     change       -0.6715134E-03 Eh
 * total energy  :   -82.8813825 Eh     change       -0.3657622E-03 Eh
 * total energy  :   -82.8816123 Eh     change       -0.2297622E-03 Eh
 * total energy  :   -82.8817605 Eh     change       -0.1482335E-03 Eh
 * total energy  :   -82.8818808 Eh     change       -0.1202985E-03 Eh
 * total energy  :   -82.8820026 Eh     change       -0.1218351E-03 Eh
 * total energy  :   -82.8844424 Eh     change       -0.1289725E-04 Eh
 * total energy  :   -82.8844541 Eh     change       -0.1173840E-04 Eh
 * total energy  :   -82.8844661 Eh     change       -0.1201875E-04 Eh
 * total energy  :   -82.8844810 Eh     change       -0.1484732E-04 Eh
 * total energy  :   -82.8844938 Eh     change       -0.1283124E-04 Eh
 * total energy  :   -82.8845142 Eh     change       -0.2039518E-04 Eh
 * total energy  :   -82.8845203 Eh     change       -0.6121813E-05 Eh
 * total energy  :   -82.8845241 Eh     change       -0.3761530E-05 Eh
 * total energy  :   -82.8845286 Eh     change       -0.4488773E-05 Eh
   *** GEOMETRY OPTIMIZATION CONVERGED AFTER 56 ITERATIONS ***

 final structure:
================
42
 xtb: 6.5.1 (579679a)
C            5.20244246202873        2.86075505937204        0.84796966477285
O            4.25148163476833        1.83373520075647        0.55209704585234
C            4.62057177271435        0.58414657638232        0.83871518276232
O            5.69064286840967        0.30197626651043        1.32166969887517
C            3.54925148124802       -0.39846248304433        0.48644774134355
N            2.44363113551439        0.11153436812900       -0.05450702908950
C            1.41825243674221       -0.65364524794816       -0.36177415551598
C            0.21279056391667       -0.02164300812088       -0.99801177277646
C            0.45696658910449       -0.05894231495599       -2.52433296110531
C            0.05928647891022        1.43415249022665       -0.51893218861235
N           -0.95697607657637       -0.79068894195418       -0.65565630199364
C           -2.30376308214018       -0.38068836942909       -1.07891153801253
C           -3.05305169492133       -1.71767836566248       -1.46751240475299
O           -2.39129833667837        0.52415851190699       -1.98167314313555
C           -2.97759310384285        0.02364707227013        0.25874539455310
N           -2.38124524712579        0.44550100640477        1.32335669042964
N           -3.37532938656883        0.74701156119578        2.21512648690584
C           -4.50002619516886        0.48014949839913        1.63260931836492
C           -5.86587683732627        0.64183591902757        2.17661496731263
O           -4.31201700997946        0.01363747657558        0.38238037736688
N            1.44198042739595       -1.98722009467569       -0.16494078087889
C            2.52271184478748       -2.68358277074426        0.37074365440046
O            2.47298928642589       -3.88503554254033        0.49462170941137
C            3.71274063833677       -1.81795947305950        0.74917893384987
O            4.70834790746821       -2.33287234186659        1.23192769366947
H            5.43202148303896        2.86228146652915        1.91616171526625
H            4.74179444538891        3.80254824623008        0.55802734650527
H            6.12130766554896        2.69578000537837        0.28039058242765
H           -0.36586842634012        0.42921907461985       -3.04044621589395
H            1.38554517136831        0.46032923764372       -2.75317892211535
H            0.52800632568677       -1.09276938273017       -2.85484310496485
H           -0.18434037489890        1.44202031618983        0.54218891583260
H            0.99750127282712        1.95987987374295       -0.68479431003946
H           -0.73633701622782        1.92525668560230       -1.07426675528961
H           -0.93751603950745       -1.25169685645230        0.24202974762900
H           -4.08593836145450       -1.46286959416164       -1.68655727388539
H           -2.99867272617360       -2.43142350245213       -0.65249982662950
H           -2.56377852684832       -2.10886931476024       -2.35410624731589
H           -5.80825109125115        0.99307769626124        3.20409137065797
H           -6.39584565072869       -0.30976536609155        2.14254437176452
H           -6.42393708163455        1.36073078387953        1.57595962532995
H            0.64739837375756       -2.54755042258435       -0.43665530327011

          :  Hamiltonian                  GFN1-xTB          :
         :: total energy             -82.884528557457 Eh    ::
         :: gradient norm              0.000628775471 Eh/a0 ::
         :: HOMO-LUMO gap              0.065796368264 eV    ::
         :: SCC energy               -83.649458385600 Eh    ::
         :: -> Gsolv                  -0.064527215952 Eh    ::
         :: repulsion energy           0.791330214669 Eh    ::

    * Orbital Energies and Occupations

         #    Occupation            Energy/Eh            Energy/eV
      -------------------------------------------------------------
         1        2.0000           -0.8696835             -23.6653
       ...           ...                  ...                  ...
        55        2.0000           -0.5126140             -13.9489
        56        2.0000           -0.5088013             -13.8452
        57        2.0000           -0.5077000             -13.8152
        58        2.0000           -0.5000971             -13.6083
        59        2.0000           -0.4913675             -13.3708
        60        2.0000           -0.4854476             -13.2097
        61        2.0000           -0.4805961             -13.0777
        62        2.0000           -0.4659068             -12.6780
        63        2.0000           -0.4618375             -12.5672
        64        2.0000           -0.4522647             -12.3067
        65        2.0000           -0.4458012             -12.1309
        66        2.0000           -0.4407495             -11.9934
        67        1.5624           -0.4236596             -11.5284 (HOMO)
        68        0.4376           -0.4212416             -11.4626 (LUMO)
        69                         -0.3272749              -8.9056
        70                         -0.3033237              -8.2539
        71                         -0.2749631              -7.4821
        72                         -0.2582110              -7.0263
        73                         -0.2507262              -6.8226
        74                         -0.1767194              -4.8088
        75                         -0.1438302              -3.9138
        76                         -0.1407128              -3.8290
        77                         -0.1385647              -3.7705
        78                         -0.1326781              -3.6104
       ...                                ...                  ...
       134                          0.7513674              20.4457
      -------------------------------------------------------------
                  HL-Gap            0.0024180 Eh            0.0658 eV

Wiberg/Mayer (AO) data.
largest (>0.10) Wiberg bond orders for each atom

     #   Z sym  total        # sym  WBO       # sym  WBO       # sym  WBO
 ---------------------------------------------------------------------------
     1   6 C    3.867 --    27 H    0.986    26 H    0.978    28 H    0.978
                             2 O    0.895
     2   8 O    2.193 --     3 C    1.112     1 C    0.895     4 O    0.138
     3   6 C    3.845 --     4 O    1.665     2 O    1.112     5 C    0.997
     4   8 O    1.909 --     3 C    1.665     2 O    0.138
     5   6 C    3.740 --     6 N    1.385    24 C    1.112     3 C    0.997
     6   7 N    2.987 --     7 C    1.387     5 C    1.385
     7   6 C    3.809 --     6 N    1.387    21 N    1.240     8 C    1.002
     8   6 C    3.929 --     7 C    1.002    11 N    0.975    10 C    0.946
                             9 C    0.930
     9   6 C    3.958 --    30 H    0.986    31 H    0.985    29 H    0.971
                             8 C    0.930
    10   6 C    3.957 --    32 H    0.982    33 H    0.978    34 H    0.978
                             8 C    0.946
    11   7 N    3.154 --     8 C    0.975    12 C    0.918    35 H    0.904
                            14 O    0.154
    12   6 C    3.876 --    14 O    1.260    11 N    0.918    15 C    0.823
                            13 C    0.812
    13   6 C    3.845 --    37 H    0.988    36 H    0.981    38 H    0.980
                            12 C    0.812
    14   8 O    1.606 --    12 C    1.260    11 N    0.154
    15   6 C    3.762 --    16 N    1.643    20 O    1.077    12 C    0.823
    16   7 N    2.999 --    15 C    1.643    17 N    1.160
    17   7 N    2.980 --    18 C    1.630    16 N    1.160
    18   6 C    3.857 --    17 N    1.630    20 O    1.056    19 C    1.030
    19   6 C    3.984 --    18 C    1.030    39 H    0.981    40 H    0.964
                            41 H    0.962
    20   8 O    2.323 --    15 C    1.077    18 C    1.056
    21   7 N    3.450 --     7 C    1.240    22 C    1.081    42 H    0.873
                            23 O    0.103
    22   6 C    3.834 --    23 O    1.690    21 N    1.081    24 C    0.937
    23   8 O    1.908 --    22 C    1.690    21 N    0.103
    24   6 C    3.851 --    25 O    1.668     5 C    1.112    22 C    0.937
    25   8 O    1.826 --    24 C    1.668
    26   1 H    1.005 --     1 C    0.978
    27   1 H    1.010 --     1 C    0.986
    28   1 H    1.005 --     1 C    0.978
    29   1 H    1.010 --     9 C    0.971
    30   1 H    1.000 --     9 C    0.986
    31   1 H    0.999 --     9 C    0.985
    32   1 H    1.015 --    10 C    0.982
    33   1 H    1.009 --    10 C    0.978
    34   1 H    1.009 --    10 C    0.978
    35   1 H    0.947 --    11 N    0.904
    36   1 H    1.003 --    13 C    0.981
    37   1 H    0.998 --    13 C    0.988
    38   1 H    0.996 --    13 C    0.980
    39   1 H    0.997 --    19 C    0.981
    40   1 H    0.996 --    19 C    0.964
    41   1 H    0.997 --    19 C    0.962
    42   1 H    0.921 --    21 N    0.873
 ---------------------------------------------------------------------------

           -------------------------------------------------
          | TOTAL ENERGY              -82.884528557457 Eh   |
          | GRADIENT NORM               0.000628775471 Eh/α |
          | HOMO-LUMO GAP               0.065796368264 eV   |
           -------------------------------------------------

 * finished run on 2023/06/21 at 17:26:59.027
