   * xtb version 6.5.1 (579679a) compiled by 'ehlert@majestix' on 2022-07-11
          program call               : /lustre/hpc/kemi/ree/PhD/git/ReactivityQM/dep/xtb-6.5.1/bin/xtb --gfn 1 /lustre/hpc/kemi/ree/PhD/git/ReactivityQM/calculations/R02/reac01prodN12/conf01/R02_reac01prodN12_conf01_gfn1.xyz --opt --vfukui --chrg 1 --uhf 0 --alpb DMSO

   ID    Z sym.   atoms
    1    6 C      1, 3, 5, 7-10, 12, 14, 15, 18, 19, 22, 24
    2    8 O      2, 4, 13, 20, 23, 25
    3    7 N      6, 11, 16, 17, 21
    4    1 H      26-43

      * Solvation model:               ALPB
        Solvent                        DMSO
        Solvent mass                       7.8130E+01 g/mol
          :  Hamiltonian                  GFN1-xTB          :
 * total energy  :   -83.1109392 Eh     change       -0.2786322E-09 Eh
 * total energy  :   -83.1258312 Eh     change       -0.1489204E-01 Eh
 * total energy  :   -83.1318823 Eh     change       -0.6051097E-02 Eh
 * total energy  :   -83.1327297 Eh     change       -0.8473378E-03 Eh
 * total energy  :   -83.1331021 Eh     change       -0.3724251E-03 Eh
 * total energy  :   -83.1332133 Eh     change       -0.1112511E-03 Eh
 * total energy  :   -83.1333309 Eh     change       -0.1175465E-03 Eh
 * total energy  :   -83.1334230 Eh     change       -0.9207717E-04 Eh
 * total energy  :   -83.1335028 Eh     change       -0.7982762E-04 Eh
 * total energy  :   -83.1335747 Eh     change       -0.7189567E-04 Eh
 * total energy  :   -83.1353949 Eh     change       -0.5547317E-05 Eh
 * total energy  :   -83.1354004 Eh     change       -0.5460744E-05 Eh
 * total energy  :   -83.1354062 Eh     change       -0.5814579E-05 Eh
 * total energy  :   -83.1354122 Eh     change       -0.5992432E-05 Eh
 * total energy  :   -83.1354178 Eh     change       -0.5680590E-05 Eh
 * total energy  :   -83.1354230 Eh     change       -0.5171444E-05 Eh
 * total energy  :   -83.1354281 Eh     change       -0.5117881E-05 Eh
 * total energy  :   -83.1354346 Eh     change       -0.6484441E-05 Eh
 * total energy  :   -83.1354356 Eh     change       -0.9951260E-06 Eh
   *** GEOMETRY OPTIMIZATION CONVERGED AFTER 68 ITERATIONS ***

 final structure:
================
43
 xtb: 6.5.1 (579679a)
C           -6.53760207522903        1.00307543192997        0.82463142624690
O           -5.22133317666662        0.56094285492763        1.17600431348176
C           -4.36193747272555        0.40086841009305        0.17606478873823
O           -4.64077849708680        0.60196920406051       -0.98339028652810
C           -3.00827360280597       -0.04993701242240        0.62446607279258
N           -2.11870499208137       -0.21149979579101       -0.41272490017798
C           -0.91662660236036       -0.59889909616785       -0.18082951704086
C            0.05314245187004       -0.78516784120752       -1.32624915639024
C           -0.51697897091114       -0.17512213254633       -2.60571507021628
C            0.38246849747148       -2.27204680591343       -1.49626951246472
N            1.29707555836310       -0.06127287693803       -0.94047199709649
C            2.35113318974386       -0.01794705084130       -1.72719186841155
O            2.50747550568263       -0.41441895552046       -2.84546196736926
C            3.61416590622288        0.72638821011299       -1.00522377392620
C            4.81068813369806        0.65493420035029       -1.94169199089930
N            3.15964477197600        2.00856835133556       -0.66384314946621
N            3.06727429943836        2.10954945178763        0.59800806191131
C            3.50797938302298        0.93401012058825        1.14472103537838
C            3.57715933540019        0.63169940648538        2.57037341325396
O            3.84575025035606        0.09790775652235        0.22851040845034
N           -0.46623109192397       -0.87615872443581        1.08301601739797
C           -1.25064360381558       -0.71782009821560        2.20330153875247
O           -0.83609025992229       -0.92962160979235        3.32998644926618
C           -2.61579674595241       -0.27470370797184        1.91645697090394
O           -3.40062494244572       -0.12009178790595        2.98301776887273
H           -6.48329946225935        1.96451079481221        0.30849085108477
H           -7.09016594926605        1.10312927663297        1.75657927625169
H           -7.01766268920937        0.26854940558496        0.17361226185896
H           -1.47303182915680       -0.64829538373068       -2.82561580057821
H            0.16210184475307       -0.33868561744585       -3.43951388330358
H           -0.67438076145114        0.89373717293667       -2.46974294242704
H            1.06515296620069       -2.40991393865624       -2.33275173556050
H            0.84834273691568       -2.65625957523831       -0.59150648846022
H           -0.53522032897904       -2.82618675103132       -1.68878379899542
H            1.34463174135670        0.33403511577943       -0.01753077448724
H            5.02343749611197       -0.38849453162749       -2.16340484964754
H            5.66801591959436        1.11534012882416       -1.45597089375719
H            4.56732684242015        1.18425849367129       -2.86044175470954
H            2.56285108772484        0.61044252236972        2.97815484028097
H            4.10841703718603        1.43363301017067        3.08756325792659
H            4.06219735389163       -0.32719890837569        2.73842518581108
H            0.46940048456493       -1.21136088546571        1.23798546650717
H           -2.89045273968524       -0.32644623173815        3.78750970676649

          :  Hamiltonian                  GFN1-xTB          :
         :: total energy             -83.135435618406 Eh    ::
         :: gradient norm              0.000160548551 Eh/a0 ::
         :: HOMO-LUMO gap              0.508439896709 eV    ::
         :: SCC energy               -83.932774622110 Eh    ::
         :: -> Gsolv                  -0.124985482456 Eh    ::
         :: repulsion energy           0.824791911868 Eh    ::

    * Orbital Energies and Occupations

         #    Occupation            Energy/Eh            Energy/eV
      -------------------------------------------------------------
         1        2.0000           -0.9365038             -25.4836
       ...           ...                  ...                  ...
        55        2.0000           -0.5347304             -14.5508
        56        2.0000           -0.5267994             -14.3349
        57        2.0000           -0.5241752             -14.2635
        58        2.0000           -0.5190481             -14.1240
        59        2.0000           -0.5167458             -14.0614
        60        2.0000           -0.5073006             -13.8044
        61        2.0000           -0.5040306             -13.7154
        62        2.0000           -0.5007626             -13.6264
        63        2.0000           -0.4986770             -13.5697
        64        2.0000           -0.4954150             -13.4809
        65        2.0000           -0.4747272             -12.9180
        66        2.0000           -0.4640980             -12.6287
        67        1.9999           -0.4461406             -12.1401 (HOMO)
        68        0.0001           -0.4274558             -11.6317 (LUMO)
        69                         -0.3363419              -9.1523
        70                         -0.3342694              -9.0959
        71                         -0.3060036              -8.3268
        72                         -0.3007074              -8.1827
        73                         -0.2510294              -6.8309
        74                         -0.1789234              -4.8688
        75                         -0.1715183              -4.6673
        76                         -0.1573437              -4.2815
        77                         -0.1518163              -4.1311
        78                         -0.1413851              -3.8473
       ...                                ...                  ...
       136                          0.7336117              19.9626
      -------------------------------------------------------------
                  HL-Gap            0.0186848 Eh            0.5084 eV

Wiberg/Mayer (AO) data.
largest (>0.10) Wiberg bond orders for each atom

     #   Z sym  total        # sym  WBO       # sym  WBO       # sym  WBO
 ---------------------------------------------------------------------------
     1   6 C    3.868 --    27 H    0.986    26 H    0.979    28 H    0.979
                             2 O    0.893
     2   8 O    2.209 --     3 C    1.124     1 C    0.893     4 O    0.137
     3   6 C    3.854 --     4 O    1.659     2 O    1.124     5 C    0.994
     4   8 O    1.922 --     3 C    1.659     2 O    0.137
     5   6 C    3.958 --    24 C    1.505     6 N    1.170     3 C    0.994
     6   7 N    3.031 --     7 C    1.612     5 C    1.170
     7   6 C    3.936 --     6 N    1.612    21 N    1.151     8 C    0.980
     8   6 C    3.903 --     9 C    0.996    10 C    0.981     7 C    0.980
                            11 N    0.869
     9   6 C    3.984 --     8 C    0.996    31 H    0.984    30 H    0.980
                            29 H    0.979
    10   6 C    3.984 --    33 H    0.983    34 H    0.981     8 C    0.981
                            32 H    0.978
    11   7 N    3.385 --    12 C    1.363    35 H    0.887     8 C    0.869
                            13 O    0.183
    12   6 C    3.906 --    13 O    1.681    11 N    1.363    14 C    0.707
    13   8 O    2.081 --    12 C    1.681    11 N    0.183
    14   6 C    3.833 --    16 N    1.116    15 C    0.934    20 O    0.910
                            12 C    0.707
    15   6 C    3.950 --    36 H    0.975    38 H    0.975    37 H    0.975
                            14 C    0.934
    16   7 N    3.004 --    17 N    1.622    14 C    1.116
    17   7 N    3.015 --    16 N    1.622    18 C    1.214
    18   6 C    3.808 --    20 O    1.279    17 N    1.214    19 C    1.077
    19   6 C    3.962 --    18 C    1.077    41 H    0.971    40 H    0.930
                            39 H    0.916
    20   8 O    2.377 --    18 C    1.279    14 C    0.910
    21   7 N    3.456 --     7 C    1.151    22 C    1.128    42 H    0.884
                            23 O    0.134
    22   6 C    3.907 --    23 O    1.592    21 N    1.128    24 C    1.055
    23   8 O    1.915 --    22 C    1.592    21 N    0.134
    24   6 C    3.918 --     5 C    1.505    25 O    1.121    22 C    1.055
    25   8 O    2.097 --    24 C    1.121    43 H    0.802
    26   1 H    1.007 --     1 C    0.979
    27   1 H    1.010 --     1 C    0.986
    28   1 H    1.006 --     1 C    0.979
    29   1 H    1.005 --     9 C    0.979
    30   1 H    1.003 --     9 C    0.980
    31   1 H    1.003 --     9 C    0.984
    32   1 H    0.999 --    10 C    0.978
    33   1 H    0.998 --    10 C    0.983
    34   1 H    0.996 --    10 C    0.981
    35   1 H    0.929 --    11 N    0.887
    36   1 H    0.994 --    15 C    0.975
    37   1 H    0.991 --    15 C    0.975
    38   1 H    0.995 --    15 C    0.975
    39   1 H    0.979 --    19 C    0.916
    40   1 H    0.979 --    19 C    0.930
    41   1 H    0.985 --    19 C    0.971
    42   1 H    0.925 --    21 N    0.884
    43   1 H    0.839 --    25 O    0.802
 ---------------------------------------------------------------------------

           -------------------------------------------------
          | TOTAL ENERGY              -83.135435618406 Eh   |
          | GRADIENT NORM               0.000160548551 Eh/α |
          | HOMO-LUMO GAP               0.508439896709 eV   |
           -------------------------------------------------

 * finished run on 2023/06/20 at 15:34:36.003
