   * xtb version 6.5.1 (579679a) compiled by 'ehlert@majestix' on 2022-07-11
          program call               : /lustre/hpc/kemi/ree/PhD/git/ReactivityQM/dep/xtb-6.5.1/bin/xtb --gfn 1 /lustre/hpc/kemi/ree/PhD/git/ReactivityQM/calculations/R01/reac01/conf10/R01_reac01_conf10_gfn1.xyz --opt --vfukui --chrg 0 --uhf 0 --alpb DMSO

   ID    Z sym.   atoms
    1    6 C      1, 3, 5, 8, 9
    2    8 O      2, 4, 10
    3    7 N      6, 7
    4    1 H      11-16

      * Solvation model:               ALPB
        Solvent                        DMSO
        Solvent mass                       7.8130E+01 g/mol
          :  Hamiltonian                  GFN1-xTB          :
 * total energy  :   -34.2877701 Eh     change       -0.2231104E-11 Eh
 * total energy  :   -34.2931600 Eh     change       -0.5389857E-02 Eh
 * total energy  :   -34.2951887 Eh     change       -0.2028670E-02 Eh
 * total energy  :   -34.2957377 Eh     change       -0.5490412E-03 Eh
 * total energy  :   -34.2961304 Eh     change       -0.3927327E-03 Eh
 * total energy  :   -34.2963429 Eh     change       -0.2124113E-03 Eh
 * total energy  :   -34.2964865 Eh     change       -0.1435997E-03 Eh
 * total energy  :   -34.2965842 Eh     change       -0.9770991E-04 Eh
 * total energy  :   -34.2966355 Eh     change       -0.5128219E-04 Eh
 * total energy  :   -34.2966580 Eh     change       -0.2252695E-04 Eh
 * total energy  :   -34.2967028 Eh     change       -0.1572746E-04 Eh
 * total energy  :   -34.2967189 Eh     change       -0.1613657E-04 Eh
 * total energy  :   -34.2967456 Eh     change       -0.2663342E-04 Eh
 * total energy  :   -34.2967620 Eh     change       -0.1641933E-04 Eh
 * total energy  :   -34.2967161 Eh     change        0.4590727E-04 Eh
 * total energy  :   -34.2967751 Eh     change       -0.5903492E-04 Eh
 * total energy  :   -34.2967804 Eh     change       -0.5336802E-05 Eh
 * total energy  :   -34.2967867 Eh     change       -0.6306316E-05 Eh
 * total energy  :   -34.2967887 Eh     change       -0.1944215E-05 Eh
   *** GEOMETRY OPTIMIZATION CONVERGED AFTER 22 ITERATIONS ***

 final structure:
================
16
 xtb: 6.5.1 (579679a)
C           -3.33444896061872        0.30301916311483        0.06399723524937
O           -1.90255520971686        0.27111487800202        0.10945800797546
C           -1.34269452340008       -0.87138562174112        0.47996114092030
O           -1.95006142660743       -1.87019461282001        0.78205163530825
C            0.13772666133519       -0.79046606446999        0.48131138186308
N            0.96510565172732       -1.74453779738718        0.78798695062590
N            2.21655990535102       -1.23838724615706        0.64638227594891
C            2.07992193283207       -0.00431098729878        0.26057171135625
C            3.15033628565230        0.97481326649386       -0.02467966694464
O            0.79147395469194        0.33808368752154        0.13807064175380
H           -3.70455041916917       -0.49268496718419       -0.58579490025098
H           -3.74110399571950        0.17197431092289        1.06884494665166
H           -3.60705138872154        1.27821215433763       -0.33253579738711
H            3.00116089248102        1.41299309984916       -1.01074941972340
H            3.12182264449982        1.78031133350450        0.70953739951481
H            4.11835699538259        0.48144640331191        0.01746745713838

          :  Hamiltonian                  GFN1-xTB          :
         :: total energy             -34.296788688060 Eh    ::
         :: gradient norm              0.000341303498 Eh/a0 ::
         :: HOMO-LUMO gap              3.730482565933 eV    ::
         :: SCC energy               -34.589940773564 Eh    ::
         :: -> Gsolv                  -0.021551472030 Eh    ::
         :: repulsion energy           0.299110346953 Eh    ::

    * Orbital Energies and Occupations

         #    Occupation            Energy/Eh            Energy/eV
      -------------------------------------------------------------
         1        2.0000           -0.8707119             -23.6933
       ...           ...                  ...                  ...
        15        2.0000           -0.5965902             -16.2340
        16        2.0000           -0.5708196             -15.5328
        17        2.0000           -0.5647676             -15.3681
        18        2.0000           -0.5496262             -14.9561
        19        2.0000           -0.5484266             -14.9234
        20        2.0000           -0.5371602             -14.6169
        21        2.0000           -0.5203595             -14.1597
        22        2.0000           -0.5120602             -13.9339
        23        2.0000           -0.5038239             -13.7097
        24        2.0000           -0.4942805             -13.4501
        25        2.0000           -0.4837031             -13.1622
        26        2.0000           -0.4620155             -12.5721
        27        2.0000           -0.4604260             -12.5288 (HOMO)
        28                         -0.3233333              -8.7983 (LUMO)
        29                         -0.2623901              -7.1400
        30                         -0.2088667              -5.6836
        31                         -0.1450484              -3.9470
        32                         -0.1403144              -3.8181
        33                         -0.0770867              -2.0976
        34                         -0.0769268              -2.0933
        35                         -0.0764852              -2.0813
        36                         -0.0754190              -2.0523
        37                          0.0027995               0.0762
        38                          0.0389411               1.0596
       ...                                ...                  ...
        52                          0.7374930              20.0682
      -------------------------------------------------------------
                  HL-Gap            0.1370927 Eh            3.7305 eV

Wiberg/Mayer (AO) data.
largest (>0.10) Wiberg bond orders for each atom

     #   Z sym  total        # sym  WBO       # sym  WBO       # sym  WBO
 ---------------------------------------------------------------------------
     1   6 C    3.861 --    13 H    0.985    11 H    0.979    12 H    0.979
                             2 O    0.887
     2   8 O    2.217 --     3 C    1.133     1 C    0.887     4 O    0.142
     3   6 C    3.866 --     4 O    1.660     2 O    1.133     5 C    0.991
     4   8 O    1.931 --     3 C    1.660     2 O    0.142
     5   6 C    3.880 --     6 N    1.608    10 O    1.056     3 C    0.991
     6   7 N    3.005 --     5 C    1.608     7 N    1.216
     7   7 N    2.981 --     8 C    1.591     6 N    1.216
     8   6 C    3.869 --     7 N    1.591    10 O    1.089     9 C    1.033
     9   6 C    3.985 --     8 C    1.033    16 H    0.982    14 H    0.965
                            15 H    0.959
    10   8 O    2.329 --     8 C    1.089     5 C    1.056
    11   1 H    1.005 --     1 C    0.979
    12   1 H    1.004 --     1 C    0.979
    13   1 H    1.009 --     1 C    0.985
    14   1 H    0.996 --     9 C    0.965
    15   1 H    0.996 --     9 C    0.959
    16   1 H    0.998 --     9 C    0.982
 ---------------------------------------------------------------------------

           -------------------------------------------------
          | TOTAL ENERGY              -34.296788688060 Eh   |
          | GRADIENT NORM               0.000341303498 Eh/α |
          | HOMO-LUMO GAP               3.730482565933 eV   |
           -------------------------------------------------

 * finished run on 2023/06/20 at 14:51:56.415
