   * xtb version 6.5.1 (579679a) compiled by 'ehlert@majestix' on 2022-07-11
          program call               : /lustre/hpc/kemi/ree/PhD/git/ReactivityQM/dep/xtb-6.5.1/bin/xtb --gfn 1 /lustre/hpc/kemi/ree/PhD/git/ReactivityQM/calculations/RaltegravirCLI/reac01prodN05/conf09/RaltegravirCLI_reac01prodN05_conf09_gfn1.xyz --opt --vfukui --chrg 1 --uhf 0 --alpb DMSO

   ID    Z sym.   atoms
    1    6 C      1, 2, 5-7
    2    7 N      3, 4
    3    8 O      8, 10
    4   17 Cl     9
    5    1 H      11-16

      * Solvation model:               ALPB
        Solvent                        DMSO
        Solvent mass                       7.8130E+01 g/mol
          :  Hamiltonian                  GFN1-xTB          :
 * total energy  :   -33.3753843 Eh     change       -0.2351896E-11 Eh
 * total energy  :   -33.3839403 Eh     change       -0.8555997E-02 Eh
 * total energy  :   -33.3874281 Eh     change       -0.3487797E-02 Eh
 * total energy  :   -33.3877424 Eh     change       -0.3143376E-03 Eh
 * total energy  :   -33.3878834 Eh     change       -0.1410085E-03 Eh
 * total energy  :   -33.3879278 Eh     change       -0.4435912E-04 Eh
 * total energy  :   -33.3880017 Eh     change       -0.7387615E-04 Eh
 * total energy  :   -33.3881546 Eh     change       -0.1529091E-03 Eh
 * total energy  :   -33.3882064 Eh     change       -0.5185692E-04 Eh
 * total energy  :   -33.3883539 Eh     change       -0.1474386E-03 Eh
 * total energy  :   -33.3920420 Eh     change       -0.2082332E-04 Eh
 * total energy  :   -33.3920581 Eh     change       -0.1607199E-04 Eh
 * total energy  :   -33.3920869 Eh     change       -0.2884613E-04 Eh
 * total energy  :   -33.3921064 Eh     change       -0.1951480E-04 Eh
 * total energy  :   -33.3921226 Eh     change       -0.1623487E-04 Eh
 * total energy  :   -33.3921344 Eh     change       -0.1174183E-04 Eh
 * total energy  :   -33.3921508 Eh     change       -0.1644169E-04 Eh
 * total energy  :   -33.3921555 Eh     change       -0.4693782E-05 Eh
 * total energy  :   -33.3921591 Eh     change       -0.3558198E-05 Eh
   *** GEOMETRY OPTIMIZATION CONVERGED AFTER 54 ITERATIONS ***

 final structure:
================
16
 xtb: 6.5.1 (579679a)
C            2.68771544870776       -0.27956881027665       -0.23495246653070
C            1.31070384069091        0.16828275562520       -0.10829351101095
N            0.90001258139496        1.48258658849201       -0.07802443581260
N           -0.35468883095117        1.49324612608129        0.02343307320448
C           -0.84624668099930        0.16573246294068        0.09176162541063
C           -1.87638108682508       -0.18856489265327       -0.98244693438600
C           -1.56354391643437        0.03227942816450        1.51254836471660
O           -2.56743017665163        0.63460282279528        1.68082078758948
Cl          -0.80265923671452       -0.97769347352680        2.61183005244623
O            0.30950196070956       -0.62657482968763       -0.00822326855560
H            3.09500095167260        0.09689256141647       -1.17819491620080
H            3.28948904115213        0.17160127103405        0.55848504557527
H            2.75279286793027       -1.36467296507927       -0.19969494785925
H           -1.42383894068493       -0.04127518431991       -1.96027289957944
H           -2.74018357566880        0.46238917889089       -0.86289556849887
H           -2.17024424732840       -1.22926403989689       -0.86587900050840

          :  Hamiltonian                  GFN1-xTB          :
         :: total energy             -33.392159081803 Eh    ::
         :: gradient norm              0.000793060377 Eh/a0 ::
         :: HOMO-LUMO gap              2.015737712972 eV    ::
         :: SCC energy               -33.670601318475 Eh    ::
         :: -> Gsolv                  -0.085623647330 Eh    ::
         :: repulsion energy           0.286391305955 Eh    ::

    * Orbital Energies and Occupations

         #    Occupation            Energy/Eh            Energy/eV
      -------------------------------------------------------------
         1        2.0000           -1.0036715             -27.3113
       ...           ...                  ...                  ...
        15        2.0000           -0.6377615             -17.3544
        16        2.0000           -0.6146127             -16.7245
        17        2.0000           -0.6054773             -16.4759
        18        2.0000           -0.6038679             -16.4321
        19        2.0000           -0.5865405             -15.9606
        20        2.0000           -0.5828890             -15.8612
        21        2.0000           -0.5757360             -15.6666
        22        2.0000           -0.5707862             -15.5319
        23        2.0000           -0.5679313             -15.4542
        24        2.0000           -0.5356093             -14.5747
        25        2.0000           -0.5332155             -14.5095
        26        2.0000           -0.5244258             -14.2704
        27        2.0000           -0.5133120             -13.9679 (HOMO)
        28                         -0.4392350             -11.9522 (LUMO)
        29                         -0.3566717              -9.7055
        30                         -0.3402166              -9.2578
        31                         -0.2503374              -6.8120
        32                         -0.1824042              -4.9635
        33                         -0.1644220              -4.4742
        34                         -0.1356574              -3.6914
        35                         -0.1285898              -3.4991
        36                         -0.1272514              -3.4627
        37                         -0.1143437              -3.1114
        38                         -0.1107576              -3.0139
       ...                                ...                  ...
        57                          0.7146837              19.4475
      -------------------------------------------------------------
                  HL-Gap            0.0740770 Eh            2.0157 eV

Wiberg/Mayer (AO) data.
largest (>0.10) Wiberg bond orders for each atom

     #   Z sym  total        # sym  WBO       # sym  WBO       # sym  WBO
 ---------------------------------------------------------------------------
     1   6 C    3.961 --     2 C    1.092    13 H    0.971    12 H    0.916
                            11 H    0.909
     2   6 C    3.798 --    10 O    1.292     3 N    1.179     1 C    1.092
     3   7 N    3.025 --     4 N    1.676     2 C    1.179
     4   7 N    3.012 --     3 N    1.676     5 C    1.076
     5   6 C    3.841 --     4 N    1.076     6 C    0.909    10 O    0.906
                             7 C    0.786
     6   6 C    3.941 --    16 H    0.976    14 H    0.974    15 H    0.973
                             5 C    0.909
     7   6 C    3.877 --     8 O    1.833     9 Cl   1.149     5 C    0.786
     8   8 O    2.133 --     7 C    1.833     9 Cl   0.157
     9  17 Cl   1.401 --     7 C    1.149     8 O    0.157
    10   8 O    2.381 --     2 C    1.292     5 C    0.906
    11   1 H    0.974 --     1 C    0.909
    12   1 H    0.977 --     1 C    0.916
    13   1 H    0.983 --     1 C    0.971
    14   1 H    0.988 --     6 C    0.974
    15   1 H    0.993 --     6 C    0.973
    16   1 H    0.989 --     6 C    0.976
 ---------------------------------------------------------------------------

           -------------------------------------------------
          | TOTAL ENERGY              -33.392159081803 Eh   |
          | GRADIENT NORM               0.000793060377 Eh/α |
          | HOMO-LUMO GAP               2.015737712972 eV   |
           -------------------------------------------------

 * finished run on 2023/06/20 at 14:54:58.583
