   * xtb version 6.5.1 (579679a) compiled by 'ehlert@majestix' on 2022-07-11
          program call               : /lustre/hpc/kemi/ree/PhD/git/ReactivityQM/dep/xtb-6.5.1/bin/xtb --gfn 1 /lustre/hpc/kemi/ree/PhD/git/ReactivityQM/calculations/RaltegravirCLI/reac02prodN05/conf15/RaltegravirCLI_reac02prodN05_conf15_gfn1.xyz --opt --vfukui --chrg 1 --uhf 0 --alpb DMSO

   ID    Z sym.   atoms
    1    6 C      1, 3, 5, 7, 8, 11-15, 17, 18, 20-24
    2    7 N      2, 10, 19, 25
    3    8 O      4, 6, 9
    4    9 F      16
    5    1 H      26-47

      * Solvation model:               ALPB
        Solvent                        DMSO
        Solvent mass                       7.8130E+01 g/mol
          :  Hamiltonian                  GFN1-xTB          :
 * total energy  :   -79.4584663 Eh     change       -0.3056897E-09 Eh
 * total energy  :   -79.4728763 Eh     change       -0.1440994E-01 Eh
 * total energy  :   -79.4789482 Eh     change       -0.6071915E-02 Eh
 * total energy  :   -79.4802362 Eh     change       -0.1288063E-02 Eh
 * total energy  :   -79.4813966 Eh     change       -0.1160350E-02 Eh
 * total energy  :   -79.4821007 Eh     change       -0.7041229E-03 Eh
 * total energy  :   -79.4829094 Eh     change       -0.8086583E-03 Eh
 * total energy  :   -79.4832755 Eh     change       -0.3661236E-03 Eh
 * total energy  :   -79.4842618 Eh     change       -0.9863359E-03 Eh
 * total energy  :   -79.4848887 Eh     change       -0.6268885E-03 Eh
 * total energy  :   -79.5469904 Eh     change       -0.1601246E-04 Eh
 * total energy  :   -79.5470045 Eh     change       -0.1407076E-04 Eh
 * total energy  :   -79.5470229 Eh     change       -0.1843784E-04 Eh
 * total energy  :   -79.5470361 Eh     change       -0.1321005E-04 Eh
 * total energy  :   -79.5470420 Eh     change       -0.5875232E-05 Eh
 * total energy  :   -79.5470479 Eh     change       -0.5840409E-05 Eh
 * total energy  :   -79.5470546 Eh     change       -0.6737823E-05 Eh
 * total energy  :   -79.5470601 Eh     change       -0.5486747E-05 Eh
 * total energy  :   -79.5470625 Eh     change       -0.2437604E-05 Eh
   *** GEOMETRY OPTIMIZATION CONVERGED AFTER 122 ITERATIONS ***

 final structure:
================
47
 xtb: 6.5.1 (579679a)
C           -3.13385166403246       -0.13008331363181       -4.17400187246576
N           -2.10617605515895       -0.39132941914145       -3.16571161677090
C           -0.86390347148238       -0.80790920817859       -3.60466995843105
O           -0.58537306256445       -0.95955838446450       -4.78870372087334
C            0.10345768531554       -1.06071926656213       -2.54819872093583
O            1.30975574394324       -1.47932886045781       -2.97427555219524
C           -0.22493861314898       -0.87750263811701       -1.23659457463790
C            0.64748441367129       -1.08888505664476       -0.04421559166157
O            0.21152087099500       -0.87942521862360        1.09548062928656
N            1.89203763799906       -1.51969583963986       -0.26581016107216
C            2.82465044468638       -1.73797536721251        0.83791424103217
C            3.68633364046239       -0.51349961871844        1.05785657957349
C            3.12976753178419        0.63523670481954        1.61806811637346
C            3.90331079006914        1.76906532946639        1.81714113426487
C            5.23598274127967        1.72740095283362        1.44691716927897
F            5.99166034579848        2.81971838885535        1.63872667183735
C            5.82009617812996        0.60532536341946        0.88833136368156
C            5.03002329811754       -0.51992557545691        0.69380895564651
N           -1.48893184514252       -0.44960160423397       -0.91232698630628
C           -2.37113066429615       -0.23011418098566       -1.83514819861160
C           -3.73267457138017        0.22089924156201       -1.41986287755021
C           -2.50385817544415        0.60185078089542        2.30230966123513
C           -3.62298101591281        1.07802482745858        3.14195974753024
C           -1.51847503655750        1.55804103493612        1.74968950522772
N           -2.36700356002370       -0.64579375134361        2.02991645682228
H           -2.69769111007466       -0.30996634030940       -5.15583733856328
H           -3.97856681741491       -0.79898666228883       -4.01582787012489
H           -3.46461137648892        0.90461129562095       -4.09917628045860
H            1.29231982741245       -1.53856085773732       -3.95000444913302
H            2.24094024543503       -1.64167851343682       -1.20374592593438
H            3.44053427302224       -2.60624589583200        0.59191047287107
H            2.23501906322416       -1.95474828777195        1.73347201938619
H            2.08399730949904        0.64211189707903        1.90056857581578
H            3.48375834240721        2.66712853348610        2.25103699914542
H            6.86617138707672        0.61295838961005        0.61048564084548
H            5.46721803310025       -1.40970634403787        0.25610938873690
H           -3.76678459053831        0.27294619349433       -0.33399064400535
H           -3.95748475413758        1.20508083394456       -1.83143689142808
H           -4.49542790847428       -0.47613424033436       -1.76704588870433
H           -3.23403853580690        1.69032661597488        3.95680353382300
H           -4.26684018265298        1.72039344763222        2.53827243544642
H           -4.21063047801561        0.25530623484766        3.54323147975914
H           -1.85804588341842        2.58659726401394        1.84185832486095
H           -1.31686515045985        1.30965674088014        0.70629420404289
H           -0.57640362331063        1.43877831049245        2.28989313354312
H           -2.98809049202319       -1.35262477604597        2.38338886914953
H           -1.56525816606516       -0.94146016004901        1.45305281077053

          :  Hamiltonian                  GFN1-xTB          :
         :: total energy             -79.547062527707 Eh    ::
         :: gradient norm              0.000284522813 Eh/a0 ::
         :: HOMO-LUMO gap              2.425164904482 eV    ::
         :: SCC energy               -80.479660876703 Eh    ::
         :: -> Gsolv                  -0.106319804226 Eh    ::
         :: repulsion energy           0.962089881329 Eh    ::

    * Orbital Energies and Occupations

         #    Occupation            Energy/Eh            Energy/eV
      -------------------------------------------------------------
         1        2.0000           -0.8673872             -23.6028
       ...           ...                  ...                  ...
        55        2.0000           -0.5220885             -14.2068
        56        2.0000           -0.5167831             -14.0624
        57        2.0000           -0.5107539             -13.8983
        58        2.0000           -0.5063267             -13.7779
        59        2.0000           -0.4813812             -13.0990
        60        2.0000           -0.4799670             -13.0606
        61        2.0000           -0.4771173             -12.9830
        62        2.0000           -0.4642609             -12.6332
        63        2.0000           -0.4556765             -12.3996
        64        2.0000           -0.4545332             -12.3685
        65        2.0000           -0.4512801             -12.2800
        66        2.0000           -0.4409183             -11.9980
        67        2.0000           -0.4320484             -11.7566 (HOMO)
        68                         -0.3429252              -9.3315 (LUMO)
        69                         -0.3239746              -8.8158
        70                         -0.2861439              -7.7864
        71                         -0.2775150              -7.5516
        72                         -0.2714759              -7.3872
        73                         -0.2407272              -6.5505
        74                         -0.1681128              -4.5746
        75                         -0.1608135              -4.3760
        76                         -0.1586317              -4.3166
        77                         -0.1551600              -4.2221
        78                         -0.1501660              -4.0862
       ...                                ...                  ...
       144                          0.7022308              19.1087
      -------------------------------------------------------------
                  HL-Gap            0.0891232 Eh            2.4252 eV

Wiberg/Mayer (AO) data.
largest (>0.10) Wiberg bond orders for each atom

     #   Z sym  total        # sym  WBO       # sym  WBO       # sym  WBO
 ---------------------------------------------------------------------------
     1   6 C    3.920 --    28 H    0.979    27 H    0.978    26 H    0.975
                             2 N    0.929
     2   7 N    3.512 --    20 C    1.179     3 C    1.128     1 C    0.929
                             4 O    0.131
     3   6 C    3.915 --     4 O    1.557     2 N    1.128     5 C    1.080
     4   8 O    1.905 --     3 C    1.557     2 N    0.131
     5   6 C    3.918 --     7 C    1.511     3 C    1.080     6 O    1.080
     6   8 O    2.072 --     5 C    1.080    29 H    0.795
     7   6 C    3.963 --     5 C    1.511    19 N    1.180     8 C    1.006
     8   6 C    3.906 --     9 O    1.500    10 N    1.314     7 C    1.006
     9   8 O    1.900 --     8 C    1.500    10 N    0.163
    10   7 N    3.383 --     8 C    1.314    11 C    0.935    30 H    0.882
                             9 O    0.163
    11   6 C    3.942 --    12 C    0.993    31 H    0.976    32 H    0.967
                            10 N    0.935
    12   6 C    3.988 --    18 C    1.423    13 C    1.414    11 C    0.993
    13   6 C    3.993 --    14 C    1.448    12 C    1.414    33 H    0.969
                            17 C    0.111
    14   6 C    3.992 --    13 C    1.448    15 C    1.397    34 H    0.969
                            18 C    0.110
    15   6 C    3.861 --    17 C    1.403    14 C    1.397    16 F    0.927
    16   9 F    1.056 --    15 C    0.927
    17   6 C    3.991 --    18 C    1.440    15 C    1.403    35 H    0.969
                            13 C    0.111
    18   6 C    3.993 --    17 C    1.440    12 C    1.423    36 H    0.970
                            14 C    0.110
    19   7 N    3.046 --    20 C    1.555     7 C    1.180
    20   6 C    3.932 --    19 N    1.555     2 N    1.179    21 C    1.027
    21   6 C    3.990 --    20 C    1.027    37 H    0.983    39 H    0.964
                            38 H    0.963
    22   6 C    3.869 --    25 N    1.671    23 C    1.062    24 C    1.058
    23   6 C    3.985 --    22 C    1.062    42 H    0.979    40 H    0.949
                            41 H    0.941
    24   6 C    3.982 --    22 C    1.058    43 H    0.980    44 H    0.949
                            45 H    0.934
    25   7 N    3.522 --    22 C    1.671    46 H    0.881    47 H    0.817
    26   1 H    1.005 --     1 C    0.975
    27   1 H    0.998 --     1 C    0.978
    28   1 H    0.998 --     1 C    0.979
    29   1 H    0.839 --     6 O    0.795
    30   1 H    0.940 --    10 N    0.882
    31   1 H    1.002 --    11 C    0.976
    32   1 H    1.008 --    11 C    0.967
    33   1 H    1.009 --    13 C    0.969
    34   1 H    0.998 --    14 C    0.969
    35   1 H    0.997 --    17 C    0.969
    36   1 H    0.999 --    18 C    0.970
    37   1 H    1.008 --    21 C    0.983
    38   1 H    0.996 --    21 C    0.963
    39   1 H    0.996 --    21 C    0.964
    40   1 H    0.991 --    23 C    0.949
    41   1 H    0.992 --    23 C    0.941
    42   1 H    0.991 --    23 C    0.979
    43   1 H    0.995 --    24 C    0.980
    44   1 H    1.017 --    24 C    0.949
    45   1 H    1.000 --    24 C    0.934
    46   1 H    0.912 --    25 N    0.881
    47   1 H    0.941 --    25 N    0.817
 ---------------------------------------------------------------------------

           -------------------------------------------------
          | TOTAL ENERGY              -79.547062527707 Eh   |
          | GRADIENT NORM               0.000284522813 Eh/α |
          | HOMO-LUMO GAP               2.425164904482 eV   |
           -------------------------------------------------

 * finished run on 2023/06/20 at 15:22:40.563
