   * xtb version 6.5.1 (579679a) compiled by 'ehlert@majestix' on 2022-07-11
          program call               : /lustre/hpc/kemi/ree/PhD/git/ReactivityQM/dep/xtb-6.5.1/bin/xtb --gfn 1 /lustre/hpc/kemi/ree/PhD/git/ReactivityQM/calculations/R02deprot/reac01prodE05/conf18/R02deprot_reac01prodE05_conf18_gfn1.xyz --opt --vfukui --chrg -2 --uhf 0 --alpb DMSO

   ID    Z sym.   atoms
    1    6 C      1, 3, 5, 6, 8, 11-14, 16, 18, 21, 22, 25
    2    8 O      2, 4, 7, 9, 17, 23
    3    7 N      10, 15, 19, 20, 24
    4    1 H      26-42

      * Solvation model:               ALPB
        Solvent                        DMSO
        Solvent mass                       7.8130E+01 g/mol
          :  Hamiltonian                  GFN1-xTB          :
 * total energy  :   -83.5623887 Eh     change       -0.1654712E-09 Eh
 * total energy  :   -83.5754268 Eh     change       -0.1303806E-01 Eh
 * total energy  :   -83.5807240 Eh     change       -0.5297221E-02 Eh
 * total energy  :   -83.5818694 Eh     change       -0.1145367E-02 Eh
 * total energy  :   -83.5826149 Eh     change       -0.7455224E-03 Eh
 * total energy  :   -83.5828238 Eh     change       -0.2089473E-03 Eh
 * total energy  :   -83.5829320 Eh     change       -0.1081387E-03 Eh
 * total energy  :   -83.5830154 Eh     change       -0.8347838E-04 Eh
 * total energy  :   -83.5830936 Eh     change       -0.7817092E-04 Eh
 * total energy  :   -83.5831626 Eh     change       -0.6896413E-04 Eh
 * total energy  :   -83.5833074 Eh     change       -0.1107339E-04 Eh
 * total energy  :   -83.5833303 Eh     change       -0.2296954E-04 Eh
 * total energy  :   -83.5833404 Eh     change       -0.1007451E-04 Eh
 * total energy  :   -83.5833619 Eh     change       -0.2143462E-04 Eh
 * total energy  :   -83.5833676 Eh     change       -0.5708244E-05 Eh
 * total energy  :   -83.5833746 Eh     change       -0.6999463E-05 Eh
 * total energy  :   -83.5833806 Eh     change       -0.6067946E-05 Eh
 * total energy  :   -83.5833871 Eh     change       -0.6510707E-05 Eh
 * total energy  :   -83.5833898 Eh     change       -0.2648947E-05 Eh
   *** GEOMETRY OPTIMIZATION CONVERGED AFTER 23 ITERATIONS ***

 final structure:
================
42
 xtb: 6.5.1 (579679a)
C           -5.71299697457141        0.55225673970478       -1.83521466144450
O           -4.41103559478016        0.30418140788386       -1.34363619402076
C           -4.36637509126382       -0.22708739355139       -0.04531783979257
O           -5.45414519232912       -0.44684654219970        0.55641938253997
C           -3.08751370343385       -0.48406213356708        0.45230489067037
C           -2.85974973040738       -0.99093737166149        1.76100594156040
O           -3.94191835426462       -1.38976815924508        2.51955655315054
C           -1.56664283021130       -1.06861437855170        2.31604470194321
O           -1.25931730789362       -1.58061743009926        3.43334381032458
N           -0.55760419284780       -0.43188262784433        1.55312176867223
C           -0.73432395601728       -0.06993055505511        0.33474006319628
C            0.41859738010729        0.73435729839897       -0.27933743284027
C            0.58321505162168        1.99290679731037        0.60108914604378
C            0.19820881652620        1.16564918665278       -1.73062238684352
N            1.60645759673944       -0.11721774560559       -0.16819251734643
C            2.88548677274965        0.38051755178650       -0.40640849197059
O            3.11273084283505        1.36728016414382       -1.13818027315003
C            3.88841308400111       -0.41466473197906        0.23798872487532
N            3.67266220061455       -1.45088419068886        1.05241464317790
N            4.90263728989754       -1.87848611445384        1.47131867373398
C            5.78538259105055       -1.11390558343137        0.91774662363296
C            7.25914407343758       -1.19085647716078        1.07421816368988
O            5.24109972755383       -0.16192454036293        0.12272846472791
N           -1.93188953459179       -0.22572831566520       -0.37830517819603
C           -1.88048783776907       -1.06437264055415       -1.59309585409018
H           -5.60839329084208        0.95813561111549       -2.84251248628707
H           -6.24526958325599        1.27763752560861       -1.20709897941685
H           -6.30581430758617       -0.36979958396491       -1.87701613926167
H           -4.75339877564271       -1.16811087654604        1.99814376312139
H           -0.32495810589460        2.59287519650263        0.55031132585081
H            1.42150634815249        2.59545604297524        0.25428982328544
H            0.75552873548703        1.70008525979468        1.63717535216706
H            0.91633868881380        1.93866015790485       -2.00166391758549
H            0.33333203351015        0.32874141968507       -2.41322896988166
H           -0.80675480075721        1.56931786559888       -1.84962154943916
H            1.55466150130381       -0.75529568893064        0.62522255675501
H            7.50730236371331       -1.96072577556469        1.80080763342361
H            7.73132233655860       -1.43201833572973        0.12169712754620
H            7.65552913657135       -0.23383532126789        1.41253495174022
H           -0.85849210751112       -1.38897681716875       -1.78999587228000
H           -2.50616401522666       -1.94983376179204       -1.45190314866329
H           -2.25631528414673       -0.50782013242523       -2.45287019331836

          :  Hamiltonian                  GFN1-xTB          :
         :: total energy             -83.583389787224 Eh    ::
         :: gradient norm              0.000414976563 Eh/a0 ::
         :: HOMO-LUMO gap              0.041804525879 eV    ::
         :: SCC energy               -84.303189232246 Eh    ::
         :: -> Gsolv                  -0.264757436904 Eh    ::
         :: repulsion energy           0.746339547005 Eh    ::

    * Orbital Energies and Occupations

         #    Occupation            Energy/Eh            Energy/eV
      -------------------------------------------------------------
         1        2.0000           -0.8037229             -21.8704
       ...           ...                  ...                  ...
        56        2.0000           -0.4363574             -11.8739
        57        2.0000           -0.4321343             -11.7590
        58        2.0000           -0.4223084             -11.4916
        59        2.0000           -0.4087608             -11.1229
        60        2.0000           -0.4065506             -11.0628
        61        2.0000           -0.4024017             -10.9499
        62        2.0000           -0.3994323             -10.8691
        63        2.0000           -0.3963458             -10.7851
        64        2.0000           -0.3864112             -10.5148
        65        2.0000           -0.3832929             -10.4299
        66        2.0000           -0.3521844              -9.5834
        67        2.0000           -0.3466111              -9.4318
        68        1.3836           -0.2688537              -7.3159 (HOMO)
        69        0.6164           -0.2673174              -7.2741 (LUMO)
        70                         -0.2253999              -6.1334
        71                         -0.2121466              -5.7728
        72                         -0.1536881              -4.1821
        73                         -0.1420209              -3.8646
        74                         -0.1258898              -3.4256
        75                         -0.1103499              -3.0028
        76                         -0.1071392              -2.9154
        77                         -0.0946874              -2.5766
        78                         -0.0914055              -2.4873
        79                         -0.0794934              -2.1631
       ...                                ...                  ...
       134                          0.7087960              19.2873
      -------------------------------------------------------------
                  HL-Gap            0.0015363 Eh            0.0418 eV

Wiberg/Mayer (AO) data.
largest (>0.10) Wiberg bond orders for each atom

     #   Z sym  total        # sym  WBO       # sym  WBO       # sym  WBO
 ---------------------------------------------------------------------------
     1   6 C    3.915 --    26 H    0.987    27 H    0.981    28 H    0.980
                             2 O    0.945
     2   8 O    2.062 --     1 C    0.945     3 C    0.940
     3   6 C    3.765 --     4 O    1.381     5 C    1.332     2 O    0.940
     4   8 O    1.732 --     3 C    1.381
     5   6 C    3.785 --     3 C    1.332     6 C    1.240    24 N    0.963
     6   6 C    3.752 --     8 C    1.274     5 C    1.240     7 O    1.017
     7   8 O    1.952 --     6 C    1.017    29 H    0.799
     8   6 C    3.817 --     9 O    1.386     6 C    1.274    10 N    1.039
     9   8 O    1.589 --     8 C    1.386
    10   7 N    3.021 --    11 C    1.664     8 C    1.039
    11   6 C    3.893 --    10 N    1.664    24 N    1.071    12 C    0.965
    12   6 C    3.946 --    14 C    1.001    13 C    0.976    11 C    0.965
                            15 N    0.938
    13   6 C    3.990 --    30 H    0.988    32 H    0.984    31 H    0.983
                            12 C    0.976
    14   6 C    3.995 --    12 C    1.001    35 H    0.986    34 H    0.983
                            33 H    0.980
    15   7 N    3.159 --    16 C    1.105    12 C    0.938    36 H    0.910
                            17 O    0.115
    16   6 C    3.763 --    17 O    1.451    18 C    1.140    15 N    1.105
    17   8 O    1.696 --    16 C    1.451    15 N    0.115
    18   6 C    3.692 --    19 N    1.404    16 C    1.140    23 O    0.979
    19   7 N    2.753 --    18 C    1.404    20 N    1.185
    20   7 N    2.980 --    21 C    1.628    19 N    1.185
    21   6 C    3.821 --    20 N    1.628    23 O    1.051    22 C    1.024
    22   6 C    3.994 --    21 C    1.024    37 H    0.986    39 H    0.972
                            38 H    0.970
    23   8 O    2.187 --    21 C    1.051    18 C    0.979
    24   7 N    3.167 --    11 C    1.071     5 C    0.963    25 C    0.935
    25   6 C    3.958 --    42 H    0.988    40 H    0.985    41 H    0.982
                            24 N    0.935
    26   1 H    1.019 --     1 C    0.987
    27   1 H    1.019 --     1 C    0.981
    28   1 H    1.019 --     1 C    0.980
    29   1 H    0.896 --     7 O    0.799
    30   1 H    1.007 --    13 C    0.988
    31   1 H    1.014 --    13 C    0.983
    32   1 H    1.021 --    13 C    0.984
    33   1 H    1.024 --    14 C    0.980
    34   1 H    1.011 --    14 C    0.983
    35   1 H    1.010 --    14 C    0.986
    36   1 H    0.994 --    15 N    0.910
    37   1 H    1.004 --    22 C    0.986
    38   1 H    1.001 --    22 C    0.970
    39   1 H    1.001 --    22 C    0.972
    40   1 H    1.010 --    25 C    0.985
    41   1 H    1.014 --    25 C    0.982
    42   1 H    1.028 --    25 C    0.988
 ---------------------------------------------------------------------------

           -------------------------------------------------
          | TOTAL ENERGY              -83.583389787224 Eh   |
          | GRADIENT NORM               0.000414976563 Eh/α |
          | HOMO-LUMO GAP               0.041804525879 eV   |
           -------------------------------------------------

 * finished run on 2023/06/20 at 17:41:15.747
