   * xtb version 6.5.1 (579679a) compiled by 'ehlert@majestix' on 2022-07-11
          program call               : /lustre/hpc/kemi/ree/PhD/git/ReactivityQM/dep/xtb-6.5.1/bin/xtb --gfn 1 /lustre/hpc/kemi/ree/PhD/git/ReactivityQM/calculations/RaltegravirCLI/reac02prodN04/conf12/RaltegravirCLI_reac02prodN04_conf12_gfn1.xyz --opt --vfukui --chrg 1 --uhf 0 --alpb DMSO

   ID    Z sym.   atoms
    1    6 C      1, 3-6, 9-11, 14-18, 20-22, 24
    2    7 N      2, 7, 8, 13
    3    8 O      12, 23, 25
    4    9 F      19
    5    1 H      26-47

      * Solvation model:               ALPB
        Solvent                        DMSO
        Solvent mass                       7.8130E+01 g/mol
          :  Hamiltonian                  GFN1-xTB          :
 * total energy  :   -79.4949727 Eh     change       -0.2054890E-10 Eh
 * total energy  :   -79.5107663 Eh     change       -0.1579353E-01 Eh
 * total energy  :   -79.5167490 Eh     change       -0.5982738E-02 Eh
 * total energy  :   -79.5186318 Eh     change       -0.1882821E-02 Eh
 * total energy  :   -79.5202779 Eh     change       -0.1646068E-02 Eh
 * total energy  :   -79.5213437 Eh     change       -0.1065752E-02 Eh
 * total energy  :   -79.5221663 Eh     change       -0.8226360E-03 Eh
 * total energy  :   -79.5226590 Eh     change       -0.4926928E-03 Eh
 * total energy  :   -79.5230326 Eh     change       -0.3736266E-03 Eh
 * total energy  :   -79.5232147 Eh     change       -0.1821067E-03 Eh
 * total energy  :   -79.5239093 Eh     change       -0.1125852E-04 Eh
 * total energy  :   -79.5239188 Eh     change       -0.9518141E-05 Eh
 * total energy  :   -79.5239271 Eh     change       -0.8290748E-05 Eh
 * total energy  :   -79.5239351 Eh     change       -0.7999482E-05 Eh
 * total energy  :   -79.5239411 Eh     change       -0.6011498E-05 Eh
 * total energy  :   -79.5239471 Eh     change       -0.5995488E-05 Eh
 * total energy  :   -79.5239532 Eh     change       -0.6103482E-05 Eh
 * total energy  :   -79.5239588 Eh     change       -0.5584043E-05 Eh
 * total energy  :   -79.5239636 Eh     change       -0.4859057E-05 Eh
   *** GEOMETRY OPTIMIZATION CONVERGED AFTER 29 ITERATIONS ***

 final structure:
================
47
 xtb: 6.5.1 (579679a)
C           -3.80679341455545        0.34613989074053        2.29679511818131
N           -2.61894855927857       -0.12281163155288        1.56735492194015
C           -2.36217083081420        0.14482408773277        0.26805227793824
C           -3.48832455356739        0.54697280061495       -0.69782082681246
C           -3.69821938008317        2.06747005020585       -0.72670408993057
C           -4.81126987178372       -0.17769226876947       -0.36711071490890
N           -3.09689539949947        0.10541010157643       -2.03156779352099
N           -1.11890162814662       -0.06132644730983       -0.17800915860930
C           -0.61951123350378        0.59517648907890       -1.40156752982348
C           -0.16789013457252       -0.78798227836363        0.53384864733955
C            1.09516193342278       -1.23397890586549       -0.17797493754959
O            1.09523897866704       -1.50673775550090       -1.36833529593036
N            2.16118430826081       -1.34303021403768        0.61852022370190
C            3.45099941998647       -1.80270965893808        0.10687811477335
C            4.41598956952038       -0.64567131100747       -0.02471413952682
C            5.64375374622719       -0.67430257632331        0.63058655864874
C            6.53558265316755        0.38240068918720        0.50381643044122
C            6.16924934518210        1.45917187482618       -0.28269050769903
F            7.02353610001947        2.48514272978395       -0.40848470967848
C            4.95482913163788        1.52168669471978       -0.94381101895252
C            4.07811639713316        0.45568116015243       -0.80952100050981
C           -0.48302900655705       -1.20379203028838        1.78781300494771
O            0.33554195786309       -1.94524712434029        2.53804476990070
C           -1.73505674694497       -0.81250406782530        2.40576103545479
O           -2.00399851163118       -1.06104393650305        3.56365716583693
H           -4.53402122800925       -0.45905016567744        2.37727792673103
H           -4.23166584233683        1.21304309711916        1.80863088132356
H           -3.47457484757472        0.62353926394634        3.29725476026060
H           -3.91863484835662        2.45366792153839        0.26582904276846
H           -4.53827023422772        2.29124008424787       -1.38236729175203
H           -2.81382014176658        2.57478629296775       -1.10748525957738
H           -5.37819538492415       -0.26626968759690       -1.29295469634891
H           -5.42659096090756        0.37503281861454        0.33699223836782
H           -4.62276978609057       -1.17873855622574        0.01538423731746
H           -3.23267743633618       -0.89432937576448       -2.10705884763097
H           -3.69604599274007        0.55380489577139       -2.71061733183489
H           -0.65669982257820       -0.09608725653057       -2.24017118824382
H            0.40824424876106        0.89985949911770       -1.21350130938818
H           -1.21831352251869        1.47178347654474       -1.61285863044917
H            2.11366164377088       -1.08272306210467        1.58817786550306
H            3.84138429405039       -2.55663527648867        0.79516529562697
H            3.27339322991480       -2.26578910727814       -0.86919178607209
H            5.90894449528235       -1.52617947080993        1.24558993763797
H            7.49296412568762        0.37247611491108        1.00849456924497
H            4.70283036060563        2.38410569078097       -1.54677171092010
H            3.11956342790582        0.48211129636334       -1.31413858212377
H           -0.06688004774239       -2.10089685545799        3.41319533389850

          :  Hamiltonian                  GFN1-xTB          :
         :: total energy             -79.523963640180 Eh    ::
         :: gradient norm              0.000564101871 Eh/a0 ::
         :: HOMO-LUMO gap              2.316682898482 eV    ::
         :: SCC energy               -80.424521666626 Eh    ::
         :: -> Gsolv                  -0.107612837492 Eh    ::
         :: repulsion energy           0.931816391750 Eh    ::

    * Orbital Energies and Occupations

         #    Occupation            Energy/Eh            Energy/eV
      -------------------------------------------------------------
         1        2.0000           -0.8793516             -23.9284
       ...           ...                  ...                  ...
        55        2.0000           -0.5211181             -14.1803
        56        2.0000           -0.5167613             -14.0618
        57        2.0000           -0.5147378             -14.0067
        58        2.0000           -0.5096928             -13.8694
        59        2.0000           -0.5082351             -13.8298
        60        2.0000           -0.5055001             -13.7554
        61        2.0000           -0.4814097             -13.0998
        62        2.0000           -0.4793353             -13.0434
        63        2.0000           -0.4700289             -12.7901
        64        2.0000           -0.4616718             -12.5627
        65        2.0000           -0.4589861             -12.4896
        66        2.0000           -0.4443146             -12.0904
        67        2.0000           -0.4374335             -11.9032 (HOMO)
        68                         -0.3522970              -9.5865 (LUMO)
        69                         -0.3499844              -9.5236
        70                         -0.2811141              -7.6495
        71                         -0.2756718              -7.5014
        72                         -0.2667065              -7.2575
        73                         -0.2086776              -5.6784
        74                         -0.1622696              -4.4156
        75                         -0.1542072              -4.1962
        76                         -0.1527795              -4.1573
        77                         -0.1469919              -3.9999
        78                         -0.1368212              -3.7231
       ...                                ...                  ...
       144                          0.6961914              18.9443
      -------------------------------------------------------------
                  HL-Gap            0.0851365 Eh            2.3167 eV

Wiberg/Mayer (AO) data.
largest (>0.10) Wiberg bond orders for each atom

     #   Z sym  total        # sym  WBO       # sym  WBO       # sym  WBO
 ---------------------------------------------------------------------------
     1   6 C    3.896 --    27 H    0.978    26 H    0.972    28 H    0.967
                             2 N    0.910
     2   7 N    3.528 --     3 C    1.279    24 C    1.073     1 C    0.910
                            25 O    0.119
     3   6 C    3.886 --     8 N    1.369     2 N    1.279     4 C    0.968
     4   6 C    3.954 --     7 N    0.994     5 C    0.978     6 C    0.977
                             3 C    0.968
     5   6 C    3.987 --    30 H    0.979     4 C    0.978    29 H    0.978
                            31 H    0.977
     6   6 C    3.987 --    34 H    0.984    33 H    0.979    32 H    0.978
                             4 C    0.977
     7   7 N    2.976 --     4 C    0.994    35 H    0.935    36 H    0.929
     8   7 N    3.575 --     3 C    1.369    10 C    1.099     9 C    0.901
     9   6 C    3.891 --    39 H    0.977    38 H    0.975    37 H    0.966
                             8 N    0.901
    10   6 C    3.922 --    22 C    1.536     8 N    1.099    11 C    0.959
    11   6 C    3.920 --    12 O    1.571    13 N    1.311    10 C    0.959
    12   8 O    1.911 --    11 C    1.571    13 N    0.186
    13   7 N    3.386 --    11 C    1.311    14 C    0.930    40 H    0.891
                            12 O    0.186
    14   6 C    3.933 --    15 C    0.995    41 H    0.973    42 H    0.963
                            13 N    0.930
    15   6 C    3.988 --    16 C    1.422    21 C    1.413    14 C    0.995
    16   6 C    3.993 --    17 C    1.440    15 C    1.422    43 H    0.970
                            20 C    0.109
    17   6 C    3.991 --    16 C    1.440    18 C    1.403    44 H    0.969
                            21 C    0.111
    18   6 C    3.862 --    17 C    1.403    20 C    1.396    19 F    0.929
    19   9 F    1.059 --    18 C    0.929
    20   6 C    3.992 --    21 C    1.449    18 C    1.396    45 H    0.969
                            16 C    0.109
    21   6 C    3.994 --    20 C    1.449    15 C    1.413    46 H    0.971
                            17 C    0.111
    22   6 C    3.927 --    10 C    1.536    23 O    1.109    24 C    1.066
    23   8 O    2.088 --    22 C    1.109    47 H    0.790
    24   6 C    3.908 --    25 O    1.622     2 N    1.073    22 C    1.066
    25   8 O    1.954 --    24 C    1.622     2 N    0.119
    26   1 H    0.997 --     1 C    0.972
    27   1 H    1.004 --     1 C    0.978
    28   1 H    0.999 --     1 C    0.967
    29   1 H    1.001 --     5 C    0.978
    30   1 H    0.995 --     5 C    0.979
    31   1 H    1.001 --     5 C    0.977
    32   1 H    0.998 --     6 C    0.978
    33   1 H    1.000 --     6 C    0.979
    34   1 H    0.997 --     6 C    0.984
    35   1 H    0.948 --     7 N    0.935
    36   1 H    0.944 --     7 N    0.929
    37   1 H    1.023 --     9 C    0.966
    38   1 H    1.003 --     9 C    0.975
    39   1 H    1.017 --     9 C    0.977
    40   1 H    0.938 --    13 N    0.891
    41   1 H    1.001 --    14 C    0.973
    42   1 H    1.007 --    14 C    0.963
    43   1 H    0.998 --    16 C    0.970
    44   1 H    0.997 --    17 C    0.969
    45   1 H    0.997 --    20 C    0.969
    46   1 H    1.002 --    21 C    0.971
    47   1 H    0.824 --    23 O    0.790
 ---------------------------------------------------------------------------

           -------------------------------------------------
          | TOTAL ENERGY              -79.523963640180 Eh   |
          | GRADIENT NORM               0.000564101871 Eh/α |
          | HOMO-LUMO GAP               2.316682898482 eV   |
           -------------------------------------------------

 * finished run on 2023/06/20 at 15:20:10.512
