   * xtb version 6.5.1 (579679a) compiled by 'ehlert@majestix' on 2022-07-11
          program call               : /lustre/hpc/kemi/ree/PhD/git/ReactivityQM/dep/xtb-6.5.1/bin/xtb --gfn 1 /lustre/hpc/kemi/ree/PhD/git/ReactivityQM/calculations/R02deprot/reac01prodN19/conf16/R02deprot_reac01prodN19_conf16_gfn1.xyz --opt --vfukui --chrg 0 --uhf 0 --alpb DMSO

   ID    Z sym.   atoms
    1    6 C      1, 3, 5, 7-10, 12, 14, 17, 18, 21, 23, 24
    2    8 O      2, 4, 13, 19, 22, 25
    3    7 N      6, 11, 15, 16, 20
    4    1 H      26-42

      * Solvation model:               ALPB
        Solvent                        DMSO
        Solvent mass                       7.8130E+01 g/mol
          :  Hamiltonian                  GFN1-xTB          :
 * total energy  :   -82.9897859 Eh     change       -0.6636469E-11 Eh
 * total energy  :   -83.0024565 Eh     change       -0.1267057E-01 Eh
 * total energy  :   -83.0073557 Eh     change       -0.4899266E-02 Eh
 * total energy  :   -83.0082977 Eh     change       -0.9419849E-03 Eh
 * total energy  :   -83.0088774 Eh     change       -0.5796450E-03 Eh
 * total energy  :   -83.0090657 Eh     change       -0.1883097E-03 Eh
 * total energy  :   -83.0091839 Eh     change       -0.1182406E-03 Eh
 * total energy  :   -83.0092577 Eh     change       -0.7379625E-04 Eh
 * total energy  :   -83.0093120 Eh     change       -0.5427953E-04 Eh
 * total energy  :   -83.0093595 Eh     change       -0.4746444E-04 Eh
 * total energy  :   -83.0101007 Eh     change       -0.1290879E-04 Eh
 * total energy  :   -83.0101106 Eh     change       -0.9929406E-05 Eh
 * total energy  :   -83.0101219 Eh     change       -0.1121744E-04 Eh
 * total energy  :   -83.0101374 Eh     change       -0.1557978E-04 Eh
 * total energy  :   -83.0101534 Eh     change       -0.1596942E-04 Eh
 * total energy  :   -83.0101653 Eh     change       -0.1194430E-04 Eh
 * total energy  :   -83.0101732 Eh     change       -0.7862253E-05 Eh
 * total energy  :   -83.0101787 Eh     change       -0.5512947E-05 Eh
 * total energy  :   -83.0101834 Eh     change       -0.4697434E-05 Eh
   *** GEOMETRY OPTIMIZATION CONVERGED AFTER 58 ITERATIONS ***

 final structure:
================
42
 xtb: 6.5.1 (579679a)
C           -5.49635043359432        2.72441616113335        1.20352631297401
O           -4.34588502131564        1.91874847841208        0.93510496485803
C           -4.46043794027237        1.03416461027476       -0.05615154625066
O           -5.47025912403985        0.89723399738348       -0.70589798207429
C           -3.19990552226079        0.25513240257907       -0.25578222495511
N           -2.16036961824240        0.56342310205671        0.54737830789877
C           -1.02554707297864       -0.07716222245406        0.40105721409004
C            0.12622894880838        0.26054292804933        1.32622219389810
C           -0.00625402967346        1.68921941738939        1.85965926333904
C            0.13829547075587       -0.76554691197168        2.47134776235197
N            1.35064341907955        0.12456302332609        0.53484968830264
C            2.58771082042874        0.33861507721237        1.01654963517736
O            2.86065617676113        0.70504505592226        2.14752037189720
C            3.61192838604051        0.09328136168755       -0.03465684477429
N            3.38067109049833       -0.28817179984851       -1.25516190243983
N            4.59044763977253       -0.36638853340650       -1.87835267006142
C            5.48242629478664       -0.02707601412778       -0.99768695721329
C            6.94844077572577        0.05090127505070       -1.18176687058723
O            4.92702781454610        0.27391294480376        0.18558504565656
N           -0.80817161937228       -1.05867265987791       -0.49361683577173
C           -1.80771975948036       -1.39013481255353       -1.28175310743389
O           -1.67365819667997       -2.36449456729160       -2.18663006126008
C           -0.42507452033265       -3.05702913227365       -2.22071272150379
C           -3.06800377918450       -0.73969076843917       -1.21247008428732
O           -4.06199230866197       -1.09230031187062       -2.04080252050626
H           -6.34765618099206        2.08998410263671        1.46160716824930
H           -5.74698152467323        3.32516297786871        0.32591676044956
H           -5.23725790143568        3.36865382247792        2.04095818654680
H            0.78989086274949        1.90473081083774        2.56955668495043
H           -0.96844163630455        1.79670106150598        2.35801812904382
H            0.04531180919163        2.40032182279765        1.03620589452610
H           -0.80198352402671       -0.71184588891611        3.01763268536346
H            0.25660792849095       -1.76794938970414        2.06278063592210
H            0.96062059832888       -0.55666808078108        3.15352455402489
H            1.25039601429935       -0.25461619252534       -0.39762635407902
H            7.19709004653814       -0.15261989596173       -2.22038976412546
H            7.44416762935003       -0.67779491570026       -0.54031412095193
H            7.30600610556089        1.04253353533152       -0.90563556055192
H           -0.25085667668093       -3.56265378607139       -1.26735736871862
H            0.39124975609923       -2.35542589724725       -2.41077601033090
H           -0.49742743164759       -3.78398305423901       -3.02735086667738
H           -3.78558276596671       -1.80706213347760       -2.63179308496065

          :  Hamiltonian                  GFN1-xTB          :
         :: total energy             -83.010183418796 Eh    ::
         :: gradient norm              0.000246482815 Eh/a0 ::
         :: HOMO-LUMO gap              2.926464089606 eV    ::
         :: SCC energy               -83.787749917117 Eh    ::
         :: -> Gsolv                  -0.051463808026 Eh    ::
         :: repulsion energy           0.802531008146 Eh    ::

    * Orbital Energies and Occupations

         #    Occupation            Energy/Eh            Energy/eV
      -------------------------------------------------------------
         1        2.0000           -0.8622684             -23.4635
       ...           ...                  ...                  ...
        55        2.0000           -0.5013014             -13.6411
        56        2.0000           -0.4981959             -13.5566
        57        2.0000           -0.4971543             -13.5283
        58        2.0000           -0.4813443             -13.0980
        59        2.0000           -0.4809217             -13.0865
        60        2.0000           -0.4768988             -12.9771
        61        2.0000           -0.4715773             -12.8323
        62        2.0000           -0.4604703             -12.5300
        63        2.0000           -0.4581967             -12.4682
        64        2.0000           -0.4496989             -12.2369
        65        2.0000           -0.4448347             -12.1046
        66        2.0000           -0.4361649             -11.8687
        67        2.0000           -0.4316432             -11.7456 (HOMO)
        68                         -0.3240977              -8.8191 (LUMO)
        69                         -0.3076283              -8.3710
        70                         -0.2844061              -7.7391
        71                         -0.2557909              -6.9604
        72                         -0.2394266              -6.5151
        73                         -0.1958164              -5.3284
        74                         -0.1564647              -4.2576
        75                         -0.1422501              -3.8708
        76                         -0.1418722              -3.8605
        77                         -0.1386968              -3.7741
        78                         -0.1216885              -3.3113
       ...                                ...                  ...
       134                          0.7293260              19.8460
      -------------------------------------------------------------
                  HL-Gap            0.1075456 Eh            2.9265 eV

Wiberg/Mayer (AO) data.
largest (>0.10) Wiberg bond orders for each atom

     #   Z sym  total        # sym  WBO       # sym  WBO       # sym  WBO
 ---------------------------------------------------------------------------
     1   6 C    3.872 --    28 H    0.986    27 H    0.979    26 H    0.979
                             2 O    0.898
     2   8 O    2.203 --     3 C    1.114     1 C    0.898     4 O    0.136
     3   6 C    3.849 --     4 O    1.665     2 O    1.114     5 C    0.992
     4   8 O    1.928 --     3 C    1.665     2 O    0.136
     5   6 C    3.968 --    24 C    1.402     6 N    1.290     3 C    0.992
     6   7 N    3.030 --     7 C    1.477     5 C    1.290
     7   6 C    3.945 --     6 N    1.477    20 N    1.300     8 C    0.982
     8   6 C    3.935 --     9 C    0.993     7 C    0.982    10 C    0.973
                            11 N    0.923
     9   6 C    3.991 --     8 C    0.993    31 H    0.986    30 H    0.984
                            29 H    0.982
    10   6 C    3.990 --    32 H    0.986    33 H    0.986    34 H    0.981
                             8 C    0.973
    11   7 N    3.357 --    12 C    1.268     8 C    0.923    35 H    0.887
                            13 O    0.181
    12   6 C    3.920 --    13 O    1.584    11 N    1.268    14 C    0.986
    13   8 O    1.903 --    12 C    1.584    11 N    0.181
    14   6 C    3.873 --    15 N    1.612    19 O    1.064    12 C    0.986
    15   7 N    3.014 --    14 C    1.612    16 N    1.198
    16   7 N    2.980 --    17 C    1.607    15 N    1.198
    17   6 C    3.871 --    16 N    1.607    19 O    1.082    18 C    1.031
    18   6 C    3.987 --    17 C    1.031    36 H    0.983    38 H    0.965
                            37 H    0.962
    19   8 O    2.329 --    17 C    1.082    14 C    1.064
    20   7 N    3.035 --    21 C    1.414     7 C    1.300
    21   6 C    3.907 --    20 N    1.414    24 C    1.206    22 O    1.084
    22   8 O    2.184 --    21 C    1.084    23 C    0.896
    23   6 C    3.870 --    41 H    0.984    40 H    0.980    39 H    0.980
                            22 O    0.896
    24   6 C    3.924 --     5 C    1.402    21 C    1.206    25 O    1.092
    25   8 O    2.070 --    24 C    1.092    42 H    0.816
    26   1 H    1.007 --     1 C    0.979
    27   1 H    1.007 --     1 C    0.979
    28   1 H    1.011 --     1 C    0.986
    29   1 H    1.011 --     9 C    0.982
    30   1 H    1.013 --     9 C    0.984
    31   1 H    1.004 --     9 C    0.986
    32   1 H    1.002 --    10 C    0.986
    33   1 H    1.005 --    10 C    0.986
    34   1 H    1.008 --    10 C    0.981
    35   1 H    0.968 --    11 N    0.887
    36   1 H    0.999 --    18 C    0.983
    37   1 H    0.997 --    18 C    0.962
    38   1 H    0.997 --    18 C    0.965
    39   1 H    1.008 --    23 C    0.980
    40   1 H    1.010 --    23 C    0.980
    41   1 H    1.009 --    23 C    0.984
    42   1 H    0.844 --    25 O    0.816
 ---------------------------------------------------------------------------

           -------------------------------------------------
          | TOTAL ENERGY              -83.010183418796 Eh   |
          | GRADIENT NORM               0.000246482815 Eh/α |
          | HOMO-LUMO GAP               2.926464089606 eV   |
           -------------------------------------------------

 * finished run on 2023/06/20 at 18:31:00.410
