   * xtb version 6.5.1 (579679a) compiled by 'ehlert@majestix' on 2022-07-11
          program call               : /lustre/hpc/kemi/ree/PhD/git/ReactivityQM/dep/xtb-6.5.1/bin/xtb --gfn 1 /lustre/hpc/kemi/ree/PhD/git/ReactivityQM/calculations/RaltegravirCLI/reac02prodE05/conf03/RaltegravirCLI_reac02prodE05_conf03_gfn1.xyz --opt --vfukui --chrg -1 --uhf 0 --alpb DMSO

   ID    Z sym.   atoms
    1    6 C      1, 3, 5-9, 11-13, 15-18, 21, 22, 24
    2    8 O      2, 23, 25
    3    7 N      4, 14, 19, 20
    4    9 F      10
    5    1 H      26-47

      * Solvation model:               ALPB
        Solvent                        DMSO
        Solvent mass                       7.8130E+01 g/mol
          :  Hamiltonian                  GFN1-xTB          :
 * total energy  :   -80.1470405 Eh     change       -0.1451070E-09 Eh
 * total energy  :   -80.1617236 Eh     change       -0.1468311E-01 Eh
 * total energy  :   -80.1691166 Eh     change       -0.7393037E-02 Eh
 * total energy  :   -80.1709700 Eh     change       -0.1853376E-02 Eh
 * total energy  :   -80.1726642 Eh     change       -0.1694257E-02 Eh
 * total energy  :   -80.1736439 Eh     change       -0.9796500E-03 Eh
 * total energy  :   -80.1746639 Eh     change       -0.1020029E-02 Eh
 * total energy  :   -80.1756155 Eh     change       -0.9515380E-03 Eh
 * total energy  :   -80.1763517 Eh     change       -0.7362735E-03 Eh
 * total energy  :   -80.1767364 Eh     change       -0.3847164E-03 Eh
 * total energy  :   -80.1828819 Eh     change       -0.9330181E-05 Eh
 * total energy  :   -80.1828922 Eh     change       -0.1032146E-04 Eh
 * total energy  :   -80.1829034 Eh     change       -0.1114895E-04 Eh
 * total energy  :   -80.1829148 Eh     change       -0.1140577E-04 Eh
 * total energy  :   -80.1829255 Eh     change       -0.1072981E-04 Eh
 * total energy  :   -80.1829350 Eh     change       -0.9532492E-05 Eh
 * total energy  :   -80.1829434 Eh     change       -0.8397883E-05 Eh
 * total energy  :   -80.1829520 Eh     change       -0.8562362E-05 Eh
 * total energy  :   -80.1829559 Eh     change       -0.3904339E-05 Eh
   *** GEOMETRY OPTIMIZATION CONVERGED AFTER 68 ITERATIONS ***

 final structure:
================
47
 xtb: 6.5.1 (579679a)
C            1.93381771135235        3.07556026391735        2.18411537753462
O            1.69052468404208        2.84888271007363        0.80100522374397
C            0.94896470763024        1.70990215759825        0.50145684007625
N            1.74308858278094        0.51594376527844        0.33562580487133
C            2.60210477359232        0.58642672105761       -0.85989214542192
C            3.39133566927616       -0.68912689097450       -1.00291619591877
C            3.87538555191668       -1.34240623833819        0.13052789072506
C            4.59607270384758       -2.52244046897515        0.01866142105313
C            4.82308174540665       -3.03306243203493       -1.24662436313395
F            5.51965971902401       -4.18070031341457       -1.36624078834606
C            4.36130353586382       -2.41451378181229       -2.39366053546161
C            3.64017992306389       -1.23533773458859       -2.26051372748297
C           -0.41456679305009        1.65599310769294        0.44872827661526
N           -0.96178583478202        0.41702476549371        0.07340800607808
C           -2.23336060570212        0.24197095545151       -0.05955892645839
C           -2.65010771169991       -1.18131348581370       -0.44437915460629
C           -3.06498846778715       -1.94289555825336        0.82336427983751
C           -1.45326229453170       -1.90455130078318       -1.08680512534932
N           -3.76660059634790       -1.17562435290072       -1.39091451188290
N           -3.15500509011410        1.21942579516003        0.17818129705144
C           -4.59260546342365        1.04504287532886        0.02015267152368
C           -2.71762307268919        2.53451443209673        0.59629300200665
O           -3.58813824386836        3.42381348363539        0.83015243001815
C           -1.35626209127767        2.70044898743091        0.71199097515420
O           -0.90400689229025        3.96366894795222        1.14581825289509
H            0.99846152680652        3.27250170461704        2.72415796912451
H            2.58279882265488        3.95107118964733        2.26202512144016
H            2.43602591478029        2.21484092197675        2.64549239518278
H            1.08652785507760       -0.25801705292492        0.19863004565831
H            2.00785546628088        0.76887517620431       -1.76919910338386
H            3.28875367145874        1.43295816933012       -0.73259178057015
H            3.67333422128308       -0.92444391164883        1.11156510044687
H            4.97280187970114       -3.04042728801988        0.89108898942909
H            4.55776402967002       -2.84833002671334       -3.36518085463893
H            3.26626500305616       -0.73969151261043       -3.14953768880919
H           -2.24745855691206       -1.92931372347530        1.54430526903094
H           -3.29542730881953       -2.97880278142201        0.57595425393135
H           -3.94456295012665       -1.49575355913880        1.28453999619962
H           -1.75716461653968       -2.89743714233394       -1.41503363921159
H           -0.63755035925187       -2.00114965776893       -0.37098195913288
H           -1.09322977305408       -1.34214952007268       -1.94766084693938
H           -4.13195136939935       -2.11363331973025       -1.47160691886538
H           -3.42724529331137       -0.90988999920998       -2.30702438833463
H           -5.09548117953968        1.88491280058361        0.50628974463740
H           -4.87063881468966        1.03084146545807       -1.03618148438937
H           -4.93019125914413        0.11830732556771        0.48125013054070
H           -1.70689606021632        4.48808333142680        1.29935237352407

          :  Hamiltonian                  GFN1-xTB          :
         :: total energy             -80.182955899890 Eh    ::
         :: gradient norm              0.000190624237 Eh/a0 ::
         :: HOMO-LUMO gap              0.805652308437 eV    ::
         :: SCC energy               -81.037247433733 Eh    ::
         :: -> Gsolv                  -0.106291336544 Eh    ::
         :: repulsion energy           0.884395710907 Eh    ::

    * Orbital Energies and Occupations

         #    Occupation            Energy/Eh            Energy/eV
      -------------------------------------------------------------
         1        2.0000           -0.8540342             -23.2395
       ...           ...                  ...                  ...
        56        2.0000           -0.4598425             -12.5130
        57        2.0000           -0.4538571             -12.3501
        58        2.0000           -0.4514286             -12.2840
        59        2.0000           -0.4399308             -11.9711
        60        2.0000           -0.4244804             -11.5507
        61        2.0000           -0.4232352             -11.5168
        62        2.0000           -0.4091983             -11.1349
        63        2.0000           -0.3957982             -10.7702
        64        2.0000           -0.3891022             -10.5880
        65        2.0000           -0.3806362             -10.3576
        66        2.0000           -0.3773604             -10.2685
        67        2.0000           -0.3561895              -9.6924
        68        2.0000           -0.2914307              -7.9302 (HOMO)
        69        0.0000           -0.2618235              -7.1246 (LUMO)
        70                         -0.2521446              -6.8612
        71                         -0.2166912              -5.8965
        72                         -0.1812855              -4.9330
        73                         -0.1324575              -3.6044
        74                         -0.1132410              -3.0814
        75                         -0.1094254              -2.9776
        76                         -0.1060448              -2.8856
        77                         -0.1027708              -2.7965
        78                         -0.0984904              -2.6801
        79                         -0.0918622              -2.4997
       ...                                ...                  ...
       144                          0.7015258              19.0895
      -------------------------------------------------------------
                  HL-Gap            0.0296072 Eh            0.8057 eV

Wiberg/Mayer (AO) data.
largest (>0.10) Wiberg bond orders for each atom

     #   Z sym  total        # sym  WBO       # sym  WBO       # sym  WBO
 ---------------------------------------------------------------------------
     1   6 C    3.923 --    27 H    0.986    28 H    0.983    26 H    0.980
                             2 O    0.937
     2   8 O    2.015 --     3 C    0.948     1 C    0.937
     3   6 C    3.803 --    13 C    1.535     4 N    0.976     2 O    0.948
     4   7 N    3.043 --     3 C    0.976     5 C    0.967    29 H    0.938
     5   6 C    3.977 --     6 C    1.010    30 H    0.971     4 N    0.967
                            31 H    0.964
     6   6 C    3.985 --    12 C    1.415     7 C    1.408     5 C    1.010
     7   6 C    3.993 --     8 C    1.447     6 C    1.408    32 H    0.971
                            11 C    0.110
     8   6 C    3.992 --     7 C    1.447     9 C    1.400    33 H    0.971
                            12 C    0.109
     9   6 C    3.854 --    11 C    1.403     8 C    1.400    10 F    0.915
    10   9 F    1.039 --     9 C    0.915
    11   6 C    3.991 --    12 C    1.441     9 C    1.403    34 H    0.970
                             7 C    0.110
    12   6 C    3.993 --    11 C    1.441     6 C    1.415    35 H    0.972
                             8 C    0.109
    13   6 C    3.951 --     3 C    1.535    24 C    1.161    14 N    1.071
    14   7 N    3.026 --    15 C    1.599    13 C    1.071    20 N    0.132
    15   6 C    3.943 --    14 N    1.599    20 N    1.192    16 C    0.968
    16   6 C    3.965 --    18 C    0.991    17 C    0.988    19 N    0.979
                            15 C    0.968
    17   6 C    3.995 --    16 C    0.988    36 H    0.986    37 H    0.985
                            38 H    0.980
    18   6 C    3.997 --    16 C    0.991    39 H    0.987    41 H    0.985
                            40 H    0.982
    19   7 N    2.978 --    16 C    0.979    42 H    0.947    43 H    0.947
    20   7 N    3.400 --    15 C    1.192    21 C    0.954    22 C    0.945
                            14 N    0.132
    21   6 C    3.955 --    45 H    0.982    46 H    0.981    44 H    0.975
                            20 N    0.954
    22   6 C    3.913 --    24 C    1.421    23 O    1.365    20 N    0.945
    23   8 O    1.728 --    22 C    1.365    24 C    0.136
    24   6 C    3.845 --    22 C    1.421    13 C    1.161    25 O    0.954
                            23 O    0.136
    25   8 O    1.939 --    24 C    0.954    47 H    0.856
    26   1 H    1.034 --     1 C    0.980
    27   1 H    1.021 --     1 C    0.986
    28   1 H    1.019 --     1 C    0.983
    29   1 H    1.002 --     4 N    0.938
    30   1 H    1.009 --     5 C    0.971
    31   1 H    1.025 --     5 C    0.964
    32   1 H    1.015 --     7 C    0.971
    33   1 H    1.000 --     8 C    0.971
    34   1 H    0.999 --    11 C    0.970
    35   1 H    1.002 --    12 C    0.972
    36   1 H    1.008 --    17 C    0.986
    37   1 H    1.003 --    17 C    0.985
    38   1 H    1.008 --    17 C    0.980
    39   1 H    1.006 --    18 C    0.987
    40   1 H    1.023 --    18 C    0.982
    41   1 H    1.014 --    18 C    0.985
    42   1 H    0.962 --    19 N    0.947
    43   1 H    0.964 --    19 N    0.947
    44   1 H    1.024 --    21 C    0.975
    45   1 H    1.025 --    21 C    0.982
    46   1 H    1.023 --    21 C    0.981
    47   1 H    0.899 --    25 O    0.856
 ---------------------------------------------------------------------------

           -------------------------------------------------
          | TOTAL ENERGY              -80.182955899890 Eh   |
          | GRADIENT NORM               0.000190624237 Eh/α |
          | HOMO-LUMO GAP               0.805652308437 eV   |
           -------------------------------------------------

 * finished run on 2023/06/20 at 15:02:40.024
