   * xtb version 6.5.1 (579679a) compiled by 'ehlert@majestix' on 2022-07-11
          program call               : /lustre/hpc/kemi/ree/PhD/git/ReactivityQM/dep/xtb-6.5.1/bin/xtb --gfn 1 /lustre/hpc/kemi/ree/PhD/git/ReactivityQM/calculations/R02oxygendeprot/reac01prodN06/conf15/R02oxygendeprot_reac01prodN06_conf15_gfn1.xyz --opt --vfukui --chrg 0 --uhf 0 --alpb DMSO

   ID    Z sym.   atoms
    1    6 C      1, 3, 5, 7-10, 12, 14, 16, 17, 20, 22, 24
    2    8 O      2, 4, 13, 15, 23, 25
    3    7 N      6, 11, 18, 19, 21
    4    1 H      26-42

      * Solvation model:               ALPB
        Solvent                        DMSO
        Solvent mass                       7.8130E+01 g/mol
          :  Hamiltonian                  GFN1-xTB          :
 * total energy  :   -82.9552725 Eh     change       -0.1925571E-10 Eh
 * total energy  :   -82.9706239 Eh     change       -0.1535146E-01 Eh
 * total energy  :   -82.9777574 Eh     change       -0.7133495E-02 Eh
 * total energy  :   -82.9789412 Eh     change       -0.1183802E-02 Eh
 * total energy  :   -82.9797803 Eh     change       -0.8390954E-03 Eh
 * total energy  :   -82.9801390 Eh     change       -0.3586854E-03 Eh
 * total energy  :   -82.9804821 Eh     change       -0.3431148E-03 Eh
 * total energy  :   -82.9807626 Eh     change       -0.2805304E-03 Eh
 * total energy  :   -82.9809789 Eh     change       -0.2162386E-03 Eh
 * total energy  :   -82.9811407 Eh     change       -0.1618063E-03 Eh
 * total energy  :   -82.9823813 Eh     change       -0.1336721E-04 Eh
 * total energy  :   -82.9823970 Eh     change       -0.1566452E-04 Eh
 * total energy  :   -82.9824164 Eh     change       -0.1945975E-04 Eh
 * total energy  :   -82.9824168 Eh     change       -0.3845771E-06 Eh
 * total energy  :   -82.9824353 Eh     change       -0.1846397E-04 Eh
 * total energy  :   -82.9824447 Eh     change       -0.9412511E-05 Eh
 * total energy  :   -82.9824534 Eh     change       -0.8684156E-05 Eh
 * total energy  :   -82.9824623 Eh     change       -0.8928973E-05 Eh
 * total energy  :   -82.9824646 Eh     change       -0.2327982E-05 Eh
   *** GEOMETRY OPTIMIZATION CONVERGED AFTER 48 ITERATIONS ***

 final structure:
================
42
 xtb: 6.5.1 (579679a)
C            6.77603596206765        0.96371238331771       -1.70140499572466
O            5.58806526006003        1.37199558141670       -1.03491443104572
C            4.64464029377310        0.41683002126237       -0.86882565057029
O            4.82803493263674       -0.72481326005476       -1.27074811384486
C            3.43748911658423        0.86759718545451       -0.18367515967184
N            2.50702003676874       -0.13947754729123       -0.02742478290330
C            1.38904172890795        0.08708412849257        0.55247433138874
C            0.38845338453827       -1.02839121969032        0.75732587973495
C            0.32925019028373       -1.40084624545004        2.24488191704127
C            0.76095394889603       -2.23356264725473       -0.10864159555946
N           -0.93440386019274       -0.51516918297887        0.33257468864132
C           -2.05746266714347       -1.22448050427175        0.42309315120743
O           -2.20356099271747       -2.35695833849708        0.85008863714777
C           -3.25656723847429       -0.48267765984378       -0.07866228540646
O           -3.25811411070469        0.75717292040339       -0.54884632801597
C           -4.53482795509497        1.02571357283761       -0.87965704104772
C           -4.90696026232899        2.33520633615255       -1.44119395833824
N           -5.30736100682707        0.00736656021348       -0.63447958802995
N           -4.49167374873710       -0.93597280548335       -0.13093040689511
C           -5.01248240140844       -2.22521347593923        0.27121995188093
N            1.06390464094729        1.32988335062456        1.06050213877816
C            1.88903434704308        2.42684936308248        0.96847003281148
O            1.52606646845992        3.50031101351500        1.43521873621599
C            3.21738804563172        2.19334921068302        0.27985372295506
O            4.00189540254449        3.14955098864323        0.16984409418319
H            7.44210938519266        1.82555634744538       -1.72255334278161
H            7.25397541879963        0.13688289555346       -1.16709566868582
H            6.55253989263950        0.64157689636825       -2.72308925597166
H            1.32457963865748       -1.69052878650033        2.57994853710078
H           -0.00906962926876       -0.54711060065409        2.82898752891715
H           -0.35386813166606       -2.23198316029415        2.40529291815768
H            0.07391142941888       -3.05735426783196        0.07038906888612
H            1.77461325369427       -2.54752032480644        0.13872895632571
H            0.72490845913494       -1.95744828517608       -1.16145058454397
H           -0.98450875919756        0.40458970766986       -0.07564619171771
H           -4.40345036300527        2.48088243252149       -2.39807379901819
H           -5.98403901915351        2.38401957559862       -1.58128868905384
H           -4.58066026713398        3.12858500012754       -0.76797823741843
H           -4.47075432069658       -3.00428823678231       -0.26310044692252
H           -4.85065732027727       -2.34883923913044        1.34112857545904
H           -6.07187530025081       -2.25030401459212        0.03251979762293
H            0.17838611758635        1.46822233114149        1.51368388872182

          :  Hamiltonian                  GFN1-xTB          :
         :: total energy             -82.982464625766 Eh    ::
         :: gradient norm              0.000568357164 Eh/a0 ::
         :: HOMO-LUMO gap              0.185352457496 eV    ::
         :: SCC energy               -83.771047842823 Eh    ::
         :: -> Gsolv                  -0.111356119363 Eh    ::
         :: repulsion energy           0.813657114099 Eh    ::

    * Orbital Energies and Occupations

         #    Occupation            Energy/Eh            Energy/eV
      -------------------------------------------------------------
         1        2.0000           -0.9289633             -25.2784
       ...           ...                  ...                  ...
        55        2.0000           -0.5089471             -13.8492
        56        2.0000           -0.5044861             -13.7278
        57        2.0000           -0.5008313             -13.6283
        58        2.0000           -0.4916062             -13.3773
        59        2.0000           -0.4844926             -13.1837
        60        2.0000           -0.4711166             -12.8197
        61        2.0000           -0.4690521             -12.7636
        62        2.0000           -0.4647271             -12.6459
        63        2.0000           -0.4491079             -12.2208
        64        2.0000           -0.4424837             -12.0406
        65        2.0000           -0.4263695             -11.6021
        66        2.0000           -0.3870211             -10.5314
        67        1.9460           -0.3743528             -10.1867 (HOMO)
        68        0.0540           -0.3675413             -10.0013 (LUMO)
        69                         -0.3166862              -8.6175
        70                         -0.2772723              -7.5450
        71                         -0.2502616              -6.8100
        72                         -0.2450753              -6.6688
        73                         -0.2039837              -5.5507
        74                         -0.1646650              -4.4808
        75                         -0.1633836              -4.4459
        76                         -0.1279999              -3.4831
        77                         -0.1254653              -3.4141
        78                         -0.1233336              -3.3561
       ...                                ...                  ...
       134                          0.7542067              20.5230
      -------------------------------------------------------------
                  HL-Gap            0.0068116 Eh            0.1854 eV

Wiberg/Mayer (AO) data.
largest (>0.10) Wiberg bond orders for each atom

     #   Z sym  total        # sym  WBO       # sym  WBO       # sym  WBO
 ---------------------------------------------------------------------------
     1   6 C    3.895 --    26 H    0.987    28 H    0.980    27 H    0.980
                             2 O    0.921
     2   8 O    2.166 --     3 C    1.059     1 C    0.921     4 O    0.113
     3   6 C    3.849 --     4 O    1.584     5 C    1.099     2 O    1.059
     4   8 O    1.853 --     3 C    1.584     2 O    0.113
     5   6 C    3.885 --    24 C    1.260     6 N    1.166     3 C    1.099
                            25 O    0.122
     6   7 N    3.031 --     7 C    1.626     5 C    1.166
     7   6 C    3.918 --     6 N    1.626    21 N    1.092     8 C    0.979
     8   6 C    3.910 --    10 C    0.992     9 C    0.981     7 C    0.979
                            11 N    0.890
     9   6 C    3.985 --    30 H    0.984    29 H    0.984     8 C    0.981
                            31 H    0.980
    10   6 C    3.987 --     8 C    0.992    34 H    0.985    32 H    0.984
                            33 H    0.981
    11   7 N    3.392 --    12 C    1.316     8 C    0.890    35 H    0.889
                            13 O    0.200
    12   6 C    3.921 --    13 O    1.565    11 N    1.316    14 C    0.966
    13   8 O    1.918 --    12 C    1.565    11 N    0.200
    14   6 C    3.804 --    19 N    1.430    15 O    1.118    12 C    0.966
    15   8 O    2.356 --    14 C    1.118    16 C    1.067
    16   6 C    3.839 --    18 N    1.578    15 O    1.067    17 C    1.042
    17   6 C    3.971 --    16 C    1.042    37 H    0.978    38 H    0.952
                            36 H    0.948
    18   7 N    2.963 --    16 C    1.578    19 N    1.154
    19   7 N    3.627 --    14 C    1.430    18 N    1.154    20 C    0.911
    20   6 C    3.884 --    41 H    0.981    39 H    0.965    40 H    0.963
                            19 N    0.911
    21   7 N    3.415 --    22 C    1.147     7 C    1.092    42 H    0.896
                            23 O    0.133
    22   6 C    3.871 --    23 O    1.594    21 N    1.147    24 C    0.963
    23   8 O    1.868 --    22 C    1.594    21 N    0.133
    24   6 C    3.935 --    25 O    1.534     5 C    1.260    22 C    0.963
    25   8 O    1.823 --    24 C    1.534     5 C    0.122
    26   1 H    1.015 --     1 C    0.987
    27   1 H    1.013 --     1 C    0.980
    28   1 H    1.012 --     1 C    0.980
    29   1 H    1.001 --     9 C    0.984
    30   1 H    1.001 --     9 C    0.984
    31   1 H    1.006 --     9 C    0.980
    32   1 H    1.006 --    10 C    0.984
    33   1 H    1.012 --    10 C    0.981
    34   1 H    1.006 --    10 C    0.985
    35   1 H    0.931 --    11 N    0.889
    36   1 H    0.989 --    17 C    0.948
    37   1 H    0.991 --    17 C    0.978
    38   1 H    0.989 --    17 C    0.952
    39   1 H    0.999 --    20 C    0.965
    40   1 H    0.997 --    20 C    0.963
    41   1 H    0.995 --    20 C    0.981
    42   1 H    0.942 --    21 N    0.896
 ---------------------------------------------------------------------------

           -------------------------------------------------
          | TOTAL ENERGY              -82.982464625766 Eh   |
          | GRADIENT NORM               0.000568357164 Eh/α |
          | HOMO-LUMO GAP               0.185352457496 eV   |
           -------------------------------------------------

 * finished run on 2023/06/21 at 17:21:55.368
