   * xtb version 6.5.1 (579679a) compiled by 'ehlert@majestix' on 2022-07-11
          program call               : /lustre/hpc/kemi/ree/PhD/git/ReactivityQM/dep/xtb-6.5.1/bin/xtb --gfn 1 /lustre/hpc/kemi/ree/PhD/git/ReactivityQM/calculations/R02deprot/reac01prodE11/conf09/R02deprot_reac01prodE11_conf09_gfn1.xyz --opt --vfukui --chrg -2 --uhf 0 --alpb DMSO

   ID    Z sym.   atoms
    1    6 C      1, 3, 5, 7-10, 12, 14, 17-19, 22, 24
    2    8 O      2, 4, 13, 20, 23, 25
    3    7 N      6, 11, 15, 16, 21
    4    1 H      26-42

      * Solvation model:               ALPB
        Solvent                        DMSO
        Solvent mass                       7.8130E+01 g/mol
          :  Hamiltonian                  GFN1-xTB          :
 * total energy  :   -83.6355734 Eh     change       -0.4575895E-11 Eh
 * total energy  :   -83.6474252 Eh     change       -0.1185176E-01 Eh
 * total energy  :   -83.6510852 Eh     change       -0.3659961E-02 Eh
 * total energy  :   -83.6515562 Eh     change       -0.4710498E-03 Eh
 * total energy  :   -83.6518440 Eh     change       -0.2877532E-03 Eh
 * total energy  :   -83.6519599 Eh     change       -0.1159072E-03 Eh
 * total energy  :   -83.6520654 Eh     change       -0.1055550E-03 Eh
 * total energy  :   -83.6521424 Eh     change       -0.7701966E-04 Eh
 * total energy  :   -83.6522033 Eh     change       -0.6080819E-04 Eh
 * total energy  :   -83.6522457 Eh     change       -0.4242233E-04 Eh
 * total energy  :   -83.6523418 Eh     change       -0.2313175E-04 Eh
 * total energy  :   -83.6523644 Eh     change       -0.2259189E-04 Eh
 * total energy  :   -83.6523860 Eh     change       -0.2167001E-04 Eh
 * total energy  :   -83.6524065 Eh     change       -0.2044110E-04 Eh
 * total energy  :   -83.6524259 Eh     change       -0.1946392E-04 Eh
 * total energy  :   -83.6524418 Eh     change       -0.1590136E-04 Eh
 * total energy  :   -83.6524525 Eh     change       -0.1066356E-04 Eh
 * total energy  :   -83.6524598 Eh     change       -0.7342515E-05 Eh
 * total energy  :   -83.6524642 Eh     change       -0.4346838E-05 Eh
   *** GEOMETRY OPTIMIZATION CONVERGED AFTER 22 ITERATIONS ***

 final structure:
================
42
 xtb: 6.5.1 (579679a)
C            6.79229893020568        1.04435464527364        0.89166960651779
O            5.52548331427214        1.23558777354817        0.26162865345186
C            4.63622843238994        0.22426749253036        0.41724933645735
O            4.92755931969357       -0.77174569787709        1.04880331615486
C            3.33031032079111        0.46242362854386       -0.22788729064698
N            2.44050110680429       -0.55752033796802       -0.02615870471518
C            1.23469377654246       -0.42277813755732       -0.53575854469605
C            0.25552897710228       -1.58006372381107       -0.33995399179231
C            0.69642817448819       -2.46066391016198        0.83544178057583
C            0.24476432335841       -2.39322677269493       -1.65055614006966
N           -1.05271027573741       -0.99632008715097       -0.07087020915045
C           -2.21082922138487       -1.75699727768781        0.00670765816891
O           -2.18453292660883       -3.00606309922379        0.09976965560238
C           -3.40761952703818       -0.99364754755969        0.03520148336204
N           -4.64283708543021       -1.45070146877808        0.15373638608419
N           -5.51020352576832       -0.47585365824375        0.17224614825983
C           -4.75820801663434        0.78424661223654        0.05605241310082
C           -5.20463828717009        1.54219093315296       -1.20656072459694
C           -4.98706709106831        1.64428949623943        1.31269587325719
O           -3.39011016486840        0.41689075782258       -0.04358846182549
N            0.78185234951120        0.60587457067239       -1.24612993109120
C            1.60012186785680        1.65730239015712       -1.51394903280079
O            1.22634316288529        2.63532992125392       -2.18488275527553
C            2.96420580317790        1.56923404742436       -0.95961640680954
O            3.76449806180611        2.63269117017144       -1.23191837730060
H            7.28704485293158        0.15823468159505        0.48577698944105
H            7.38688189033327        1.93102375328585        0.68562148984297
H            6.66352320609512        0.92127406568489        1.97025604159559
H            0.66760364464939       -1.88462480204461        1.76090530639052
H            1.71708966028552       -2.80546413866944        0.67186298831096
H            0.04232497498461       -3.32587430433838        0.93490135137820
H           -0.42731465062390       -3.24675067783562       -1.56957961680625
H           -0.08039010311726       -1.75863353670216       -2.47537664685268
H            1.25017620692940       -2.75650052532348       -1.86179217188380
H           -1.16099697437534       -0.04900913322123       -0.42180358264558
H           -5.03305175154771        0.91712888107058       -2.08168055193506
H           -6.26604774781658        1.77092064507984       -1.13762959890340
H           -4.64294437862550        2.46882951989406       -1.31346082571638
H           -6.04441311340435        1.88245629302730        1.40643276780988
H           -4.41376086328513        2.56788037875894        1.25043132596630
H           -4.66989520809711        1.08694848442401        2.19300138399521
H            4.65210955550060        2.53305469500374       -0.85930539020985

          :  Hamiltonian                  GFN1-xTB          :
         :: total energy             -83.652464188197 Eh    ::
         :: gradient norm              0.000369905428 Eh/a0 ::
         :: HOMO-LUMO gap              0.884333071980 eV    ::
         :: SCC energy               -84.383783813640 Eh    ::
         :: -> Gsolv                  -0.268180203689 Eh    ::
         :: repulsion energy           0.756629297273 Eh    ::

    * Orbital Energies and Occupations

         #    Occupation            Energy/Eh            Energy/eV
      -------------------------------------------------------------
         1        2.0000           -0.8150807             -22.1795
       ...           ...                  ...                  ...
        56        2.0000           -0.4453348             -12.1182
        57        2.0000           -0.4390157             -11.9462
        58        2.0000           -0.4227804             -11.5044
        59        2.0000           -0.4202885             -11.4366
        60        2.0000           -0.4089940             -11.1293
        61        2.0000           -0.4019997             -10.9390
        62        2.0000           -0.3903756             -10.6227
        63        2.0000           -0.3861941             -10.5089
        64        2.0000           -0.3780014             -10.2859
        65        2.0000           -0.3605134              -9.8101
        66        2.0000           -0.3590885              -9.7713
        67        2.0000           -0.3586288              -9.7588
        68        2.0000           -0.3038782              -8.2689 (HOMO)
        69                         -0.2713795              -7.3846 (LUMO)
        70                         -0.2254978              -6.1361
        71                         -0.2137936              -5.8176
        72                         -0.1817950              -4.9469
        73                         -0.1248431              -3.3972
        74                         -0.1146914              -3.1209
        75                         -0.1000004              -2.7212
        76                         -0.0963684              -2.6223
        77                         -0.0938986              -2.5551
        78                         -0.0909445              -2.4747
        79                         -0.0866211              -2.3571
       ...                                ...                  ...
       134                          0.7427703              20.2118
      -------------------------------------------------------------
                  HL-Gap            0.0324986 Eh            0.8843 eV

Wiberg/Mayer (AO) data.
largest (>0.10) Wiberg bond orders for each atom

     #   Z sym  total        # sym  WBO       # sym  WBO       # sym  WBO
 ---------------------------------------------------------------------------
     1   6 C    3.881 --    27 H    0.987    26 H    0.981    28 H    0.981
                             2 O    0.904
     2   8 O    2.180 --     3 C    1.052     1 C    0.904     4 O    0.117
     3   6 C    3.830 --     4 O    1.641     2 O    1.052     5 C    1.039
     4   8 O    1.903 --     3 C    1.641     2 O    0.117
     5   6 C    3.962 --    24 C    1.469     6 N    1.204     3 C    1.039
     6   7 N    2.993 --     7 C    1.456     5 C    1.204
     7   6 C    3.953 --     6 N    1.456    21 N    1.371     8 C    0.970
     8   6 C    3.955 --     9 C    0.997    10 C    0.975     7 C    0.970
                            11 N    0.950
     9   6 C    3.995 --     8 C    0.997    29 H    0.987    30 H    0.986
                            31 H    0.983
    10   6 C    3.993 --    34 H    0.988    33 H    0.986    32 H    0.982
                             8 C    0.975
    11   7 N    3.232 --    12 C    1.119     8 C    0.950    35 H    0.904
                            13 O    0.111
    12   6 C    3.926 --    13 O    1.436    14 C    1.202    11 N    1.119
    13   8 O    1.771 --    12 C    1.436    11 N    0.111
    14   6 C    3.843 --    15 N    1.422    12 C    1.202    20 O    0.921
                            16 N    0.168
    15   7 N    3.021 --    16 N    1.440    14 C    1.422
    16   7 N    2.855 --    15 N    1.440    17 C    0.983    14 C    0.168
    17   6 C    3.901 --    16 N    0.983    18 C    0.977    19 C    0.976
                            20 O    0.926
    18   6 C    3.994 --    37 H    0.988    38 H    0.987    36 H    0.986
                            17 C    0.977
    19   6 C    3.994 --    39 H    0.988    40 H    0.987    41 H    0.986
                            17 C    0.976
    20   8 O    2.052 --    17 C    0.926    14 C    0.921
    21   7 N    2.993 --     7 C    1.371    22 C    1.237    23 O    0.126
    22   6 C    3.931 --    23 O    1.492    21 N    1.237    24 C    1.069
    23   8 O    1.779 --    22 C    1.492    21 N    0.126
    24   6 C    3.899 --     5 C    1.469    22 C    1.069    25 O    1.055
    25   8 O    2.043 --    24 C    1.055    42 H    0.827
    26   1 H    1.011 --     1 C    0.981
    27   1 H    1.012 --     1 C    0.987
    28   1 H    1.011 --     1 C    0.981
    29   1 H    1.013 --     9 C    0.987
    30   1 H    1.023 --     9 C    0.986
    31   1 H    1.024 --     9 C    0.983
    32   1 H    1.019 --    10 C    0.982
    33   1 H    1.012 --    10 C    0.986
    34   1 H    1.008 --    10 C    0.988
    35   1 H    0.985 --    11 N    0.904
    36   1 H    1.016 --    18 C    0.986
    37   1 H    1.012 --    18 C    0.988
    38   1 H    1.009 --    18 C    0.987
    39   1 H    1.012 --    19 C    0.988
    40   1 H    1.009 --    19 C    0.987
    41   1 H    1.016 --    19 C    0.986
    42   1 H    0.878 --    25 O    0.827
 ---------------------------------------------------------------------------

           -------------------------------------------------
          | TOTAL ENERGY              -83.652464188197 Eh   |
          | GRADIENT NORM               0.000369905428 Eh/α |
          | HOMO-LUMO GAP               0.884333071980 eV   |
           -------------------------------------------------

 * finished run on 2023/06/20 at 17:55:18.505
