   * xtb version 6.5.1 (579679a) compiled by 'ehlert@majestix' on 2022-07-11
          program call               : /lustre/hpc/kemi/ree/PhD/git/ReactivityQM/dep/xtb-6.5.1/bin/xtb --gfn 1 /lustre/hpc/kemi/ree/PhD/git/ReactivityQM/calculations/R03/reac02/conf19/R03_reac02_conf19_gfn1.xyz --opt --vfukui --chrg 0 --uhf 0 --alpb DMSO

   ID    Z sym.   atoms
    1    6 C      1, 3, 5, 7-10, 12, 14, 17, 18, 21, 22, 24
    2    8 O      2, 4, 13, 19, 23, 25
    3    7 N      6, 11, 15, 16, 20
    4    1 H      26-42

      * Solvation model:               ALPB
        Solvent                        DMSO
        Solvent mass                       7.8130E+01 g/mol
          :  Hamiltonian                  GFN1-xTB          :
 * total energy  :   -82.9925622 Eh     change       -0.1091394E-10 Eh
 * total energy  :   -83.0032685 Eh     change       -0.1070628E-01 Eh
 * total energy  :   -83.0073109 Eh     change       -0.4042391E-02 Eh
 * total energy  :   -83.0080654 Eh     change       -0.7544888E-03 Eh
 * total energy  :   -83.0085896 Eh     change       -0.5242288E-03 Eh
 * total energy  :   -83.0088455 Eh     change       -0.2558295E-03 Eh
 * total energy  :   -83.0090657 Eh     change       -0.2202132E-03 Eh
 * total energy  :   -83.0092463 Eh     change       -0.1806506E-03 Eh
 * total energy  :   -83.0093809 Eh     change       -0.1345867E-03 Eh
 * total energy  :   -83.0094702 Eh     change       -0.8927440E-04 Eh
 * total energy  :   -83.0099953 Eh     change       -0.5150302E-05 Eh
 * total energy  :   -83.0100006 Eh     change       -0.5291052E-05 Eh
 * total energy  :   -83.0100028 Eh     change       -0.2224009E-05 Eh
 * total energy  :   -83.0100103 Eh     change       -0.7446776E-05 Eh
 * total energy  :   -83.0100172 Eh     change       -0.6936681E-05 Eh
 * total energy  :   -83.0100260 Eh     change       -0.8833994E-05 Eh
 * total energy  :   -83.0100246 Eh     change        0.1473226E-05 Eh
 * total energy  :   -83.0100347 Eh     change       -0.1018308E-04 Eh
 * total energy  :   -83.0100374 Eh     change       -0.2700775E-05 Eh
   *** GEOMETRY OPTIMIZATION CONVERGED AFTER 37 ITERATIONS ***

 final structure:
================
42
 xtb: 6.5.1 (579679a)
C           -5.67760210495588        1.96576786960784        1.95002347596568
O           -4.68358218516410        1.78907106861995        0.92898218271767
C           -3.73283039372728        0.88177048267147        1.19299209581501
O           -3.70054027394422        0.24821393027472        2.22036179376453
C           -2.73412157884565        0.74042309733137        0.09787275898293
N           -1.77927708393074       -0.20048209757353        0.36547614985533
C           -0.82482386572588       -0.45416835553567       -0.46812825782762
C            0.13381976383099       -1.56695478934598       -0.05992632015265
C           -0.14480561251278       -1.97005245930819        1.39565047047702
C           -0.06885863773676       -2.78029702927512       -0.97968159572042
N            1.50602731822734       -1.04734628664922       -0.13512070809611
C            2.59692109998555       -1.81771897473722        0.08245318820054
O            2.59942308506453       -3.03005763234490        0.20280658050589
C            3.84917376382104       -1.02268537741233        0.13799522289871
N            5.05191560377039       -1.45976010091480        0.34761625760351
N            5.87398394752500       -0.37389554303744        0.33181048105241
C            5.12321181925409        0.66064490881450        0.11414411367095
C            5.54039545260508        2.07557286659607        0.00984752832348
O            3.82996017001959        0.31976269379628       -0.01731335575143
N           -0.72614455752431        0.20409089407451       -1.66483361532351
C            0.31590730821172       -0.02314398398374       -2.66925506277668
C           -1.65500400822078        1.16514113833211       -2.05780172955483
O           -1.55513616081211        1.71431613287067       -3.14500713101616
C           -2.71189788180262        1.43511790963854       -1.08289611150955
O           -3.58851837499459        2.36972878513036       -1.46812956267690
H           -5.19777583189006        2.24894370413115        2.88922212398256
H           -6.34057889881923        2.75639146126482        1.60840742201777
H           -6.23332540223052        1.03588992337843        2.08936538445403
H            0.55246085542950       -2.75015446500028        1.69624103599390
H           -1.16301196718613       -2.34380377146121        1.48725667051889
H           -0.02510883397049       -1.10910812031925        2.05093746712428
H           -1.13301684111263       -3.00682035547661       -1.03339846539255
H            0.29976394012332       -2.58622506240219       -1.98381595444392
H            0.45354936219821       -3.64696315472259       -0.57909918398568
H            1.62005494907126       -0.05017491671594       -0.04936869827419
H            5.29678933088300        2.46430093176332       -0.97904262098577
H            5.00713434938871        2.67481314536294        0.74765324693605
H            6.61190142814414        2.15441051400593        0.17865882607676
H           -0.12314625780873       -0.54098872900902       -3.52254116174645
H            1.13301191481522       -0.60159967120361       -2.25644462315522
H            0.68536784218186        0.94835211328158       -2.99800663345687
H           -4.28167055163652        2.52967830548299       -0.80527568509141

          :  Hamiltonian                  GFN1-xTB          :
         :: total energy             -83.010037449174 Eh    ::
         :: gradient norm              0.000523543183 Eh/a0 ::
         :: HOMO-LUMO gap              2.837450402619 eV    ::
         :: SCC energy               -83.792619441867 Eh    ::
         :: -> Gsolv                  -0.058574665569 Eh    ::
         :: repulsion energy           0.808911810309 Eh    ::

    * Orbital Energies and Occupations

         #    Occupation            Energy/Eh            Energy/eV
      -------------------------------------------------------------
         1        2.0000           -0.8667540             -23.5856
       ...           ...                  ...                  ...
        55        2.0000           -0.5059647             -13.7680
        56        2.0000           -0.5000364             -13.6067
        57        2.0000           -0.4990553             -13.5800
        58        2.0000           -0.4852611             -13.2046
        59        2.0000           -0.4811937             -13.0939
        60        2.0000           -0.4745658             -12.9136
        61        2.0000           -0.4681593             -12.7393
        62        2.0000           -0.4621149             -12.5748
        63        2.0000           -0.4580476             -12.4641
        64        2.0000           -0.4528283             -12.3221
        65        2.0000           -0.4488445             -12.2137
        66        2.0000           -0.4449426             -12.1075
        67        2.0000           -0.4278543             -11.6425 (HOMO)
        68                         -0.3235800              -8.8051 (LUMO)
        69                         -0.3128483              -8.5130
        70                         -0.2833436              -7.7102
        71                         -0.2578348              -7.0160
        72                         -0.2409092              -6.5555
        73                         -0.2007106              -5.4616
        74                         -0.1580702              -4.3013
        75                         -0.1428507              -3.8872
        76                         -0.1404307              -3.8213
        77                         -0.1368053              -3.7227
        78                         -0.1242142              -3.3800
       ...                                ...                  ...
       134                          0.7328793              19.9427
      -------------------------------------------------------------
                  HL-Gap            0.1042744 Eh            2.8375 eV

Wiberg/Mayer (AO) data.
largest (>0.10) Wiberg bond orders for each atom

     #   Z sym  total        # sym  WBO       # sym  WBO       # sym  WBO
 ---------------------------------------------------------------------------
     1   6 C    3.861 --    27 H    0.986    28 H    0.980    26 H    0.980
                             2 O    0.885
     2   8 O    2.202 --     3 C    1.089     1 C    0.885     4 O    0.130
     3   6 C    3.846 --     4 O    1.672     2 O    1.089     5 C    1.005
     4   8 O    1.933 --     3 C    1.672     2 O    0.130
     5   6 C    3.963 --    24 C    1.490     6 N    1.185     3 C    1.005
     6   7 N    3.033 --     7 C    1.573     5 C    1.185
     7   6 C    3.931 --     6 N    1.573    20 N    1.175     8 C    0.975
     8   6 C    3.932 --     9 C    0.990    10 C    0.983     7 C    0.975
                            11 N    0.920
     9   6 C    3.989 --     8 C    0.990    31 H    0.984    30 H    0.983
                            29 H    0.983
    10   6 C    3.988 --    32 H    0.985     8 C    0.983    33 H    0.981
                            34 H    0.977
    11   7 N    3.343 --    12 C    1.241     8 C    0.920    35 H    0.896
                            13 O    0.172
    12   6 C    3.915 --    13 O    1.595    11 N    1.241    14 C    0.993
    13   8 O    1.910 --    12 C    1.595    11 N    0.172
    14   6 C    3.872 --    15 N    1.622    19 O    1.046    12 C    0.993
    15   7 N    3.000 --    14 C    1.622    16 N    1.199
    16   7 N    2.982 --    17 C    1.611    15 N    1.199
    17   6 C    3.868 --    16 N    1.611    19 O    1.072    18 C    1.032
    18   6 C    3.986 --    17 C    1.032    38 H    0.982    37 H    0.964
                            36 H    0.962
    19   8 O    2.315 --    17 C    1.072    14 C    1.046
    20   7 N    3.506 --     7 C    1.175    22 C    1.113    21 C    0.929
                            23 O    0.136
    21   6 C    3.921 --    40 H    0.977    39 H    0.975    41 H    0.974
                            20 N    0.929
    22   6 C    3.913 --    23 O    1.584    20 N    1.113    24 C    1.069
    23   8 O    1.897 --    22 C    1.584    20 N    0.136
    24   6 C    3.920 --     5 C    1.490    25 O    1.107    22 C    1.069
    25   8 O    2.088 --    24 C    1.107    42 H    0.802
    26   1 H    1.007 --     1 C    0.980
    27   1 H    1.009 --     1 C    0.986
    28   1 H    1.006 --     1 C    0.980
    29   1 H    1.006 --     9 C    0.983
    30   1 H    1.011 --     9 C    0.983
    31   1 H    1.008 --     9 C    0.984
    32   1 H    1.002 --    10 C    0.985
    33   1 H    1.001 --    10 C    0.981
    34   1 H    1.012 --    10 C    0.977
    35   1 H    0.940 --    11 N    0.896
    36   1 H    0.996 --    18 C    0.962
    37   1 H    0.997 --    18 C    0.964
    38   1 H    0.998 --    18 C    0.982
    39   1 H    1.002 --    21 C    0.975
    40   1 H    1.009 --    21 C    0.977
    41   1 H    1.006 --    21 C    0.974
    42   1 H    0.853 --    25 O    0.802
 ---------------------------------------------------------------------------

           -------------------------------------------------
          | TOTAL ENERGY              -83.010037449174 Eh   |
          | GRADIENT NORM               0.000523543183 Eh/α |
          | HOMO-LUMO GAP               2.837450402619 eV   |
           -------------------------------------------------

 * finished run on 2023/06/20 at 15:12:22.863
