   * xtb version 6.5.1 (579679a) compiled by 'ehlert@majestix' on 2022-07-11
          program call               : /lustre/hpc/kemi/ree/PhD/git/ReactivityQM/dep/xtb-6.5.1/bin/xtb --gfn 1 /lustre/hpc/kemi/ree/PhD/git/ReactivityQM/calculations/R02methylcation/reac01prodN12/conf13/R02methylcation_reac01prodN12_conf13_gfn1.xyz --opt --vfukui --chrg 0 --uhf 0 --alpb DMSO

   ID    Z sym.   atoms
    1    6 C      1, 3, 5, 7-10, 12, 14, 15, 18, 19, 22, 24
    2    8 O      2, 4, 13, 20, 23, 25
    3    7 N      6, 11, 16, 17, 21
    4    1 H      26-42

      * Solvation model:               ALPB
        Solvent                        DMSO
        Solvent mass                       7.8130E+01 g/mol
          :  Hamiltonian                  GFN1-xTB          :
 * total energy  :   -82.9292036 Eh     change       -0.2321343E-09 Eh
 * total energy  :   -82.9405871 Eh     change       -0.1138355E-01 Eh
 * total energy  :   -82.9449461 Eh     change       -0.4358917E-02 Eh
 * total energy  :   -82.9454939 Eh     change       -0.5478011E-03 Eh
 * total energy  :   -82.9457791 Eh     change       -0.2851964E-03 Eh
 * total energy  :   -82.9459104 Eh     change       -0.1313021E-03 Eh
 * total energy  :   -82.9460413 Eh     change       -0.1309280E-03 Eh
 * total energy  :   -82.9461563 Eh     change       -0.1150452E-03 Eh
 * total energy  :   -82.9462551 Eh     change       -0.9880848E-04 Eh
 * total energy  :   -82.9463265 Eh     change       -0.7140229E-04 Eh
 * total energy  :   -82.9469510 Eh     change       -0.1655387E-04 Eh
 * total energy  :   -82.9469654 Eh     change       -0.1437633E-04 Eh
 * total energy  :   -82.9469783 Eh     change       -0.1289663E-04 Eh
 * total energy  :   -82.9469935 Eh     change       -0.1521294E-04 Eh
 * total energy  :   -82.9470061 Eh     change       -0.1258258E-04 Eh
 * total energy  :   -82.9470143 Eh     change       -0.8205326E-05 Eh
 * total energy  :   -82.9470257 Eh     change       -0.1142623E-04 Eh
 * total energy  :   -82.9470350 Eh     change       -0.9260768E-05 Eh
 * total energy  :   -82.9470395 Eh     change       -0.4492040E-05 Eh
   *** GEOMETRY OPTIMIZATION CONVERGED AFTER 39 ITERATIONS ***

 final structure:
================
42
 xtb: 6.5.1 (579679a)
C            6.17762885773425       -2.20300687229584        1.34895784566130
O            5.20290071760737       -1.16749915775082        1.46494764275229
C            4.20317658103413       -1.19504285635828        0.57625095285748
O            4.12146480436437       -2.05195177728144       -0.28388037394990
C            3.22066554972274       -0.10081214867219        0.73267141598996
N            2.23232845946297       -0.13963238505651       -0.19771021465759
C            1.30291498416939        0.75990522529443       -0.22277179519558
C            0.23128360092335        0.70785603746966       -1.28556784902848
C            0.34165834724666        1.92939692031716       -2.20714162841744
C            0.33804413775217       -0.59940324949306       -2.07241225360256
N           -1.06404412915943        0.75688922566066       -0.56961493152246
C           -2.23646419001335        0.70632763809785       -1.18713655907864
O           -2.45298432320242        0.60759833744254       -2.36997079982045
C           -3.46838638235790        0.81788683432335       -0.18206132895096
C           -4.32232401710497        1.99993207325554       -0.63510495215283
N           -3.02542146568635        0.90867531536581        1.16172638360990
N           -3.40699570360859       -0.15072929064305        1.80188206323743
C           -4.10447356368247       -0.92048461194254        0.95762052873020
C           -4.73176217606355       -2.20781430903770        1.28832072823755
O           -4.18860152709190       -0.39935717723463       -0.23858370376231
N            1.25667698977805        1.77846542098474        0.68787282019626
C            2.17982834644274        1.94425084710078        1.70387276788053
O            2.07040528250028        2.87654410235863        2.47933156233646
C            3.28479741884750        0.90776091777109        1.75055685049049
O            4.14264962264585        0.98905777151168        2.63122358496039
H            6.64172467649087       -2.17814677575026        0.35936608412501
H            5.71193548931302       -3.18035863031811        1.50051441334190
H            6.92493524575241       -2.01997635566206        2.11893934229693
H            1.32600892823301        1.94459057984851       -2.67245008946378
H            0.20384801476443        2.84453581729267       -1.63489527760008
H           -0.41813869250896        1.88115121446704       -2.98456561250324
H            1.32054601661970       -0.65561871132098       -2.53898234505916
H            0.21742279669830       -1.44871797956955       -1.40163964718753
H           -0.42678622474650       -0.63844805901139       -2.84458696767841
H           -1.05879997303837        0.86261037892199        0.43516365930987
H           -4.57749621611339        1.86507191624271       -1.68453806176837
H           -3.75592424200874        2.91864748672350       -0.50703676961675
H           -5.22791332607313        2.03833087697033       -0.03454849338538
H           -4.75400143567895       -2.85406704105165        0.41282487149759
H           -5.76308116235432       -2.02951488834811        1.60204708168793
H           -4.20161099587078       -2.68444262018689        2.11029514438526
H            0.53236587825390        2.47527595957043        0.63081091082436

          :  Hamiltonian                  GFN1-xTB          :
         :: total energy             -82.947039473195 Eh    ::
         :: gradient norm              0.000441178856 Eh/a0 ::
         :: HOMO-LUMO gap              0.094041665278 eV    ::
         :: SCC energy               -83.717682428520 Eh    ::
         :: -> Gsolv                  -0.074850373612 Eh    ::
         :: repulsion energy           0.796810225775 Eh    ::

    * Orbital Energies and Occupations

         #    Occupation            Energy/Eh            Energy/eV
      -------------------------------------------------------------
         1        2.0000           -0.8898120             -24.2130
       ...           ...                  ...                  ...
        55        2.0000           -0.5107872             -13.8992
        56        2.0000           -0.5090382             -13.8516
        57        2.0000           -0.5067975             -13.7907
        58        2.0000           -0.4959443             -13.4953
        59        2.0000           -0.4872730             -13.2594
        60        2.0000           -0.4868557             -13.2480
        61        2.0000           -0.4789542             -13.0330
        62        2.0000           -0.4756245             -12.9424
        63        2.0000           -0.4733157             -12.8796
        64        2.0000           -0.4676406             -12.7251
        65        2.0000           -0.4541489             -12.3580
        66        2.0000           -0.4164015             -11.3309
        67        1.7209           -0.4017160             -10.9312 (HOMO)
        68        0.2791           -0.3982601             -10.8372 (LUMO)
        69                         -0.3033239              -8.2539
        70                         -0.2924296              -7.9574
        71                         -0.2807025              -7.6383
        72                         -0.2777352              -7.5576
        73                         -0.2290428              -6.2326
        74                         -0.1593421              -4.3359
        75                         -0.1488534              -4.0505
        76                         -0.1417699              -3.8578
        77                         -0.1367515              -3.7212
        78                         -0.1324102              -3.6031
       ...                                ...                  ...
       134                          0.7468470              20.3227
      -------------------------------------------------------------
                  HL-Gap            0.0034560 Eh            0.0940 eV

Wiberg/Mayer (AO) data.
largest (>0.10) Wiberg bond orders for each atom

     #   Z sym  total        # sym  WBO       # sym  WBO       # sym  WBO
 ---------------------------------------------------------------------------
     1   6 C    3.880 --    28 H    0.986    27 H    0.980    26 H    0.979
                             2 O    0.906
     2   8 O    2.187 --     3 C    1.097     1 C    0.906     4 O    0.127
     3   6 C    3.841 --     4 O    1.621     2 O    1.097     5 C    1.040
     4   8 O    1.869 --     3 C    1.621     2 O    0.127
     5   6 C    3.740 --     6 N    1.257    24 C    1.190     3 C    1.040
     6   7 N    3.001 --     7 C    1.525     5 C    1.257
     7   6 C    3.839 --     6 N    1.525    21 N    1.153     8 C    0.984
     8   6 C    3.918 --    10 C    0.995     7 C    0.984     9 C    0.980
                            11 N    0.891
     9   6 C    3.983 --    29 H    0.984    30 H    0.983     8 C    0.980
                            31 H    0.979
    10   6 C    3.987 --     8 C    0.995    33 H    0.984    32 H    0.982
                            34 H    0.981
    11   7 N    3.361 --    12 C    1.330     8 C    0.891    35 H    0.881
                            13 O    0.178
    12   6 C    3.870 --    13 O    1.643    11 N    1.330    14 C    0.795
    13   8 O    1.990 --    12 C    1.643    11 N    0.178
    14   6 C    3.846 --    16 N    1.074    15 C    0.936    20 O    0.900
                            12 C    0.795
    15   6 C    3.939 --    37 H    0.981    38 H    0.979    36 H    0.977
                            14 C    0.936
    16   7 N    2.750 --    17 N    1.474    14 C    1.074
    17   7 N    2.959 --    16 N    1.474    18 C    1.330
    18   6 C    3.702 --    17 N    1.330    20 O    1.194    19 C    1.052
    19   6 C    3.973 --    18 C    1.052    41 H    0.970    39 H    0.966
                            40 H    0.930
    20   8 O    2.253 --    18 C    1.194    14 C    0.900
    21   7 N    3.422 --     7 C    1.153    22 C    1.118    42 H    0.887
                            23 O    0.119
    22   6 C    3.847 --    23 O    1.638    21 N    1.118    24 C    0.952
    23   8 O    1.872 --    22 C    1.638    21 N    0.119
    24   6 C    3.883 --    25 O    1.592     5 C    1.190    22 C    0.952
    25   8 O    1.792 --    24 C    1.592
    26   1 H    1.009 --     1 C    0.979
    27   1 H    1.008 --     1 C    0.980
    28   1 H    1.012 --     1 C    0.986
    29   1 H    0.999 --     9 C    0.984
    30   1 H    1.000 --     9 C    0.983
    31   1 H    1.003 --     9 C    0.979
    32   1 H    1.008 --    10 C    0.982
    33   1 H    1.006 --    10 C    0.984
    34   1 H    1.006 --    10 C    0.981
    35   1 H    0.948 --    11 N    0.881
    36   1 H    0.999 --    15 C    0.977
    37   1 H    0.995 --    15 C    0.981
    38   1 H    0.994 --    15 C    0.979
    39   1 H    0.988 --    19 C    0.966
    40   1 H    0.977 --    19 C    0.930
    41   1 H    0.991 --    19 C    0.970
    42   1 H    0.932 --    21 N    0.887
 ---------------------------------------------------------------------------

           -------------------------------------------------
          | TOTAL ENERGY              -82.947039473195 Eh   |
          | GRADIENT NORM               0.000441178856 Eh/α |
          | HOMO-LUMO GAP               0.094041665278 eV   |
           -------------------------------------------------

 * finished run on 2023/06/21 at 17:44:47.916
