   * xtb version 6.5.1 (579679a) compiled by 'ehlert@majestix' on 2022-07-11
          program call               : /lustre/hpc/kemi/ree/PhD/git/ReactivityQM/dep/xtb-6.5.1/bin/xtb --gfn 1 /lustre/hpc/kemi/ree/PhD/git/ReactivityQM/calculations/R02/reac01prodE06/conf07/R02_reac01prodE06_conf07_gfn1.xyz --opt --vfukui --chrg -1 --uhf 0 --alpb DMSO

   ID    Z sym.   atoms
    1    6 C      1, 3, 5, 6, 8, 11-15, 17, 19, 22, 23
    2    8 O      2, 4, 7, 9, 18, 24
    3    7 N      10, 16, 20, 21, 25
    4    1 H      26-43

      * Solvation model:               ALPB
        Solvent                        DMSO
        Solvent mass                       7.8130E+01 g/mol
          :  Hamiltonian                  GFN1-xTB          :
 * total energy  :   -83.8657878 Eh     change       -0.1078604E-10 Eh
 * total energy  :   -83.8766958 Eh     change       -0.1090799E-01 Eh
 * total energy  :   -83.8807882 Eh     change       -0.4092355E-02 Eh
 * total energy  :   -83.8815327 Eh     change       -0.7445356E-03 Eh
 * total energy  :   -83.8822779 Eh     change       -0.7452181E-03 Eh
 * total energy  :   -83.8827122 Eh     change       -0.4342322E-03 Eh
 * total energy  :   -83.8831636 Eh     change       -0.4514204E-03 Eh
 * total energy  :   -83.8836683 Eh     change       -0.5047274E-03 Eh
 * total energy  :   -83.8841000 Eh     change       -0.4316643E-03 Eh
 * total energy  :   -83.8844114 Eh     change       -0.3114241E-03 Eh
 * total energy  :   -83.8865538 Eh     change       -0.1176947E-04 Eh
 * total energy  :   -83.8865796 Eh     change       -0.2580692E-04 Eh
 * total energy  :   -83.8865976 Eh     change       -0.1794767E-04 Eh
 * total energy  :   -83.8866098 Eh     change       -0.1224564E-04 Eh
 * total energy  :   -83.8866171 Eh     change       -0.7269217E-05 Eh
 * total energy  :   -83.8866232 Eh     change       -0.6145150E-05 Eh
 * total energy  :   -83.8866303 Eh     change       -0.7063858E-05 Eh
 * total energy  :   -83.8866349 Eh     change       -0.4571287E-05 Eh
 * total energy  :   -83.8866394 Eh     change       -0.4568989E-05 Eh
   *** GEOMETRY OPTIMIZATION CONVERGED AFTER 65 ITERATIONS ***

 final structure:
================
43
 xtb: 6.5.1 (579679a)
C            3.41872654037522       -0.84148335354169        3.74685339634178
O            3.35126864032593       -0.66050306345182        2.33643353716258
C            2.12260037611085       -0.68181464888372        1.79208176196662
O            1.13022952067994       -0.82932092794950        2.48011770257070
C            2.09842021690669       -0.49216921309791        0.31274567250653
C            3.22683449880786       -0.60599736161946       -0.49616426098297
O            4.47152077854487       -1.03019684030281       -0.02544122015972
C            3.15719003284393       -0.26724308352364       -1.87388687044003
O            4.12666886040056       -0.30964145758559       -2.65449346309338
N            1.93175343423598        0.23856856939282       -2.30224969750035
C            0.71176564204088       -0.12001845534329       -1.58472902633947
C            0.20442755295267       -1.49457189670690       -2.08452779643947
C           -0.35234470498126        1.00186918770776       -1.82894807757607
C           -0.87970394047041        1.02197308583857       -3.26598548794986
C            0.25373551569580        2.36181477978123       -1.45663722835430
N           -1.44304681908028        0.69909057875308       -0.89599190374414
C           -2.59378907493488        1.37212080337079       -0.81907436214009
O           -2.95294275729217        2.28008024283230       -1.56111067519771
C           -3.48019619825416        0.89151103887115        0.28103985517080
N           -4.63574907662030        1.37540615430746        0.62125195822003
N           -5.08942118977074        0.61804492340891        1.66268616510210
C           -4.18267552844055       -0.27984885990304        1.89174712166609
C           -4.21001065771519       -1.34447242122723        2.91908723360355
O           -3.13873003997058       -0.16111453731611        1.05555973346887
N            0.88909199741499       -0.19633455282409       -0.15287542345026
H            2.82527929008146       -0.07969763754064        4.26059262831752
H            4.46595021727677       -0.75065791646572        4.03063633829153
H            3.04162819976240       -1.82992430073599        4.02398332533453
H            5.06236441518047       -1.02721874627225       -0.79612753495601
H            1.83569857759491        0.23680792230092       -3.30750681024234
H            0.90151273319849       -2.26793959001367       -1.76479134313851
H            0.13870565274490       -1.51283687985454       -3.17037515589205
H           -0.77489103107851       -1.70775133094713       -1.65986887850573
H           -1.49576857345712        0.14619800373479       -3.46342214845372
H           -0.04705708429182        1.03256456638847       -3.96706090522089
H           -1.48283495946786        1.91257817840479       -3.43852929687565
H           -0.49251541998268        3.14928813097524       -1.55190481160147
H            0.61664379229455        2.33322733384930       -0.42847966574922
H            1.08917919738454        2.58194153328710       -2.11997352707725
H           -1.18098253091707        0.07241254565589       -0.13771260611428
H           -5.17841998340981       -1.34643184668631        3.41353983044871
H           -3.42769234509679       -1.17360460801221        3.65946294471229
H           -4.03242276764267       -2.31470904906619        2.45595797230624

          :  Hamiltonian                  GFN1-xTB          :
         :: total energy             -83.886639421992 Eh    ::
         :: gradient norm              0.000709167921 Eh/a0 ::
         :: HOMO-LUMO gap              0.685639181045 eV    ::
         :: SCC energy               -84.642932173104 Eh    ::
         :: -> Gsolv                  -0.105577615143 Eh    ::
         :: repulsion energy           0.784028833568 Eh    ::

    * Orbital Energies and Occupations

         #    Occupation            Energy/Eh            Energy/eV
      -------------------------------------------------------------
         1        2.0000           -0.8556316             -23.2829
       ...           ...                  ...                  ...
        56        2.0000           -0.4738818             -12.8950
        57        2.0000           -0.4711292             -12.8201
        58        2.0000           -0.4609426             -12.5429
        59        2.0000           -0.4503248             -12.2540
        60        2.0000           -0.4485483             -12.2056
        61        2.0000           -0.4419879             -12.0271
        62        2.0000           -0.4382386             -11.9251
        63        2.0000           -0.4297136             -11.6931
        64        2.0000           -0.4254993             -11.5784
        65        2.0000           -0.4061761             -11.0526
        66        2.0000           -0.3936300             -10.7112
        67        2.0000           -0.3814413             -10.3795
        68        2.0000           -0.3210675              -8.7367 (HOMO)
        69        0.0000           -0.2958708              -8.0511 (LUMO)
        70                         -0.2673877              -7.2760
        71                         -0.2490922              -6.7781
        72                         -0.1916876              -5.2161
        73                         -0.1847979              -5.0286
        74                         -0.1392217              -3.7884
        75                         -0.1258964              -3.4258
        76                         -0.1159028              -3.1539
        77                         -0.1112757              -3.0280
        78                         -0.1023904              -2.7862
        79                         -0.0956813              -2.6036
       ...                                ...                  ...
       136                          0.7393374              20.1184
      -------------------------------------------------------------
                  HL-Gap            0.0251968 Eh            0.6856 eV

Wiberg/Mayer (AO) data.
largest (>0.10) Wiberg bond orders for each atom

     #   Z sym  total        # sym  WBO       # sym  WBO       # sym  WBO
 ---------------------------------------------------------------------------
     1   6 C    3.892 --    27 H    0.987    26 H    0.980    28 H    0.980
                             2 O    0.916
     2   8 O    2.187 --     3 C    1.086     1 C    0.916     4 O    0.124
     3   6 C    3.821 --     4 O    1.641     2 O    1.086     5 C    1.002
     4   8 O    1.894 --     3 C    1.641     2 O    0.124
     5   6 C    3.971 --    25 N    1.406     6 C    1.344     3 C    1.002
     6   6 C    3.869 --     5 C    1.344     8 C    1.197     7 O    0.977
                            25 N    0.173
     7   8 O    1.949 --     6 C    0.977    29 H    0.848
     8   6 C    3.916 --     9 O    1.473     6 C    1.197    10 N    1.089
     9   8 O    1.804 --     8 C    1.473    10 N    0.101
    10   7 N    3.204 --     8 C    1.089    11 C    0.941    30 H    0.918
                             9 O    0.101
    11   6 C    3.945 --    25 N    1.006    12 C    0.972    13 C    0.947
                            10 N    0.941
    12   6 C    3.995 --    32 H    0.984    31 H    0.984    33 H    0.984
                            11 C    0.972
    13   6 C    3.925 --    14 C    1.000    15 C    0.992    11 C    0.947
                            16 N    0.919
    14   6 C    3.994 --    13 C    1.000    34 H    0.984    35 H    0.983
                            36 H    0.980
    15   6 C    3.994 --    13 C    0.992    37 H    0.985    39 H    0.984
                            38 H    0.983
    16   7 N    3.393 --    17 C    1.308    13 C    0.919    40 H    0.878
                            18 O    0.186
    17   6 C    3.925 --    18 O    1.551    16 N    1.308    19 C    0.983
    18   8 O    1.872 --    17 C    1.551    16 N    0.186
    19   6 C    3.867 --    20 N    1.625    24 O    1.050    17 C    0.983
    20   7 N    2.991 --    19 C    1.625    21 N    1.191
    21   7 N    2.979 --    22 C    1.617    20 N    1.191
    22   6 C    3.872 --    21 N    1.617    24 O    1.075    23 C    1.030
    23   6 C    3.988 --    22 C    1.030    41 H    0.983    43 H    0.967
                            42 H    0.962
    24   8 O    2.318 --    22 C    1.075    19 C    1.050
    25   7 N    2.941 --     5 C    1.406    11 C    1.006     6 C    0.173
    26   1 H    1.013 --     1 C    0.980
    27   1 H    1.014 --     1 C    0.987
    28   1 H    1.011 --     1 C    0.980
    29   1 H    0.888 --     7 O    0.848
    30   1 H    0.964 --    10 N    0.918
    31   1 H    1.007 --    12 C    0.984
    32   1 H    1.005 --    12 C    0.984
    33   1 H    1.009 --    12 C    0.984
    34   1 H    1.005 --    14 C    0.984
    35   1 H    1.003 --    14 C    0.983
    36   1 H    1.015 --    14 C    0.980
    37   1 H    1.010 --    15 C    0.985
    38   1 H    1.017 --    15 C    0.983
    39   1 H    1.015 --    15 C    0.984
    40   1 H    0.978 --    16 N    0.878
    41   1 H    1.000 --    23 C    0.983
    42   1 H    0.997 --    23 C    0.962
    43   1 H    0.998 --    23 C    0.967
 ---------------------------------------------------------------------------

           -------------------------------------------------
          | TOTAL ENERGY              -83.886639421992 Eh   |
          | GRADIENT NORM               0.000709167921 Eh/α |
          | HOMO-LUMO GAP               0.685639181045 eV   |
           -------------------------------------------------

 * finished run on 2023/06/20 at 15:00:44.252
