                         Program Version 5.0.1 -  RELEASE  -
|  1> # ORCA input file
|  2> ! SP r2SCAN-3c CPCM
|  3>
|  4> %maxcore 1875.0
|  5> %pal nprocs 4 end
|  6> %cpcm smd true SMDsolvent "DMSO" end
|  7>
|  8> *xyz -1 1
|  9> C      -6.069402    0.800384    0.941952
| 10> O      -4.727480    0.416386    0.659832
| 11> C      -4.568035   -0.552166   -0.264101
| 12> O      -5.518642   -1.074506   -0.811414
| 13> C      -3.144451   -0.863613   -0.514385
| 14> N      -2.223676   -0.188352    0.243887
| 15> C      -0.952911   -0.423089    0.008036
| 16> C       0.030732    0.346273    0.884203
| 17> C      -0.005793   -0.236870    2.304575
| 18> C      -0.345336    1.832763    0.898408
| 19> N       1.360003    0.165451    0.305317
| 20> C       2.481670    0.721173    0.771184
| 21> O       2.573174    1.451090    1.749262
| 22> C       3.656124    0.351368   -0.072499
| 23> N       3.646782   -0.436646   -1.104012
| 24> N       4.924712   -0.475458   -1.582500
| 25> C       5.629575    0.293358   -0.812276
| 26> C       7.074211    0.595896   -0.916862
| 27> O       4.888200    0.843956    0.161217
| 28> N      -0.434178   -1.259884   -0.890003
| 29> C      -1.279927   -1.975705   -1.669988
| 30> O      -0.914844   -2.789437   -2.540640
| 31> C      -2.714171   -1.757236   -1.460700
| 32> O      -3.525513   -2.478919   -2.264693
| 33> H      -6.023979    1.564042    1.716259
| 34> H      -6.647867   -0.057642    1.295782
| 35> H      -6.546701    1.206211    0.045384
| 36> H       0.645422    0.330868    2.967455
| 37> H       0.320328   -1.276378    2.290277
| 38> H      -1.027028   -0.190757    2.681080
| 39> H      -0.239619    2.254877   -0.100460
| 40> H      -1.384045    1.928170    1.213246
| 41> H       0.289366    2.386234    1.588017
| 42> H       1.399121   -0.461668   -0.498030
| 43> H       7.498109    0.063033   -1.764233
| 44> H       7.587185    0.296334   -0.003353
| 45> H       7.221499    1.667433   -1.049932
| 46> H      -2.932620   -3.016970   -2.830087
| 47> **                         ****END OF INPUT****

CARTESIAN COORDINATES (ANGSTROEM)
---------------------------------
  C     -6.069402    0.800384    0.941952
  O     -4.727480    0.416386    0.659832
  C     -4.568035   -0.552166   -0.264101
  O     -5.518642   -1.074506   -0.811414
  C     -3.144451   -0.863613   -0.514385
  N     -2.223676   -0.188352    0.243887
  C     -0.952911   -0.423089    0.008036
  C      0.030732    0.346273    0.884203
  C     -0.005793   -0.236870    2.304575
  C     -0.345336    1.832763    0.898408
  N      1.360003    0.165451    0.305317
  C      2.481670    0.721173    0.771184
  O      2.573174    1.451090    1.749262
  C      3.656124    0.351368   -0.072499
  N      3.646782   -0.436646   -1.104012
  N      4.924712   -0.475458   -1.582500
  C      5.629575    0.293358   -0.812276
  C      7.074211    0.595896   -0.916862
  O      4.888200    0.843956    0.161217
  N     -0.434178   -1.259884   -0.890003
  C     -1.279927   -1.975705   -1.669988
  O     -0.914844   -2.789437   -2.540640
  C     -2.714171   -1.757236   -1.460700
  O     -3.525513   -2.478919   -2.264693
  H     -6.023979    1.564042    1.716259
  H     -6.647867   -0.057642    1.295782
  H     -6.546701    1.206211    0.045384
  H      0.645422    0.330868    2.967455
  H      0.320328   -1.276378    2.290277
  H     -1.027028   -0.190757    2.681080
  H     -0.239619    2.254877   -0.100460
  H     -1.384045    1.928170    1.213246
  H      0.289366    2.386234    1.588017
  H      1.399121   -0.461668   -0.498030
  H      7.498109    0.063033   -1.764233
  H      7.587185    0.296334   -0.003353
  H      7.221499    1.667433   -1.049932
  H     -2.932620   -3.016970   -2.830087

 Total Charge           Charge          ....   -1
 Multiplicity           Mult            ....    1
 Number of Electrons    NEL             ....  176
 Basis Dimension        Dim             ....  581

ORBITAL ENERGIES
----------------

  NO   OCC          E(Eh)            E(eV)
   0   2.0000     -19.058986      -518.6214
   1   2.0000     -18.986014      -516.6357
   2   2.0000     -18.973752      -516.3020
   3   2.0000     -18.924800      -514.9700
   4   2.0000     -18.922162      -514.8982
   5   2.0000     -18.896419      -514.1977
   6   2.0000     -14.199214      -386.3803
   7   2.0000     -14.192694      -386.2028
   8   2.0000     -14.180133      -385.8610
   9   2.0000     -14.131875      -384.5479
  10   2.0000     -14.130794      -384.5185
  11   2.0000     -10.147225      -276.1200
  12   2.0000     -10.144546      -276.0471
  13   2.0000     -10.141342      -275.9600
  14   2.0000     -10.136994      -275.8416
  15   2.0000     -10.101201      -274.8677
  16   2.0000     -10.087526      -274.4955
  17   2.0000     -10.080599      -274.3071
  18   2.0000     -10.079817      -274.2858
  19   2.0000     -10.069011      -273.9917
  20   2.0000     -10.064478      -273.8684
  21   2.0000     -10.042519      -273.2708
  22   2.0000     -10.011576      -272.4288
  23   2.0000     -10.008014      -272.3319
  24   2.0000      -1.148781       -31.2599
  25   2.0000      -1.060183       -28.8490
  26   2.0000      -1.025015       -27.8921
  27   2.0000      -1.009648       -27.4739
  28   2.0000      -0.969487       -26.3811
  29   2.0000      -0.968904       -26.3652
  30   2.0000      -0.965079       -26.2611
  31   2.0000      -0.923522       -25.1303
  32   2.0000      -0.893516       -24.3138
  33   2.0000      -0.827035       -22.5048
  34   2.0000      -0.820895       -22.3377
  35   2.0000      -0.763029       -20.7631
  36   2.0000      -0.718911       -19.5626
  37   2.0000      -0.705127       -19.1875
  38   2.0000      -0.686486       -18.6802
  39   2.0000      -0.655896       -17.8478
  40   2.0000      -0.648924       -17.6581
  41   2.0000      -0.623946       -16.9784
  42   2.0000      -0.605468       -16.4756
  43   2.0000      -0.593655       -16.1542
  44   2.0000      -0.566051       -15.4030
  45   2.0000      -0.530829       -14.4446
  46   2.0000      -0.525609       -14.3025
  47   2.0000      -0.513474       -13.9723
  48   2.0000      -0.510533       -13.8923
  49   2.0000      -0.488433       -13.2909
  50   2.0000      -0.481576       -13.1043
  51   2.0000      -0.467767       -12.7286
  52   2.0000      -0.454322       -12.3627
  53   2.0000      -0.440980       -11.9997
  54   2.0000      -0.430129       -11.7044
  55   2.0000      -0.419847       -11.4246
  56   2.0000      -0.415599       -11.3090
  57   2.0000      -0.408884       -11.1263
  58   2.0000      -0.405211       -11.0264
  59   2.0000      -0.400037       -10.8856
  60   2.0000      -0.390204       -10.6180
  61   2.0000      -0.388043       -10.5592
  62   2.0000      -0.378621       -10.3028
  63   2.0000      -0.376940       -10.2571
  64   2.0000      -0.373134       -10.1535
  65   2.0000      -0.370917       -10.0932
  66   2.0000      -0.357272        -9.7219
  67   2.0000      -0.347461        -9.4549
  68   2.0000      -0.343936        -9.3590
  69   2.0000      -0.338570        -9.2130
  70   2.0000      -0.336205        -9.1486
  71   2.0000      -0.328942        -8.9510
  72   2.0000      -0.318413        -8.6644
  73   2.0000      -0.314459        -8.5569
  74   2.0000      -0.313302        -8.5254
  75   2.0000      -0.311716        -8.4822
  76   2.0000      -0.304798        -8.2940
  77   2.0000      -0.265408        -7.2221
  78   2.0000      -0.264164        -7.1883
  79   2.0000      -0.263739        -7.1767
  80   2.0000      -0.259161        -7.0521
  81   2.0000      -0.240016        -6.5312
  82   2.0000      -0.238776        -6.4974
  83   2.0000      -0.232133        -6.3167
  84   2.0000      -0.230403        -6.2696
  85   2.0000      -0.213428        -5.8077
  86   2.0000      -0.201451        -5.4818
  87   2.0000      -0.177550        -4.8314
  88   0.0000      -0.076849        -2.0912
  89   0.0000      -0.063099        -1.7170
  90   0.0000      -0.015698        -0.4272
  91   0.0000      -0.008458        -0.2302
  92   0.0000       0.043754         1.1906

MULLIKEN ATOMIC CHARGES
-----------------------
   0 C :   -0.314534
   1 O :   -0.180081
   2 C :    0.087335
   3 O :   -0.406056
   4 C :    0.119358
   5 N :   -0.244482
   6 C :    0.475703
   7 C :   -0.134249
   8 C :   -0.652620
   9 C :   -0.643266
  10 N :    0.027276
  11 C :   -0.121436
  12 O :   -0.461626
  13 C :    0.375989
  14 N :   -0.150739
  15 N :   -0.316000
  16 C :    0.407865
  17 C :   -0.642110
  18 O :   -0.030387
  19 N :   -0.248478
  20 C :   -0.020288
  21 O :   -0.473432
  22 C :    0.019963
  23 O :   -0.356484
  24 H :    0.170435
  25 H :    0.170610
  26 H :    0.170128
  27 H :    0.189860
  28 H :    0.182190
  29 H :    0.185318
  30 H :    0.176815
  31 H :    0.185769
  32 H :    0.191315
  33 H :    0.314166
  34 H :    0.203688
  35 H :    0.199464
  36 H :    0.199159
  37 H :    0.343864
Sum of atomic charges:   -1.0000000

LOEWDIN ATOMIC CHARGES
----------------------
   0 C :   -0.045254
   1 O :   -0.590363
   2 C :    0.397978
   3 O :   -0.433111
   4 C :    0.176205
   5 N :   -0.621404
   6 C :    0.310176
   7 C :    0.106465
   8 C :   -0.351871
   9 C :   -0.354330
  10 N :   -0.590578
  11 C :    0.375205
  12 O :   -0.473289
  13 C :    0.420432
  14 N :   -0.364388
  15 N :   -0.365708
  16 C :    0.372868
  17 C :   -0.318847
  18 O :   -0.364104
  19 N :   -0.577670
  20 C :    0.309427
  21 O :   -0.555207
  22 C :    0.255941
  23 O :   -0.475502
  24 H :    0.182098
  25 H :    0.178395
  26 H :    0.177901
  27 H :    0.172584
  28 H :    0.169557
  29 H :    0.170291
  30 H :    0.169349
  31 H :    0.175275
  32 H :    0.172496
  33 H :    0.312084
  34 H :    0.190175
  35 H :    0.190484
  36 H :    0.190527
  37 H :    0.305711

  Mayer bond orders larger than 0.100000
B(  0-C ,  1-O ) :   0.8426 B(  0-C , 24-H ) :   0.9654 B(  0-C , 25-H ) :   0.9596
B(  0-C , 26-H ) :   0.9583 B(  1-O ,  2-C ) :   1.1058 B(  2-C ,  3-O ) :   1.9050
B(  2-C ,  4-C ) :   1.0104 B(  4-C ,  5-N ) :   1.0805 B(  4-C , 22-C ) :   1.4176
B(  5-N ,  6-C ) :   1.3910 B(  6-C ,  7-C ) :   0.7709 B(  6-C , 10-N ) :  -0.1165
B(  6-C , 19-N ) :   1.2858 B(  7-C ,  8-C ) :   0.9007 B(  7-C ,  9-C ) :   0.9079
B(  7-C , 10-N ) :   0.9190 B(  7-C , 19-N ) :   0.1194 B(  8-C , 27-H ) :   0.9624
B(  8-C , 28-H ) :   0.9738 B(  8-C , 29-H ) :   0.9700 B(  9-C , 30-H ) :   0.9744
B(  9-C , 31-H ) :   0.9631 B(  9-C , 32-H ) :   0.9692 B( 10-N , 11-C ) :   1.1936
B( 10-N , 33-H ) :   0.8292 B( 11-C , 12-O ) :   1.8956 B( 11-C , 13-C ) :   0.8587
B( 13-C , 14-N ) :   1.6858 B( 13-C , 18-O ) :   1.1261 B( 14-N , 15-N ) :   1.2065
B( 15-N , 16-C ) :   1.6203 B( 16-C , 17-C ) :   0.8315 B( 16-C , 18-O ) :   1.0725
B( 17-C , 34-H ) :   0.9900 B( 17-C , 35-H ) :   0.9437 B( 17-C , 36-H ) :   0.9430
B( 19-N , 20-C ) :   1.2877 B( 20-C , 21-O ) :   1.9745 B( 20-C , 22-C ) :   0.9194
B( 22-C , 23-O ) :   1.0992 B( 23-O , 37-H ) :   0.8093

Dispersion correction           -0.016696229
FINAL SINGLE POINT ENERGY     -1228.904152712337

DIPOLE MOMENT
-------------
                                X             Y             Z
Electronic contribution:      2.04836      -7.24527      -8.35421
Nuclear contribution   :      0.71483       9.85956      10.26809
                        -----------------------------------------
Total Dipole Moment    :      2.76319       2.61429       1.91388
                        -----------------------------------------
Magnitude (a.u.)       :      4.25825
Magnitude (Debye)      :     10.82361

Rotational constants in cm-1:     0.017885     0.003533     0.003037
Rotational constants in MHz :   536.191267   105.918374    91.058214

                             ****ORCA TERMINATED NORMALLY****
TOTAL RUN TIME: 0 days 0 hours 1 minutes 52 seconds 192 msec
