   * xtb version 6.5.1 (579679a) compiled by 'ehlert@majestix' on 2022-07-11
          program call               : /lustre/hpc/kemi/ree/PhD/git/ReactivityQM/dep/xtb-6.5.1/bin/xtb --gfn 1 /lustre/hpc/kemi/ree/PhD/git/ReactivityQM/calculations/R02deprot/reac01/conf02/R02deprot_reac01_conf02_gfn1.xyz --opt --vfukui --chrg -1 --uhf 0 --alpb DMSO

   ID    Z sym.   atoms
    1    6 C      1, 3, 5, 7-10, 12, 14, 17, 18, 21, 23
    2    8 O      2, 4, 13, 19, 22, 24
    3    7 N      6, 11, 15, 16, 20
    4    1 H      25-38

      * Solvation model:               ALPB
        Solvent                        DMSO
        Solvent mass                       7.8130E+01 g/mol
          :  Hamiltonian                  GFN1-xTB          :
 * total energy  :   -79.5991732 Eh     change       -0.3718981E-10 Eh
 * total energy  :   -79.6099666 Eh     change       -0.1079334E-01 Eh
 * total energy  :   -79.6139763 Eh     change       -0.4009714E-02 Eh
 * total energy  :   -79.6150008 Eh     change       -0.1024508E-02 Eh
 * total energy  :   -79.6157010 Eh     change       -0.7001756E-03 Eh
 * total energy  :   -79.6159467 Eh     change       -0.2457474E-03 Eh
 * total energy  :   -79.6160745 Eh     change       -0.1278237E-03 Eh
 * total energy  :   -79.6161610 Eh     change       -0.8646535E-04 Eh
 * total energy  :   -79.6162382 Eh     change       -0.7717741E-04 Eh
 * total energy  :   -79.6163209 Eh     change       -0.8275023E-04 Eh
 * total energy  :   -79.6172796 Eh     change       -0.3052533E-04 Eh
 * total energy  :   -79.6172945 Eh     change       -0.1485778E-04 Eh
 * total energy  :   -79.6173052 Eh     change       -0.1068452E-04 Eh
 * total energy  :   -79.6173121 Eh     change       -0.6995300E-05 Eh
 * total energy  :   -79.6173197 Eh     change       -0.7517577E-05 Eh
 * total energy  :   -79.6173254 Eh     change       -0.5719970E-05 Eh
 * total energy  :   -79.6173307 Eh     change       -0.5297830E-05 Eh
 * total energy  :   -79.6173362 Eh     change       -0.5492920E-05 Eh
 * total energy  :   -79.6173395 Eh     change       -0.3317813E-05 Eh
   *** GEOMETRY OPTIMIZATION CONVERGED AFTER 44 ITERATIONS ***

 final structure:
================
38
 xtb: 6.5.1 (579679a)
C           -6.06940210377238        0.80038388685429        0.94195208065417
O           -4.72747995899172        0.41638587711248        0.65983206030873
C           -4.56803498094851       -0.55216598870968       -0.26410060788422
O           -5.51864179885245       -1.07450606076940       -0.81141412349832
C           -3.14445072038086       -0.86361331347387       -0.51438491457246
N           -2.22367578971128       -0.18835187701941        0.24388719742226
C           -0.95291112263918       -0.42308904681000        0.00803553619261
C            0.03073246775594        0.34627269696543        0.88420324093622
C           -0.00579335786432       -0.23687033420748        2.30457469328781
C           -0.34533565003535        1.83276267570919        0.89840829180863
N            1.36000305053338        0.16545122155904        0.30531681277693
C            2.48166993032098        0.72117293454428        0.77118395535309
O            2.57317429949881        1.45109009354148        1.74926171880416
C            3.65612440580191        0.35136758198651       -0.07249864582996
N            3.64678151860664       -0.43664637277911       -1.10401204447281
N            4.92471164337615       -0.47545829198429       -1.58250035540534
C            5.62957466244211        0.29335796195086       -0.81227588862064
C            7.07421127855602        0.59589625425149       -0.91686231827443
O            4.88820044772210        0.84395550883371        0.16121655892747
N           -0.43417800843688       -1.25988436207520       -0.89000251234021
C           -1.27992671293900       -1.97570529774986       -1.66998791534723
O           -0.91484386144569       -2.78943679183622       -2.54064014512749
C           -2.71417080392298       -1.75723613810383       -1.46070006941092
O           -3.52551269114227       -2.47891914873924       -2.26469331353763
H           -6.02397902971060        1.56404210030258        1.71625895218425
H           -6.64786670040164       -0.05764171998515        1.29578172044760
H           -6.54670137148198        1.20621059473337        0.04538403952475
H            0.64542180080131        0.33086762963108        2.96745475894845
H            0.32032838945645       -1.27637758264220        2.29027728917577
H           -1.02702752628689       -0.19075710296984        2.68107968682273
H           -0.23961898365786        2.25487653437297       -0.10045968921236
H           -1.38404528097022        1.92816972009484        1.21324632394707
H            0.28936591562119        2.38623419925519        1.58801712798828
H            1.39912138494003       -0.46166806448986       -0.49803015370908
H            7.49810937394705        0.06303311488803       -1.76423298560067
H            7.58718485238185        0.29633369611644       -0.00335345284723
H            7.22149872055256        1.66743328902727       -1.04993226854756
H           -2.93261968870977       -3.01697007741478       -2.83008664127788

          :  Hamiltonian                  GFN1-xTB          :
         :: total energy             -79.617339494145 Eh    ::
         :: gradient norm              0.000307419249 Eh/a0 ::
         :: HOMO-LUMO gap              2.072585814308 eV    ::
         :: SCC energy               -80.337536369621 Eh    ::
         :: -> Gsolv                  -0.108194641746 Eh    ::
         :: repulsion energy           0.742740989603 Eh    ::

    * Orbital Energies and Occupations

         #    Occupation            Energy/Eh            Energy/eV
      -------------------------------------------------------------
         1        2.0000           -0.8557886             -23.2872
       ...           ...                  ...                  ...
        52        2.0000           -0.4757213             -12.9450
        53        2.0000           -0.4734074             -12.8821
        54        2.0000           -0.4725394             -12.8585
        55        2.0000           -0.4545765             -12.3697
        56        2.0000           -0.4507369             -12.2652
        57        2.0000           -0.4498342             -12.2406
        58        2.0000           -0.4416883             -12.0190
        59        2.0000           -0.4390843             -11.9481
        60        2.0000           -0.4309603             -11.7270
        61        2.0000           -0.4211224             -11.4593
        62        2.0000           -0.4046567             -11.0113
        63        2.0000           -0.3771097             -10.2617
        64        2.0000           -0.3734746             -10.1628 (HOMO)
        65                         -0.2973084              -8.0902 (LUMO)
        66                         -0.2785524              -7.5798
        67                         -0.2500873              -6.8052
        68                         -0.2304124              -6.2698
        69                         -0.1921019              -5.2274
        70                         -0.1858155              -5.0563
        71                         -0.1400073              -3.8098
        72                         -0.1286493              -3.5007
        73                         -0.1105999              -3.0096
        74                         -0.1064277              -2.8960
        75                         -0.1039208              -2.8278
       ...                                ...                  ...
       124                          0.7501053              20.4114
      -------------------------------------------------------------
                  HL-Gap            0.0761661 Eh            2.0726 eV

Wiberg/Mayer (AO) data.
largest (>0.10) Wiberg bond orders for each atom

     #   Z sym  total        # sym  WBO       # sym  WBO       # sym  WBO
 ---------------------------------------------------------------------------
     1   6 C    3.888 --    25 H    0.987    27 H    0.980    26 H    0.980
                             2 O    0.914
     2   8 O    2.178 --     3 C    1.077     1 C    0.914     4 O    0.123
     3   6 C    3.838 --     4 O    1.636     2 O    1.077     5 C    1.029
     4   8 O    1.900 --     3 C    1.636     2 O    0.123
     5   6 C    3.964 --    23 C    1.477     6 N    1.200     3 C    1.029
     6   7 N    2.996 --     7 C    1.471     5 C    1.200
     7   6 C    3.958 --     6 N    1.471    20 N    1.359     8 C    0.970
     8   6 C    3.929 --    10 C    0.988     9 C    0.980     7 C    0.970
                            11 N    0.923
     9   6 C    3.994 --    29 H    0.986    30 H    0.986    28 H    0.983
                             8 C    0.980
    10   6 C    3.994 --     8 C    0.988    31 H    0.987    33 H    0.983
                            32 H    0.983
    11   7 N    3.385 --    12 C    1.301     8 C    0.923    34 H    0.872
                            13 O    0.188
    12   6 C    3.925 --    13 O    1.563    11 N    1.301    14 C    0.980
    13   8 O    1.883 --    12 C    1.563    11 N    0.188
    14   6 C    3.869 --    15 N    1.620    19 O    1.060    12 C    0.980
    15   7 N    3.010 --    14 C    1.620    16 N    1.191
    16   7 N    2.980 --    17 C    1.615    15 N    1.191
    17   6 C    3.874 --    16 N    1.615    19 O    1.080    18 C    1.030
    18   6 C    3.988 --    17 C    1.030    35 H    0.983    36 H    0.965
                            37 H    0.965
    19   8 O    2.324 --    17 C    1.080    14 C    1.060
    20   7 N    3.012 --     7 C    1.359    21 C    1.246    22 O    0.125
    21   6 C    3.929 --    22 O    1.472    20 N    1.246    23 C    1.073
    22   8 O    1.809 --    21 C    1.472    20 N    0.125
    23   6 C    3.906 --     5 C    1.477    24 O    1.074    21 C    1.073
    24   8 O    2.051 --    23 C    1.074    38 H    0.816
    25   1 H    1.014 --     1 C    0.987
    26   1 H    1.011 --     1 C    0.980
    27   1 H    1.010 --     1 C    0.980
    28   1 H    1.011 --     9 C    0.983
    29   1 H    1.006 --     9 C    0.986
    30   1 H    1.011 --     9 C    0.986
    31   1 H    1.006 --    10 C    0.987
    32   1 H    1.019 --    10 C    0.983
    33   1 H    1.012 --    10 C    0.983
    34   1 H    0.981 --    11 N    0.872
    35   1 H    0.999 --    18 C    0.983
    36   1 H    0.998 --    18 C    0.965
    37   1 H    0.998 --    18 C    0.965
    38   1 H    0.876 --    24 O    0.816
 ---------------------------------------------------------------------------

           -------------------------------------------------
          | TOTAL ENERGY              -79.617339494145 Eh   |
          | GRADIENT NORM               0.000307419249 Eh/α |
          | HOMO-LUMO GAP               2.072585814308 eV   |
           -------------------------------------------------

 * finished run on 2023/06/20 at 17:32:18.562
