   * xtb version 6.5.1 (579679a) compiled by 'ehlert@majestix' on 2022-07-11
          program call               : /lustre/hpc/kemi/ree/PhD/git/ReactivityQM/dep/xtb-6.5.1/bin/xtb --gfn 1 /lustre/hpc/kemi/ree/PhD/git/ReactivityQM/calculations/R03/reac02prodN02/conf12/R03_reac02prodN02_conf12_gfn1.xyz --opt --vfukui --chrg 1 --uhf 0 --alpb DMSO

   ID    Z sym.   atoms
    1    6 C      1, 3, 5, 7-10, 12, 14, 15, 18, 19, 22, 23, 25
    2    8 O      2, 4, 13, 20, 24, 26
    3    7 N      6, 11, 16, 17, 21
    4    1 H      27-46

      * Solvation model:               ALPB
        Solvent                        DMSO
        Solvent mass                       7.8130E+01 g/mol
          :  Hamiltonian                  GFN1-xTB          :
 * total energy  :   -86.3183624 Eh     change       -0.4963852E-10 Eh
 * total energy  :   -86.3393010 Eh     change       -0.2093857E-01 Eh
 * total energy  :   -86.3466727 Eh     change       -0.7371720E-02 Eh
 * total energy  :   -86.3480867 Eh     change       -0.1413982E-02 Eh
 * total energy  :   -86.3489732 Eh     change       -0.8864789E-03 Eh
 * total energy  :   -86.3492913 Eh     change       -0.3181288E-03 Eh
 * total energy  :   -86.3495338 Eh     change       -0.2424902E-03 Eh
 * total energy  :   -86.3497145 Eh     change       -0.1807019E-03 Eh
 * total energy  :   -86.3498616 Eh     change       -0.1470841E-03 Eh
 * total energy  :   -86.3499891 Eh     change       -0.1275542E-03 Eh
 * total energy  :   -86.3503195 Eh     change       -0.6446075E-04 Eh
 * total energy  :   -86.3503652 Eh     change       -0.4562531E-04 Eh
 * total energy  :   -86.3504221 Eh     change       -0.5692911E-04 Eh
 * total energy  :   -86.3504446 Eh     change       -0.2255767E-04 Eh
 * total energy  :   -86.3504658 Eh     change       -0.2112083E-04 Eh
 * total energy  :   -86.3504811 Eh     change       -0.1531305E-04 Eh
 * total energy  :   -86.3504856 Eh     change       -0.4566126E-05 Eh
 * total energy  :   -86.3504916 Eh     change       -0.5942395E-05 Eh
 * total energy  :   -86.3504943 Eh     change       -0.2706541E-05 Eh
   *** GEOMETRY OPTIMIZATION CONVERGED AFTER 22 ITERATIONS ***

 final structure:
================
46
 xtb: 6.5.1 (579679a)
C           -5.67747307731396       -3.55690544385496        1.65977114651760
O           -4.67797047625031       -3.05431769152367        0.75712666520860
C           -3.88025696338145       -2.09472603251978        1.24120767995604
O           -3.97597013651825       -1.66149579341613        2.36341843267214
C           -2.87091081242456       -1.62115915023854        0.25235068900313
N           -2.08445640415320       -0.60830890061064        0.73183475319984
C           -1.16106588259516       -0.07337504150949        0.00766006322839
C           -0.40106053419777        1.07204944095242        0.66448859481926
C           -0.87646107502626        2.41486756548303        0.09104325992100
C           -0.63104054029410        1.03097225158547        2.18113441729167
N            1.04543729401190        0.85507150152938        0.44468188581700
C            2.00571532379943        1.71326013733927        0.69199243130468
O            1.70741323991357        2.90499374460415        1.10731224666911
C            2.69700615958866        3.91717975235480        1.36031867746949
C            3.35930221963202        1.26547395083869        0.47308334666512
N            4.48852662115309        1.89897327179138        0.63740577960974
N            5.47034281749565        1.04348407042343        0.30767227875149
C            4.90061999706547       -0.07868867981161       -0.04498567030010
C            5.55437378117089       -1.32425499365521       -0.48593566644251
O            3.56745322821314        0.00381367103873        0.03871268936938
N           -0.92773622589077       -0.47324323666493       -1.28025988849558
C            0.08998457292340        0.09377020089365       -2.16577743958352
C           -1.63861573224434       -1.52528852071413       -1.86472230163924
O           -1.38050735400744       -1.88914642188475       -2.99900132029068
C           -2.68135734597330       -2.10496892438444       -1.01556470276224
O           -3.36881883617156       -3.09299732538495       -1.59114009552332
H           -6.32085890436973       -2.73877658996653        1.99037577793805
H           -6.25292179711941       -4.29550183016870        1.10717716134748
H           -5.19474609258833       -4.01603672639510        2.52495596677183
H           -1.95438874077877        2.36552048880530       -0.05969560999089
H           -0.39724114253642        2.63542606491436       -0.85908320920315
H           -0.66006462828489        3.22402349479287        0.78472619467379
H           -1.68896111375021        1.18215913063496        2.38914297073033
H           -0.32596863316201        0.06492599920007        2.57874672833462
H           -0.05199905552625        1.81777757132386        2.65895362470615
H            1.34058986433232       -0.08022429442681        0.19681967068210
H            2.13767595515811        4.79513763666361        1.67796067199932
H            3.25780241209404        4.12229220351506        0.44753994135100
H            3.37660940614937        3.58271592791388        2.14539896441766
H            5.21017632555353       -2.15705250583609        0.12734854756739
H            6.63438541880651       -1.22332264402186       -0.40554421598288
H            5.28171752102438       -1.53738771818820       -1.52021927143617
H            0.42182777940994        1.05697936365847       -1.80312483254848
H            0.93287663127562       -0.59412948168047       -2.22281727586474
H           -0.34817562380384        0.20367174018985       -3.15828866350526
H           -4.05080844040921       -3.46323123357532       -1.00281409442581

          :  Hamiltonian                  GFN1-xTB          :
         :: total energy             -86.350494296328 Eh    ::
         :: gradient norm              0.000329870857 Eh/a0 ::
         :: HOMO-LUMO gap              1.629574703051 eV    ::
         :: SCC energy               -87.182033949798 Eh    ::
         :: -> Gsolv                  -0.115103530584 Eh    ::
         :: repulsion energy           0.860646232257 Eh    ::

    * Orbital Energies and Occupations

         #    Occupation            Energy/Eh            Energy/eV
      -------------------------------------------------------------
         1        2.0000           -0.9066432             -24.6710
       ...           ...                  ...                  ...
        58        2.0000           -0.5272275             -14.3466
        59        2.0000           -0.5220483             -14.2057
        60        2.0000           -0.5193708             -14.1328
        61        2.0000           -0.5152354             -14.0203
        62        2.0000           -0.5112860             -13.9128
        63        2.0000           -0.5033878             -13.6979
        64        2.0000           -0.4923764             -13.3982
        65        2.0000           -0.4906334             -13.3508
        66        2.0000           -0.4887020             -13.2983
        67        2.0000           -0.4852743             -13.2050
        68        2.0000           -0.4698096             -12.7842
        69        2.0000           -0.4577272             -12.4554
        70        2.0000           -0.4387775             -11.9397 (HOMO)
        71                         -0.3788918             -10.3102 (LUMO)
        72                         -0.3325787              -9.0499
        73                         -0.2966569              -8.0724
        74                         -0.2915660              -7.9339
        75                         -0.2585470              -7.0354
        76                         -0.2491604              -6.7800
        77                         -0.1682067              -4.5771
        78                         -0.1638432              -4.4584
        79                         -0.1562759              -4.2525
        80                         -0.1549418              -4.2162
        81                         -0.1476655              -4.0182
       ...                                ...                  ...
       144                          0.7298545              19.8604
      -------------------------------------------------------------
                  HL-Gap            0.0598858 Eh            1.6296 eV

Wiberg/Mayer (AO) data.
largest (>0.10) Wiberg bond orders for each atom

     #   Z sym  total        # sym  WBO       # sym  WBO       # sym  WBO
 ---------------------------------------------------------------------------
     1   6 C    3.858 --    28 H    0.986    27 H    0.980    29 H    0.980
                             2 O    0.881
     2   8 O    2.206 --     3 C    1.094     1 C    0.881     4 O    0.131
     3   6 C    3.849 --     4 O    1.674     2 O    1.094     5 C    1.002
     4   8 O    1.935 --     3 C    1.674     2 O    0.131
     5   6 C    3.960 --    25 C    1.491     6 N    1.179     3 C    1.002
     6   7 N    3.037 --     7 C    1.582     5 C    1.179
     7   6 C    3.939 --     6 N    1.582    21 N    1.174     8 C    0.976
     8   6 C    3.898 --    10 C    0.982     9 C    0.980     7 C    0.976
                            11 N    0.887
     9   6 C    3.981 --    30 H    0.981     8 C    0.980    32 H    0.979
                            31 H    0.978
    10   6 C    3.978 --    35 H    0.984    34 H    0.983     8 C    0.982
                            33 H    0.979
    11   7 N    3.477 --    12 C    1.439     8 C    0.887    36 H    0.874
                            13 O    0.109
    12   6 C    3.895 --    11 N    1.439    13 O    1.206    15 C    1.090
    13   8 O    2.285 --    12 C    1.206    14 C    0.857    11 N    0.109
    14   6 C    3.823 --    37 H    0.980    38 H    0.973    39 H    0.973
                            13 O    0.857
    15   6 C    3.887 --    16 N    1.544    12 C    1.090    20 O    1.046
    16   7 N    3.032 --    15 C    1.544    17 N    1.258
    17   7 N    2.989 --    18 C    1.543    16 N    1.258
    18   6 C    3.848 --    17 N    1.543    20 O    1.088    19 C    1.041
    19   6 C    3.978 --    18 C    1.041    41 H    0.979    40 H    0.956
                            42 H    0.951
    20   8 O    2.333 --    18 C    1.088    15 C    1.046
    21   7 N    3.497 --     7 C    1.174    23 C    1.099    22 C    0.929
                            24 O    0.136
    22   6 C    3.920 --    43 H    0.979    44 H    0.974    45 H    0.972
                            21 N    0.929
    23   6 C    3.910 --    24 O    1.601    21 N    1.099    25 C    1.063
    24   8 O    1.912 --    23 C    1.601    21 N    0.136
    25   6 C    3.921 --     5 C    1.491    26 O    1.118    23 C    1.063
    26   8 O    2.098 --    25 C    1.118    46 H    0.797
    27   1 H    1.006 --     1 C    0.980
    28   1 H    1.008 --     1 C    0.986
    29   1 H    1.005 --     1 C    0.980
    30   1 H    0.998 --     9 C    0.981
    31   1 H    1.000 --     9 C    0.978
    32   1 H    1.003 --     9 C    0.979
    33   1 H    1.008 --    10 C    0.979
    34   1 H    1.003 --    10 C    0.983
    35   1 H    1.000 --    10 C    0.984
    36   1 H    0.922 --    11 N    0.874
    37   1 H    1.001 --    14 C    0.980
    38   1 H    1.006 --    14 C    0.973
    39   1 H    1.008 --    14 C    0.973
    40   1 H    0.992 --    19 C    0.956
    41   1 H    0.994 --    19 C    0.979
    42   1 H    0.992 --    19 C    0.951
    43   1 H    1.005 --    22 C    0.979
    44   1 H    0.999 --    22 C    0.974
    45   1 H    1.003 --    22 C    0.972
    46   1 H    0.849 --    26 O    0.797
 ---------------------------------------------------------------------------

           -------------------------------------------------
          | TOTAL ENERGY              -86.350494296328 Eh   |
          | GRADIENT NORM               0.000329870857 Eh/α |
          | HOMO-LUMO GAP               1.629574703051 eV   |
           -------------------------------------------------

 * finished run on 2023/06/20 at 15:36:58.576
