   * xtb version 6.5.1 (579679a) compiled by 'ehlert@majestix' on 2022-07-11
          program call               : /lustre/hpc/kemi/ree/PhD/git/ReactivityQM/dep/xtb-6.5.1/bin/xtb --gfn 1 /lustre/hpc/kemi/ree/PhD/git/ReactivityQM/calculations/R02deprot/reac01prodN08/conf15/R02deprot_reac01prodN08_conf15_gfn1.xyz --opt --vfukui --chrg 0 --uhf 0 --alpb DMSO

   ID    Z sym.   atoms
    1    6 C      1, 3, 5, 7-10, 12, 14, 17-19, 22, 24
    2    8 O      2, 4, 13, 20, 23, 25
    3    7 N      6, 11, 15, 16, 21
    4    1 H      26-42

      * Solvation model:               ALPB
        Solvent                        DMSO
        Solvent mass                       7.8130E+01 g/mol
          :  Hamiltonian                  GFN1-xTB          :
 * total energy  :   -82.9458411 Eh     change       -0.6561152E-10 Eh
 * total energy  :   -82.9624192 Eh     change       -0.1657808E-01 Eh
 * total energy  :   -82.9682594 Eh     change       -0.5840207E-02 Eh
 * total energy  :   -82.9691777 Eh     change       -0.9183327E-03 Eh
 * total energy  :   -82.9698696 Eh     change       -0.6919057E-03 Eh
 * total energy  :   -82.9701180 Eh     change       -0.2483341E-03 Eh
 * total energy  :   -82.9704068 Eh     change       -0.2888111E-03 Eh
 * total energy  :   -82.9706598 Eh     change       -0.2529983E-03 Eh
 * total energy  :   -82.9708935 Eh     change       -0.2337033E-03 Eh
 * total energy  :   -82.9710991 Eh     change       -0.2056283E-03 Eh
 * total energy  :   -82.9758774 Eh     change       -0.2632646E-04 Eh
 * total energy  :   -82.9759041 Eh     change       -0.2665955E-04 Eh
 * total energy  :   -82.9759236 Eh     change       -0.1950784E-04 Eh
 * total energy  :   -82.9759364 Eh     change       -0.1278963E-04 Eh
 * total energy  :   -82.9759452 Eh     change       -0.8835634E-05 Eh
 * total energy  :   -82.9759535 Eh     change       -0.8284461E-05 Eh
 * total energy  :   -82.9759620 Eh     change       -0.8523357E-05 Eh
 * total energy  :   -82.9759683 Eh     change       -0.6286477E-05 Eh
 * total energy  :   -82.9759721 Eh     change       -0.3786581E-05 Eh
   *** GEOMETRY OPTIMIZATION CONVERGED AFTER 121 ITERATIONS ***

 final structure:
================
42
 xtb: 6.5.1 (579679a)
C            6.64896225176784        0.62559053296743       -1.17520807544724
O            5.27522041577902        0.45214204139781       -0.83068874209336
C            4.96203278773201        0.61789391040665        0.45963269794929
O            5.80825907085695        0.89978060756153        1.29703559774334
C            3.53385294773314        0.44084947300144        0.75879505376457
N            2.70709990766981        0.11104389847789       -0.28237043075478
C            1.43297618941718       -0.01654916049088        0.00631996780777
C            0.52948909864565       -0.37962952366109       -1.16660191455906
C            0.67968979269136        0.67001496693097       -2.27369045695222
C            0.89190574469965       -1.77790586407876       -1.68083580089988
N           -0.84293936904768       -0.37203849591613       -0.65148009571768
C           -1.92409970870622       -0.61152976217744       -1.37632071174999
O           -1.98147443017620       -0.90692403965997       -2.55809725234451
C           -3.20158716443813       -0.46667367163179       -0.58299806809687
N           -4.41288016111086       -0.57343411183049       -1.04101314003655
N           -5.20804348494257       -0.33374835046883        0.02007389944585
C           -6.64363642436905       -0.34788561625200       -0.15087707292459
C           -4.47697104593712       -0.08771702416978        1.08612929087241
C           -4.90440392396845        0.23807934401805        2.45703464894273
O           -3.20950654858570       -0.16639610958072        0.73178816122485
N            0.84775212251865        0.13316281751530        1.18862722607653
C            1.59739612425576        0.45242607557168        2.28663283238522
O            1.09542542319341        0.59632391832302        3.40931216951903
C            3.03941162308104        0.61383091862663        2.03250828150908
O            3.81225997262100        0.93617299611276        3.09096504918447
H            7.26748571206160       -0.10362597117973       -0.64563135416019
H            6.72515476638653        0.47209308731034       -2.25004583910671
H            6.98116184307695        1.63376136772997       -0.91397851285857
H            0.09397066838616        0.39708633742364       -3.14973428970181
H            1.73182629798256        0.73501467338426       -2.54973770986420
H            0.34842654205821        1.64245419080466       -1.91165123015143
H            1.95163412202840       -1.79234189744951       -1.93376632686346
H            0.70125015036078       -2.52153063981276       -0.90797623177150
H            0.30822635441846       -2.02613062076104       -2.56574485131065
H           -0.90526943463501       -0.14485424078864        0.34333480423551
H           -7.11219757620114       -0.46153359032281        0.82212738139897
H           -6.95081841664942        0.59228995614551       -0.60760099818237
H           -6.90068288880708       -1.17931468977282       -0.80354289336527
H           -5.23617597515321        1.27729038928383        2.50043472531385
H           -5.73928629213232       -0.39468415744847        2.75357064797036
H           -4.06886618414530        0.10356419214656        3.14160202656060
H            4.74796709957549        1.02358284231191        2.81105653700576

          :  Hamiltonian                  GFN1-xTB          :
         :: total energy             -82.975972110136 Eh    ::
         :: gradient norm              0.000336460182 Eh/a0 ::
         :: HOMO-LUMO gap              0.744257211706 eV    ::
         :: SCC energy               -83.755440282987 Eh    ::
         :: -> Gsolv                  -0.095723560084 Eh    ::
         :: repulsion energy           0.804276374857 Eh    ::

    * Orbital Energies and Occupations

         #    Occupation            Energy/Eh            Energy/eV
      -------------------------------------------------------------
         1        2.0000           -0.9318606             -25.3572
       ...           ...                  ...                  ...
        55        2.0000           -0.5006958             -13.6246
        56        2.0000           -0.4948256             -13.4649
        57        2.0000           -0.4881694             -13.2838
        58        2.0000           -0.4844171             -13.1817
        59        2.0000           -0.4796851             -13.0529
        60        2.0000           -0.4704634             -12.8020
        61        2.0000           -0.4561552             -12.4126
        62        2.0000           -0.4544375             -12.3659
        63        2.0000           -0.4412196             -12.0062
        64        2.0000           -0.4260198             -11.5926
        65        2.0000           -0.4077328             -11.0950
        66        2.0000           -0.3796472             -10.3307
        67        2.0000           -0.3753530             -10.2139 (HOMO)
        68        0.0000           -0.3480020              -9.4696 (LUMO)
        69                         -0.3385657              -9.2128
        70                         -0.2845946              -7.7442
        71                         -0.2339304              -6.3656
        72                         -0.2270419              -6.1781
        73                         -0.1962933              -5.3414
        74                         -0.1835253              -4.9940
        75                         -0.1713768              -4.6634
        76                         -0.1289751              -3.5096
        77                         -0.1219182              -3.3176
        78                         -0.1168131              -3.1786
       ...                                ...                  ...
       134                          0.7290586              19.8387
      -------------------------------------------------------------
                  HL-Gap            0.0273509 Eh            0.7443 eV

Wiberg/Mayer (AO) data.
largest (>0.10) Wiberg bond orders for each atom

     #   Z sym  total        # sym  WBO       # sym  WBO       # sym  WBO
 ---------------------------------------------------------------------------
     1   6 C    3.882 --    27 H    0.987    26 H    0.980    28 H    0.980
                             2 O    0.907
     2   8 O    2.194 --     3 C    1.101     1 C    0.907     4 O    0.119
     3   6 C    3.837 --     4 O    1.589     2 O    1.101     5 C    1.047
     4   8 O    1.921 --     3 C    1.589     2 O    0.119
     5   6 C    3.962 --    24 C    1.463     6 N    1.197     3 C    1.047
     6   7 N    2.994 --     7 C    1.464     5 C    1.197
     7   6 C    3.960 --     6 N    1.464    21 N    1.374     8 C    0.968
     8   6 C    3.915 --     9 C    0.984    10 C    0.982     7 C    0.968
                            11 N    0.909
     9   6 C    3.991 --    31 H    0.986     8 C    0.984    29 H    0.984
                            30 H    0.983
    10   6 C    3.991 --    33 H    0.986    34 H    0.984    32 H    0.984
                             8 C    0.982
    11   7 N    3.425 --    12 C    1.345     8 C    0.909    35 H    0.856
                            13 O    0.209
    12   6 C    3.932 --    13 O    1.567    11 N    1.345    14 C    0.947
    13   8 O    1.901 --    12 C    1.567    11 N    0.209
    14   6 C    3.829 --    15 N    1.615    20 O    1.053    12 C    0.947
    15   7 N    2.975 --    14 C    1.615    16 N    1.144
    16   7 N    3.631 --    18 C    1.430    15 N    1.144    17 C    0.914
    17   6 C    3.890 --    36 H    0.979    38 H    0.973    37 H    0.964
                            16 N    0.914
    18   6 C    3.844 --    16 N    1.430    20 O    1.147    19 C    1.040
    19   6 C    3.963 --    18 C    1.040    41 H    0.969    40 H    0.958
                            39 H    0.938
    20   8 O    2.375 --    18 C    1.147    14 C    1.053
    21   7 N    3.019 --     7 C    1.374    22 C    1.212    23 O    0.126
    22   6 C    3.927 --    23 O    1.515    21 N    1.212    24 C    1.065
    23   8 O    1.804 --    22 C    1.515    21 N    0.126
    24   6 C    3.906 --     5 C    1.463    25 O    1.083    22 C    1.065
    25   8 O    2.058 --    24 C    1.083    42 H    0.801
    26   1 H    1.009 --     1 C    0.980
    27   1 H    1.013 --     1 C    0.987
    28   1 H    1.010 --     1 C    0.980
    29   1 H    1.009 --     9 C    0.984
    30   1 H    1.015 --     9 C    0.983
    31   1 H    1.004 --     9 C    0.986
    32   1 H    1.012 --    10 C    0.984
    33   1 H    1.004 --    10 C    0.986
    34   1 H    1.009 --    10 C    0.984
    35   1 H    0.966 --    11 N    0.856
    36   1 H    0.991 --    17 C    0.979
    37   1 H    0.990 --    17 C    0.964
    38   1 H    0.992 --    17 C    0.973
    39   1 H    0.986 --    19 C    0.938
    40   1 H    0.989 --    19 C    0.958
    41   1 H    0.986 --    19 C    0.969
    42   1 H    0.872 --    25 O    0.801
 ---------------------------------------------------------------------------

           -------------------------------------------------
          | TOTAL ENERGY              -82.975972110136 Eh   |
          | GRADIENT NORM               0.000336460182 Eh/α |
          | HOMO-LUMO GAP               0.744257211706 eV   |
           -------------------------------------------------

 * finished run on 2023/06/20 at 18:15:40.431
