                         Program Version 5.0.1 -  RELEASE  -
|  1> # ORCA input file
|  2> ! SP r2SCAN-3c CPCM
|  3>
|  4> %maxcore 1875.0
|  5> %pal nprocs 4 end
|  6> %cpcm smd true SMDsolvent "DMSO" end
|  7>
|  8> *xyz -1 1
|  9> C      -5.955284    2.257755   -0.957360
| 10> O      -4.788615    1.491290   -0.697970
| 11> C      -4.769821    0.835949    0.502490
| 12> O      -5.730106    0.930764    1.288325
| 13> C      -3.585448    0.067629    0.745460
| 14> N      -2.605528    0.052101   -0.234985
| 15> C      -1.533594   -0.630596   -0.033037
| 16> C      -0.474715   -0.726411   -1.117389
| 17> C      -0.768335   -2.011795   -1.910982
| 18> C      -0.553476    0.507222   -2.028584
| 19> N       0.823978   -0.822285   -0.445479
| 20> C       2.008093   -0.822040   -1.248820
| 21> O       2.007206   -1.209478   -2.446958
| 22> C       3.149450   -0.422206   -0.555095
| 23> N       4.443219   -0.331303   -1.021887
| 24> N       5.124976    0.153832    0.013550
| 25> C       6.542807    0.391395   -0.120053
| 26> C       4.379820    0.370691    1.073952
| 27> C       4.796478    0.906490    2.390263
| 28> O       3.102229    0.028677    0.801902
| 29> N      -1.324283   -1.360694    1.103984
| 30> C      -2.237600   -1.427031    2.172123
| 31> O      -1.952023   -2.113647    3.165357
| 32> C      -3.416482   -0.662498    1.940193
| 33> O      -4.374674   -0.662384    2.911805
| 34> H      -5.807884    2.747996   -1.919452
| 35> H      -6.106804    3.011483   -0.177651
| 36> H      -6.840554    1.614683   -1.002321
| 37> H      -1.802312   -1.996993   -2.256052
| 38> H      -0.109928   -2.093095   -2.773729
| 39> H      -0.621188   -2.880884   -1.270851
| 40> H      -1.565569    0.607098   -2.420320
| 41> H      -0.308823    1.404877   -1.461854
| 42> H       0.143324    0.408262   -2.859437
| 43> H       0.901234   -0.143438    0.303825
| 44> H       6.847178    0.063697   -1.111192
| 45> H       6.747993    1.453878    0.001884
| 46> H       7.081276   -0.169314    0.642467
| 47> H       5.639671    0.339398    2.785865
| 48> H       3.961445    0.841845    3.084817
| 49> H       5.106570    1.949573    2.304516
| 50> H      -0.454646   -1.860275    1.215950
| 51> H      -5.119254   -0.090219    2.603973
| 52> **                         ****END OF INPUT****

CARTESIAN COORDINATES (ANGSTROEM)
---------------------------------
  C     -5.955284    2.257755   -0.957360
  O     -4.788615    1.491290   -0.697970
  C     -4.769821    0.835949    0.502490
  O     -5.730106    0.930764    1.288325
  C     -3.585448    0.067629    0.745460
  N     -2.605528    0.052101   -0.234985
  C     -1.533594   -0.630596   -0.033037
  C     -0.474715   -0.726411   -1.117389
  C     -0.768335   -2.011795   -1.910982
  C     -0.553476    0.507222   -2.028584
  N      0.823978   -0.822285   -0.445479
  C      2.008093   -0.822040   -1.248820
  O      2.007206   -1.209478   -2.446958
  C      3.149450   -0.422206   -0.555095
  N      4.443219   -0.331303   -1.021887
  N      5.124976    0.153832    0.013550
  C      6.542807    0.391395   -0.120053
  C      4.379820    0.370691    1.073952
  C      4.796478    0.906490    2.390263
  O      3.102229    0.028677    0.801902
  N     -1.324283   -1.360694    1.103984
  C     -2.237600   -1.427031    2.172123
  O     -1.952023   -2.113647    3.165357
  C     -3.416482   -0.662498    1.940193
  O     -4.374674   -0.662384    2.911805
  H     -5.807884    2.747996   -1.919452
  H     -6.106804    3.011483   -0.177651
  H     -6.840554    1.614683   -1.002321
  H     -1.802312   -1.996993   -2.256052
  H     -0.109928   -2.093095   -2.773729
  H     -0.621188   -2.880884   -1.270851
  H     -1.565569    0.607098   -2.420320
  H     -0.308823    1.404877   -1.461854
  H      0.143324    0.408262   -2.859437
  H      0.901234   -0.143438    0.303825
  H      6.847178    0.063697   -1.111192
  H      6.747993    1.453878    0.001884
  H      7.081276   -0.169314    0.642467
  H      5.639671    0.339398    2.785865
  H      3.961445    0.841845    3.084817
  H      5.106570    1.949573    2.304516
  H     -0.454646   -1.860275    1.215950
  H     -5.119254   -0.090219    2.603973

 Total Charge           Charge          ....   -1
 Multiplicity           Mult            ....    1
 Number of Electrons    NEL             ....  186
 Basis Dimension        Dim             ....  620

ORBITAL ENERGIES
----------------

  NO   OCC          E(Eh)            E(eV)
   0   2.0000     -19.017201      -517.4843
   1   2.0000     -18.973753      -516.3021
   2   2.0000     -18.955516      -515.8058
   3   2.0000     -18.916739      -514.7506
   4   2.0000     -18.893137      -514.1084
   5   2.0000     -18.871866      -513.5296
   6   2.0000     -14.267340      -388.2341
   7   2.0000     -14.186359      -386.0305
   8   2.0000     -14.169080      -385.5603
   9   2.0000     -14.150099      -385.0438
  10   2.0000     -14.137509      -384.7012
  11   2.0000     -10.135231      -275.7936
  12   2.0000     -10.127191      -275.5749
  13   2.0000     -10.106838      -275.0210
  14   2.0000     -10.092296      -274.6253
  15   2.0000     -10.083951      -274.3983
  16   2.0000     -10.083455      -274.3848
  17   2.0000     -10.074975      -274.1540
  18   2.0000     -10.072688      -274.0918
  19   2.0000     -10.068450      -273.9765
  20   2.0000     -10.064096      -273.8580
  21   2.0000     -10.050907      -273.4991
  22   2.0000     -10.043348      -273.2934
  23   2.0000     -10.004609      -272.2392
  24   2.0000     -10.001585      -272.1570
  25   2.0000      -1.103998       -30.0413
  26   2.0000      -1.042250       -28.3611
  27   2.0000      -1.003710       -27.3123
  28   2.0000      -0.985841       -26.8261
  29   2.0000      -0.974835       -26.5266
  30   2.0000      -0.950955       -25.8768
  31   2.0000      -0.947203       -25.7747
  32   2.0000      -0.928299       -25.2603
  33   2.0000      -0.858751       -23.3678
  34   2.0000      -0.841960       -22.9109
  35   2.0000      -0.819971       -22.3125
  36   2.0000      -0.751293       -20.4437
  37   2.0000      -0.730096       -19.8669
  38   2.0000      -0.711489       -19.3606
  39   2.0000      -0.683685       -18.6040
  40   2.0000      -0.682143       -18.5620
  41   2.0000      -0.649307       -17.6685
  42   2.0000      -0.643784       -17.5183
  43   2.0000      -0.626891       -17.0586
  44   2.0000      -0.606806       -16.5120
  45   2.0000      -0.571011       -15.5380
  46   2.0000      -0.548099       -14.9145
  47   2.0000      -0.528471       -14.3804
  48   2.0000      -0.522295       -14.2124
  49   2.0000      -0.515983       -14.0406
  50   2.0000      -0.497232       -13.5304
  51   2.0000      -0.488968       -13.3055
  52   2.0000      -0.477943       -13.0055
  53   2.0000      -0.463643       -12.6164
  54   2.0000      -0.457870       -12.4593
  55   2.0000      -0.431489       -11.7414
  56   2.0000      -0.428790       -11.6680
  57   2.0000      -0.420962       -11.4549
  58   2.0000      -0.417981       -11.3738
  59   2.0000      -0.412345       -11.2205
  60   2.0000      -0.403810       -10.9882
  61   2.0000      -0.402721       -10.9586
  62   2.0000      -0.396658       -10.7936
  63   2.0000      -0.392699       -10.6859
  64   2.0000      -0.384299       -10.4573
  65   2.0000      -0.379358       -10.3229
  66   2.0000      -0.378042       -10.2871
  67   2.0000      -0.376416       -10.2428
  68   2.0000      -0.365649        -9.9498
  69   2.0000      -0.363133        -9.8814
  70   2.0000      -0.355056        -9.6616
  71   2.0000      -0.352504        -9.5921
  72   2.0000      -0.347803        -9.4642
  73   2.0000      -0.335114        -9.1189
  74   2.0000      -0.327263        -8.9053
  75   2.0000      -0.324736        -8.8365
  76   2.0000      -0.318955        -8.6792
  77   2.0000      -0.315607        -8.5881
  78   2.0000      -0.314107        -8.5473
  79   2.0000      -0.308271        -8.3885
  80   2.0000      -0.303373        -8.2552
  81   2.0000      -0.299011        -8.1365
  82   2.0000      -0.276660        -7.5283
  83   2.0000      -0.255593        -6.9550
  84   2.0000      -0.246256        -6.7010
  85   2.0000      -0.243730        -6.6322
  86   2.0000      -0.226520        -6.1639
  87   2.0000      -0.218138        -5.9358
  88   2.0000      -0.212256        -5.7758
  89   2.0000      -0.209798        -5.7089
  90   2.0000      -0.189197        -5.1483
  91   2.0000      -0.180748        -4.9184
  92   2.0000      -0.077514        -2.1093
  93   0.0000      -0.076030        -2.0689
  94   0.0000      -0.030945        -0.8420
  95   0.0000      -0.010300        -0.2803
  96   0.0000       0.039273         1.0687
  97   0.0000       0.054695         1.4883

MULLIKEN ATOMIC CHARGES
-----------------------
   0 C :   -0.330474
   1 O :   -0.200075
   2 C :    0.169208
   3 O :   -0.513200
   4 C :   -0.010656
   5 N :   -0.165987
   6 C :    0.307363
   7 C :    0.055300
   8 C :   -0.656861
   9 C :   -0.664124
  10 N :   -0.254955
  11 C :   -0.205126
  12 O :   -0.499286
  13 C :    0.187801
  14 N :   -0.503269
  15 N :    0.496525
  16 C :   -0.466034
  17 C :    0.153140
  18 C :   -0.610784
  19 O :   -0.084268
  20 N :   -0.056042
  21 C :   -0.050471
  22 O :   -0.426922
  23 C :   -0.044085
  24 O :   -0.385765
  25 H :    0.165196
  26 H :    0.165105
  27 H :    0.164529
  28 H :    0.176549
  29 H :    0.199906
  30 H :    0.176440
  31 H :    0.175012
  32 H :    0.181207
  33 H :    0.192331
  34 H :    0.304456
  35 H :    0.203448
  36 H :    0.198688
  37 H :    0.198227
  38 H :    0.197990
  39 H :    0.199798
  40 H :    0.203712
  41 H :    0.291973
  42 H :    0.364479
Sum of atomic charges:   -1.0000000

LOEWDIN ATOMIC CHARGES
----------------------
   0 C :   -0.052569
   1 O :   -0.612524
   2 C :    0.370079
   3 O :   -0.550184
   4 C :    0.146989
   5 N :   -0.600218
   6 C :    0.334185
   7 C :    0.093755
   8 C :   -0.360380
   9 C :   -0.368559
  10 N :   -0.679768
  11 C :    0.294458
  12 O :   -0.606170
  13 C :    0.346476
  14 N :   -0.344059
  15 N :   -0.606079
  16 C :   -0.049510
  17 C :    0.392531
  18 C :   -0.318796
  19 O :   -0.451166
  20 N :   -0.512319
  21 C :    0.329828
  22 O :   -0.523827
  23 C :    0.217868
  24 O :   -0.503286
  25 H :    0.178928
  26 H :    0.174305
  27 H :    0.173130
  28 H :    0.163495
  29 H :    0.181153
  30 H :    0.167125
  31 H :    0.171149
  32 H :    0.166215
  33 H :    0.171737
  34 H :    0.283929
  35 H :    0.210399
  36 H :    0.200402
  37 H :    0.200682
  38 H :    0.189123
  39 H :    0.189820
  40 H :    0.188665
  41 H :    0.298833
  42 H :    0.304155

  Mayer bond orders larger than 0.100000
B(  0-C ,  1-O ) :   0.8453 B(  0-C , 25-H ) :   0.9663 B(  0-C , 26-H ) :   0.9635
B(  0-C , 27-H ) :   0.9622 B(  1-O ,  2-C ) :   1.0942 B(  2-C ,  3-O ) :   1.6112
B(  2-C ,  4-C ) :   1.2262 B(  3-O , 42-H ) :   0.1114 B(  4-C ,  5-N ) :   0.9972
B(  4-C , 23-C ) :   1.0664 B(  5-N ,  6-C ) :   1.7366 B(  6-C ,  7-C ) :   0.8387
B(  6-C , 10-N ) :  -0.1859 B(  6-C , 20-N ) :   1.0840 B(  7-C ,  8-C ) :   0.8754
B(  7-C ,  9-C ) :   0.8710 B(  7-C , 10-N ) :   1.0089 B(  8-C , 28-H ) :   0.9750
B(  8-C , 29-H ) :   0.9611 B(  8-C , 30-H ) :   0.9769 B(  9-C , 31-H ) :   0.9620
B(  9-C , 32-H ) :   0.9839 B(  9-C , 33-H ) :   0.9754 B( 10-N , 11-C ) :   0.9758
B( 10-N , 34-H ) :   0.8793 B( 11-C , 12-O ) :   1.8526 B( 11-C , 13-C ) :   1.0106
B( 12-O , 13-C ) :  -0.1394 B( 13-C , 14-N ) :   1.3927 B( 13-C , 17-C ) :   0.1011
B( 13-C , 19-O ) :   0.9348 B( 14-N , 15-N ) :   1.3874 B( 14-N , 17-C ) :   0.2137
B( 15-N , 16-C ) :   0.8788 B( 15-N , 17-C ) :   1.5467 B( 16-C , 35-H ) :   0.9487
B( 16-C , 36-H ) :   0.9345 B( 16-C , 37-H ) :   0.9361 B( 17-C , 18-C ) :   0.8106
B( 17-C , 19-O ) :   1.0491 B( 18-C , 38-H ) :   0.9574 B( 18-C , 39-H ) :   0.9719
B( 18-C , 40-H ) :   0.9515 B( 20-N , 21-C ) :   0.9478 B( 20-N , 41-H ) :   0.8804
B( 21-C , 22-O ) :   2.0648 B( 21-C , 23-C ) :   1.1083 B( 23-C , 24-O ) :   1.0980
B( 24-O , 42-H ) :   0.7561

Dispersion correction           -0.018746481
FINAL SINGLE POINT ENERGY     -1269.295810633413

DIPOLE MOMENT
-------------
                                X             Y             Z
Electronic contribution:     -6.88620      -5.04644       8.49815
Nuclear contribution   :     12.79883       8.13470      -7.73957
                        -----------------------------------------
Total Dipole Moment    :      5.91263       3.08826       0.75858
                        -----------------------------------------
Magnitude (a.u.)       :      6.71357
Magnitude (Debye)      :     17.06453

Rotational constants in cm-1:     0.013741     0.003183     0.002933
Rotational constants in MHz :   411.936774    95.436252    87.922732

                             ****ORCA TERMINATED NORMALLY****
TOTAL RUN TIME: 0 days 0 hours 2 minutes 44 seconds 378 msec
