   * xtb version 6.5.1 (579679a) compiled by 'ehlert@majestix' on 2022-07-11
          program call               : /lustre/hpc/kemi/ree/PhD/git/ReactivityQM/dep/xtb-6.5.1/bin/xtb --gfn 1 /lustre/hpc/kemi/ree/PhD/git/ReactivityQM/calculations/R02/reac01prodE10/conf03/R02_reac01prodE10_conf03_gfn1.xyz --opt --vfukui --chrg -1 --uhf 0 --alpb DMSO

   ID    Z sym.   atoms
    1    6 C      1, 3, 5, 7-10, 12, 14, 17-19, 22, 24
    2    8 O      2, 4, 13, 20, 23, 25
    3    7 N      6, 11, 15, 16, 21
    4    1 H      26-43

      * Solvation model:               ALPB
        Solvent                        DMSO
        Solvent mass                       7.8130E+01 g/mol
          :  Hamiltonian                  GFN1-xTB          :
 * total energy  :   -83.8124485 Eh     change       -0.2528111E-10 Eh
 * total energy  :   -83.8245180 Eh     change       -0.1206951E-01 Eh
 * total energy  :   -83.8290394 Eh     change       -0.4521351E-02 Eh
 * total energy  :   -83.8296029 Eh     change       -0.5635154E-03 Eh
 * total energy  :   -83.8301505 Eh     change       -0.5475520E-03 Eh
 * total energy  :   -83.8303114 Eh     change       -0.1609535E-03 Eh
 * total energy  :   -83.8304384 Eh     change       -0.1269804E-03 Eh
 * total energy  :   -83.8304848 Eh     change       -0.4645088E-04 Eh
 * total energy  :   -83.8305146 Eh     change       -0.2976988E-04 Eh
 * total energy  :   -83.8305337 Eh     change       -0.1910823E-04 Eh
 * total energy  :   -83.8305495 Eh     change       -0.1578059E-04 Eh
 * total energy  :   -83.8305574 Eh     change       -0.7903402E-05 Eh
 * total energy  :   -83.8305719 Eh     change       -0.1449460E-04 Eh
 * total energy  :   -83.8305779 Eh     change       -0.5966624E-05 Eh
 * total energy  :   -83.8305848 Eh     change       -0.6956420E-05 Eh
 * total energy  :   -83.8305893 Eh     change       -0.4493201E-05 Eh
   *** GEOMETRY OPTIMIZATION CONVERGED AFTER 16 ITERATIONS ***

 final structure:
================
43
 xtb: 6.5.1 (579679a)
C           -5.95528386092599        2.25775528699381       -0.95735960990599
O           -4.78861545715898        1.49129034187085       -0.69797040102605
C           -4.76982106936969        0.83594904338302        0.50248957032373
O           -5.73010624478003        0.93076404659786        1.28832482373883
C           -3.58544837903379        0.06762940282511        0.74545964475894
N           -2.60552759029867        0.05210052822728       -0.23498474053793
C           -1.53359361305261       -0.63059604862341       -0.03303683501318
C           -0.47471512890278       -0.72641136365752       -1.11738879370131
C           -0.76833541643305       -2.01179450100107       -1.91098190683730
C           -0.55347567818937        0.50722215111033       -2.02858387167129
N            0.82397849744540       -0.82228546017380       -0.44547863045606
C            2.00809314225063       -0.82203974752756       -1.24881962205886
O            2.00720567880215       -1.20947849873612       -2.44695846394472
C            3.14945013156482       -0.42220636809669       -0.55509468195875
N            4.44321859408331       -0.33130274131798       -1.02188655540986
N            5.12497594125269        0.15383232232470        0.01354955539222
C            6.54280691837892        0.39139541273286       -0.12005281149482
C            4.37982035766338        0.37069055672300        1.07395211523975
C            4.79647773159605        0.90648977421023        2.39026271657721
O            3.10222885985602        0.02867655137170        0.80190172324563
N           -1.32428311741815       -1.36069389963418        1.10398437155245
C           -2.23760012317877       -1.42703126944721        2.17212282193724
O           -1.95202343135630       -2.11364749067668        3.16535728777057
C           -3.41648241614694       -0.66249829319660        1.94019291773767
O           -4.37467408903234       -0.66238365349990        2.91180544852540
H           -5.80788430397355        2.74799592506275       -1.91945215473253
H           -6.10680369918446        3.01148295633363       -0.17765132738464
H           -6.84055439777380        1.61468296468349       -1.00232084309983
H           -1.80231217213201       -1.99699317344086       -2.25605178568352
H           -0.10992824276729       -2.09309544710114       -2.77372865402234
H           -0.62118790026028       -2.88088357953911       -1.27085143709612
H           -1.56556922917601        0.60709774004995       -2.42032019885499
H           -0.30882293624505        1.40487708269106       -1.46185384483465
H            0.14332443746690        0.40826214539438       -2.85943726763155
H            0.90123448264459       -0.14343751199562        0.30382535300501
H            6.84717799830204        0.06369704190341       -1.11119205519252
H            6.74799345534225        1.45387794222263        0.00188411813636
H            7.08127573434213       -0.16931442846186        0.64246692737941
H            5.63967080093715        0.33939842690431        2.78586459522310
H            3.96144485270366        0.84184539014898        3.08481730390328
H            5.10657002078352        1.94957333144852        2.30451593647451
H           -0.45464607201881       -1.86027538435880        1.21595013399328
H           -5.11925406660502       -0.09021850471320        2.60397312765395

          :  Hamiltonian                  GFN1-xTB          :
         :: total energy             -83.830589321057 Eh    ::
         :: gradient norm              0.000747000104 Eh/a0 ::
         :: HOMO-LUMO gap              0.037147267331 eV    ::
         :: SCC energy               -84.583268593117 Eh    ::
         :: -> Gsolv                  -0.125106468499 Eh    ::
         :: repulsion energy           0.778201988845 Eh    ::

    * Orbital Energies and Occupations

         #    Occupation            Energy/Eh            Energy/eV
      -------------------------------------------------------------
         1        2.0000           -0.8396820             -22.8489
       ...           ...                  ...                  ...
        56        2.0000           -0.4716610             -12.8345
        57        2.0000           -0.4648873             -12.6502
        58        2.0000           -0.4632680             -12.6062
        59        2.0000           -0.4474430             -12.1755
        60        2.0000           -0.4399690             -11.9722
        61        2.0000           -0.4362030             -11.8697
        62        2.0000           -0.4196229             -11.4185
        63        2.0000           -0.4136221             -11.2552
        64        2.0000           -0.4062327             -11.0542
        65        2.0000           -0.4026003             -10.9553
        66        2.0000           -0.3898307             -10.6078
        67        2.0000           -0.3822264             -10.4009
        68        1.3445           -0.2908974              -7.9157 (HOMO)
        69        0.6555           -0.2895323              -7.8786 (LUMO)
        70                         -0.2610120              -7.1025
        71                         -0.2362501              -6.4287
        72                         -0.1943350              -5.2881
        73                         -0.1534653              -4.1760
        74                         -0.1476388              -4.0175
        75                         -0.1384961              -3.7687
        76                         -0.1201636              -3.2698
        77                         -0.1107236              -3.0129
        78                         -0.1023559              -2.7852
        79                         -0.0987896              -2.6882
       ...                                ...                  ...
       136                          0.7069524              19.2372
      -------------------------------------------------------------
                  HL-Gap            0.0013651 Eh            0.0371 eV

Wiberg/Mayer (AO) data.
largest (>0.10) Wiberg bond orders for each atom

     #   Z sym  total        # sym  WBO       # sym  WBO       # sym  WBO
 ---------------------------------------------------------------------------
     1   6 C    3.898 --    26 H    0.987    28 H    0.980    27 H    0.980
                             2 O    0.927
     2   8 O    2.108 --     3 C    1.021     1 C    0.927
     3   6 C    3.726 --     4 O    1.472     5 C    1.165     2 O    1.021
     4   8 O    1.784 --     3 C    1.472
     5   6 C    3.823 --    24 C    1.299     3 C    1.165     6 N    1.136
     6   7 N    2.996 --     7 C    1.610     5 C    1.136
     7   6 C    3.911 --     6 N    1.610    21 N    1.154     8 C    0.977
     8   6 C    3.957 --    10 C    0.989     9 C    0.980     7 C    0.977
                            11 N    0.955
     9   6 C    3.991 --    29 H    0.988    31 H    0.986     8 C    0.980
                            30 H    0.978
    10   6 C    3.993 --     8 C    0.989    33 H    0.986    32 H    0.984
                            34 H    0.983
    11   7 N    3.091 --    12 C    1.008     8 C    0.955    35 H    0.927
    12   6 C    3.804 --    13 O    1.394    14 C    1.303    11 N    1.008
    13   8 O    1.653 --    12 C    1.394
    14   6 C    3.564 --    12 C    1.303    15 N    1.200    20 O    0.881
    15   7 N    2.689 --    14 C    1.200    16 N    1.171    18 C    0.200
    16   7 N    3.639 --    18 C    1.398    15 N    1.171    17 C    0.940
    17   6 C    3.936 --    36 H    0.983    38 H    0.979    37 H    0.978
                            16 N    0.940
    18   6 C    3.772 --    16 N    1.398    20 O    1.066    19 C    1.029
                            15 N    0.200
    19   6 C    3.987 --    18 C    1.029    40 H    0.980    39 H    0.969
                            41 H    0.964
    20   8 O    2.114 --    18 C    1.066    14 C    0.881
    21   7 N    3.330 --     7 C    1.154    22 C    1.038    42 H    0.896
                            23 O    0.100
    22   6 C    3.826 --    23 O    1.486    24 C    1.196    21 N    1.038
    23   8 O    1.740 --    22 C    1.486    21 N    0.100
    24   6 C    3.726 --     5 C    1.299    22 C    1.196    25 O    1.051
    25   8 O    1.979 --    24 C    1.051    43 H    0.790
    26   1 H    1.016 --     1 C    0.987
    27   1 H    1.013 --     1 C    0.980
    28   1 H    1.012 --     1 C    0.980
    29   1 H    1.008 --     9 C    0.988
    30   1 H    1.025 --     9 C    0.978
    31   1 H    1.009 --     9 C    0.986
    32   1 H    1.018 --    10 C    0.984
    33   1 H    1.007 --    10 C    0.986
    34   1 H    1.015 --    10 C    0.983
    35   1 H    0.967 --    11 N    0.927
    36   1 H    1.006 --    17 C    0.983
    37   1 H    0.999 --    17 C    0.978
    38   1 H    0.999 --    17 C    0.979
    39   1 H    0.996 --    19 C    0.969
    40   1 H    0.997 --    19 C    0.980
    41   1 H    0.995 --    19 C    0.964
    42   1 H    0.956 --    21 N    0.896
    43   1 H    0.879 --    25 O    0.790
 ---------------------------------------------------------------------------

           -------------------------------------------------
          | TOTAL ENERGY              -83.830589321057 Eh   |
          | GRADIENT NORM               0.000747000104 Eh/α |
          | HOMO-LUMO GAP               0.037147267331 eV   |
           -------------------------------------------------

 * finished run on 2023/06/20 at 15:10:37.699
