   * xtb version 6.5.1 (579679a) compiled by 'ehlert@majestix' on 2022-07-11
          program call               : /lustre/hpc/kemi/ree/PhD/git/ReactivityQM/dep/xtb-6.5.1/bin/xtb --gfn 1 /lustre/hpc/kemi/ree/PhD/git/ReactivityQM/calculations/R03/reac02prodE07/conf02/R03_reac02prodE07_conf02_gfn1.xyz --opt --vfukui --chrg -1 --uhf 0 --alpb DMSO

   ID    Z sym.   atoms
    1    6 C      1, 3, 5, 7-10, 12, 14, 15, 18, 19, 22, 23, 25
    2    8 O      2, 4, 13, 20, 24, 26
    3    7 N      6, 11, 16, 17, 21
    4    1 H      27-46

      * Solvation model:               ALPB
        Solvent                        DMSO
        Solvent mass                       7.8130E+01 g/mol
          :  Hamiltonian                  GFN1-xTB          :
 * total energy  :   -86.9940947 Eh     change       -0.4375522E-10 Eh
 * total energy  :   -87.0058817 Eh     change       -0.1178702E-01 Eh
 * total energy  :   -87.0110600 Eh     change       -0.5178299E-02 Eh
 * total energy  :   -87.0122057 Eh     change       -0.1145720E-02 Eh
 * total energy  :   -87.0130425 Eh     change       -0.8367934E-03 Eh
 * total energy  :   -87.0134046 Eh     change       -0.3621117E-03 Eh
 * total energy  :   -87.0137645 Eh     change       -0.3598891E-03 Eh
 * total energy  :   -87.0140074 Eh     change       -0.2428603E-03 Eh
 * total energy  :   -87.0141921 Eh     change       -0.1847043E-03 Eh
 * total energy  :   -87.0143173 Eh     change       -0.1252577E-03 Eh
 * total energy  :   -87.0162794 Eh     change       -0.8332331E-05 Eh
 * total energy  :   -87.0162888 Eh     change       -0.9444107E-05 Eh
 * total energy  :   -87.0162964 Eh     change       -0.7572490E-05 Eh
 * total energy  :   -87.0163029 Eh     change       -0.6535738E-05 Eh
 * total energy  :   -87.0163078 Eh     change       -0.4900326E-05 Eh
 * total energy  :   -87.0163132 Eh     change       -0.5407746E-05 Eh
 * total energy  :   -87.0163189 Eh     change       -0.5620041E-05 Eh
 * total energy  :   -87.0163241 Eh     change       -0.5257596E-05 Eh
 * total energy  :   -87.0163270 Eh     change       -0.2874750E-05 Eh
   *** GEOMETRY OPTIMIZATION CONVERGED AFTER 59 ITERATIONS ***

 final structure:
================
46
 xtb: 6.5.1 (579679a)
C           -3.31227235771456        3.91304549595507        0.45049410965972
O           -2.84768020564694        2.57706250715788        0.29521600368786
C           -3.74216712037715        1.70097711497983       -0.22198170155953
O           -4.88424419783227        2.05949141244085       -0.53334203984075
C           -3.25196560203777        0.34755530133862       -0.36063568773407
N           -1.95529677498789        0.08061460141717        0.00056542786679
C           -1.46674162375817       -1.11219015131208       -0.08271996287698
C           -0.00379408252524       -1.25978256337721        0.34852803883077
C            0.06326777482709       -1.88689220264697        1.75137282239317
C            0.84538716569365       -2.03670421083165       -0.67589281892828
N            0.49956813013898        0.12763433161096        0.44676187692096
C            1.88723662862847        0.31694751618792        0.67287515505900
O            2.35389718598200       -0.08382068195448        1.91973556170780
C            3.63753105624070       -0.68827513151783        1.95238888621886
C            2.56963989036845        1.13331896921220       -0.19637237397436
N            2.07356479626869        1.59558987276888       -1.36453397646294
N            3.08519296384292        2.32107442534531       -1.94473003630531
C            4.10600458053611        2.27270081583036       -1.16187026237733
C            5.43682914600879        2.89794360807556       -1.37073747152041
O            3.87633573753655        1.54488210994811       -0.02585606420791
N           -2.23041643979450       -2.17610072872039       -0.51768764474518
C           -1.75650084431961       -3.55422907113266       -0.59371518849573
C           -3.55753527207177       -2.00387465311799       -0.98300696360298
O           -4.17978762146857       -2.97329692010392       -1.43442014636954
C           -4.06204833972092       -0.67120757223282       -0.86382695767649
O           -5.34072667773955       -0.45567658432315       -1.26283579648341
H           -4.17025458690533        3.94460762935275        1.12856710129044
H           -3.60956408717513        4.33198851160549       -0.51554000807845
H           -2.48811075483899        4.49037166706977        0.86795439869169
H            1.07817382277383       -2.20929635205120        1.97245818143449
H           -0.23788763047925       -1.14512499532524        2.49122516631626
H           -0.59567446171585       -2.74797171796875        1.83676587522916
H            1.88445525659636       -1.71659222827392       -0.58506017150138
H            0.50832303595112       -1.82904548318223       -1.69079418423600
H            0.81621901289311       -3.10806206519579       -0.49999949266343
H            0.25524308516760        0.62495131460456       -0.41411018859999
H            3.76168032868326       -1.11646741392270        2.94860847674096
H            3.71925259290898       -1.48569120316349        1.20361652508120
H            4.43092297358484        0.04698432851303        1.77597671247351
H            5.65597659829885        3.60950025196134       -0.57358018961560
H            5.44680287051348        3.41680366670834       -2.32697317984497
H            6.21867784197032        2.13801019866451       -1.36696818901794
H           -1.05404692756447       -3.76858358664474        0.20354403685646
H           -2.61661794004902       -4.21657958408561       -0.48652423264801
H           -1.29001950913408       -3.74326089826467       -1.56175007366788
H           -5.55683141754549        0.49666934860524       -1.12428935342718

          :  Hamiltonian                  GFN1-xTB          :
         :: total energy             -87.016326984650 Eh    ::
         :: gradient norm              0.000501204805 Eh/a0 ::
         :: HOMO-LUMO gap              0.062470379524 eV    ::
         :: SCC energy               -87.796402643415 Eh    ::
         :: -> Gsolv                  -0.109384214815 Eh    ::
         :: repulsion energy           0.809261734179 Eh    ::

    * Orbital Energies and Occupations

         #    Occupation            Energy/Eh            Energy/eV
      -------------------------------------------------------------
         1        2.0000           -0.8104165             -22.0526
       ...           ...                  ...                  ...
        59        2.0000           -0.4725022             -12.8574
        60        2.0000           -0.4582479             -12.4696
        61        2.0000           -0.4543180             -12.3626
        62        2.0000           -0.4452289             -12.1153
        63        2.0000           -0.4409641             -11.9992
        64        2.0000           -0.4270148             -11.6197
        65        2.0000           -0.4218260             -11.4785
        66        2.0000           -0.4189699             -11.4008
        67        2.0000           -0.4122343             -11.2175
        68        2.0000           -0.3981805             -10.8350
        69        2.0000           -0.3956386             -10.7659
        70        2.0000           -0.3943264             -10.7302
        71        1.5400           -0.3028231              -8.2402 (HOMO)
        72        0.4600           -0.3005273              -8.1778 (LUMO)
        73                         -0.2503954              -6.8136
        74                         -0.2098354              -5.7099
        75                         -0.2070235              -5.6334
        76                         -0.1629490              -4.4341
        77                         -0.1325479              -3.6068
        78                         -0.1275193              -3.4700
        79                         -0.1256874              -3.4201
        80                         -0.1234964              -3.3605
        81                         -0.1179233              -3.2089
        82                         -0.1133651              -3.0848
       ...                                ...                  ...
       144                          0.6993982              19.0316
      -------------------------------------------------------------
                  HL-Gap            0.0022957 Eh            0.0625 eV

Wiberg/Mayer (AO) data.
largest (>0.10) Wiberg bond orders for each atom

     #   Z sym  total        # sym  WBO       # sym  WBO       # sym  WBO
 ---------------------------------------------------------------------------
     1   6 C    3.891 --    29 H    0.987    27 H    0.980    28 H    0.980
                             2 O    0.918
     2   8 O    2.138 --     3 C    1.053     1 C    0.918     4 O    0.103
     3   6 C    3.748 --     4 O    1.512     5 C    1.115     2 O    1.053
     4   8 O    1.822 --     3 C    1.512     2 O    0.103
     5   6 C    3.858 --    25 C    1.344     6 N    1.163     3 C    1.115
     6   7 N    3.010 --     7 C    1.590     5 C    1.163
     7   6 C    3.908 --     6 N    1.590    21 N    1.146     8 C    0.975
     8   6 C    3.952 --     9 C    0.984    10 C    0.984     7 C    0.975
                            11 N    0.948
     9   6 C    3.992 --     8 C    0.984    31 H    0.984    30 H    0.982
                            32 H    0.980
    10   6 C    3.988 --    34 H    0.985     8 C    0.984    35 H    0.982
                            33 H    0.976
    11   7 N    3.034 --    12 C    1.024     8 C    0.948    36 H    0.925
    12   6 C    3.577 --    15 C    1.408    11 N    1.024    13 O    0.960
    13   8 O    2.029 --    12 C    0.960    14 C    0.933
    14   6 C    3.906 --    37 H    0.985    38 H    0.981    39 H    0.980
                            13 O    0.933
    15   6 C    3.850 --    12 C    1.408    16 N    1.305    20 O    0.973
    16   7 N    2.701 --    15 C    1.305    17 N    1.167
    17   7 N    2.982 --    18 C    1.655    16 N    1.167
    18   6 C    3.821 --    17 N    1.655    19 C    1.023    20 O    1.011
    19   6 C    3.994 --    18 C    1.023    41 H    0.986    42 H    0.972
                            40 H    0.972
    20   8 O    2.188 --    18 C    1.011    15 C    0.973
    21   7 N    3.385 --     7 C    1.146    23 C    1.047    22 C    0.945
                            24 O    0.112
    22   6 C    3.941 --    45 H    0.978    43 H    0.978    44 H    0.974
                            21 N    0.945
    23   6 C    3.847 --    24 O    1.507    25 C    1.166    21 N    1.047
    24   8 O    1.792 --    23 C    1.507    21 N    0.112
    25   6 C    3.771 --     5 C    1.344    23 C    1.166    26 O    1.068
    26   8 O    2.006 --    25 C    1.068    46 H    0.791
    27   1 H    1.011 --     1 C    0.980
    28   1 H    1.011 --     1 C    0.980
    29   1 H    1.015 --     1 C    0.987
    30   1 H    1.010 --     9 C    0.982
    31   1 H    1.015 --     9 C    0.984
    32   1 H    1.006 --     9 C    0.980
    33   1 H    1.012 --    10 C    0.976
    34   1 H    1.003 --    10 C    0.985
    35   1 H    1.005 --    10 C    0.982
    36   1 H    0.998 --    11 N    0.925
    37   1 H    1.017 --    14 C    0.985
    38   1 H    1.012 --    14 C    0.981
    39   1 H    1.022 --    14 C    0.980
    40   1 H    1.002 --    19 C    0.972
    41   1 H    1.005 --    19 C    0.986
    42   1 H    1.002 --    19 C    0.972
    43   1 H    1.011 --    22 C    0.978
    44   1 H    1.013 --    22 C    0.974
    45   1 H    1.003 --    22 C    0.978
    46   1 H    0.873 --    26 O    0.791
 ---------------------------------------------------------------------------

           -------------------------------------------------
          | TOTAL ENERGY              -87.016326984650 Eh   |
          | GRADIENT NORM               0.000501204805 Eh/α |
          | HOMO-LUMO GAP               0.062470379524 eV   |
           -------------------------------------------------

 * finished run on 2023/06/20 at 15:23:02.344
