   * xtb version 6.5.1 (579679a) compiled by 'ehlert@majestix' on 2022-07-11
          program call               : /lustre/hpc/kemi/ree/PhD/git/ReactivityQM/dep/xtb-6.5.1/bin/xtb --gfn 1 /lustre/hpc/kemi/ree/PhD/git/ReactivityQM/calculations/R01/reac01prodE01/conf14/R01_reac01prodE01_conf14_gfn1.xyz --opt --vfukui --chrg -1 --uhf 0 --alpb DMSO

   ID    Z sym.   atoms
    1    6 C      1, 3, 4, 6, 9, 10
    2    8 O      2, 5, 11
    3    7 N      7, 8
    4    1 H      12-20

      * Solvation model:               ALPB
        Solvent                        DMSO
        Solvent mass                       7.8130E+01 g/mol
          :  Hamiltonian                  GFN1-xTB          :
 * total energy  :   -38.3324702 Eh     change       -0.2472689E-11 Eh
 * total energy  :   -38.3399671 Eh     change       -0.7496846E-02 Eh
 * total energy  :   -38.3428874 Eh     change       -0.2920312E-02 Eh
 * total energy  :   -38.3436321 Eh     change       -0.7447439E-03 Eh
 * total energy  :   -38.3440119 Eh     change       -0.3797327E-03 Eh
 * total energy  :   -38.3441555 Eh     change       -0.1436574E-03 Eh
 * total energy  :   -38.3442522 Eh     change       -0.9664716E-04 Eh
 * total energy  :   -38.3442946 Eh     change       -0.4238625E-04 Eh
 * total energy  :   -38.3443103 Eh     change       -0.1571830E-04 Eh
 * total energy  :   -38.3443262 Eh     change       -0.1596265E-04 Eh
 * total energy  :   -38.3444044 Eh     change       -0.1492395E-04 Eh
 * total energy  :   -38.3444160 Eh     change       -0.1157185E-04 Eh
 * total energy  :   -38.3444287 Eh     change       -0.1272137E-04 Eh
 * total energy  :   -38.3444364 Eh     change       -0.7668468E-05 Eh
 * total energy  :   -38.3444429 Eh     change       -0.6530709E-05 Eh
 * total energy  :   -38.3444495 Eh     change       -0.6601243E-05 Eh
 * total energy  :   -38.3444542 Eh     change       -0.4714309E-05 Eh
 * total energy  :   -38.3444604 Eh     change       -0.6184229E-05 Eh
 * total energy  :   -38.3444634 Eh     change       -0.2967604E-05 Eh
   *** GEOMETRY OPTIMIZATION CONVERGED AFTER 22 ITERATIONS ***

 final structure:
================
20
 xtb: 6.5.1 (579679a)
C           -2.58875669897586       -1.54042265880795       -0.33895239344799
O           -2.06411090095431       -0.30562208875460       -0.75997570099625
C           -1.35238045385161        0.45252207138210        0.34487742636978
C           -1.26200672515401        1.89231670746176       -0.24412147395942
O           -1.88792654434472        0.34382052080959        1.50705097706067
C            0.09956514553012       -0.16810890463671        0.28036117825202
N            0.44728561971617       -1.37434109035468        0.60278583874256
N            1.81602420889990       -1.46124794675141        0.43414019742034
C            2.20325839701969       -0.30001153869970        0.02755838370333
C            3.58424471652640        0.12863794621679       -0.30231855901355
O            1.17623656759050        0.56543907615531       -0.09132603362433
H           -3.19185554549886       -1.94543202093418       -1.15708637820269
H           -1.79186106523193       -2.26578567875529       -0.10048109281752
H           -3.23037969170021       -1.42973460810970        0.54936753797628
H           -0.64815831518729        2.50500047802682        0.41289714543175
H           -2.26753906053505        2.30687893424237       -0.28523414444190
H           -0.83125107313124        1.88030777896210       -1.24317998848809
H            3.66644323523284        0.34768693094163       -1.36708763623047
H            3.84065880320143        1.03245725133604        0.24907860474764
H            4.28250938084828       -0.66436115973061       -0.04556288848204

          :  Hamiltonian                  GFN1-xTB          :
         :: total energy             -38.344463399660 Eh    ::
         :: gradient norm              0.000251327834 Eh/a0 ::
         :: HOMO-LUMO gap              3.278521830482 eV    ::
         :: SCC energy               -38.654185339284 Eh    ::
         :: -> Gsolv                  -0.104548666433 Eh    ::
         :: repulsion energy           0.318260456402 Eh    ::

    * Orbital Energies and Occupations

         #    Occupation            Energy/Eh            Energy/eV
      -------------------------------------------------------------
         1        2.0000           -0.8221996             -22.3732
       ...           ...                  ...                  ...
        19        2.0000           -0.5108516             -13.9010
        20        2.0000           -0.4995352             -13.5930
        21        2.0000           -0.4793162             -13.0429
        22        2.0000           -0.4713613             -12.8264
        23        2.0000           -0.4631589             -12.6032
        24        2.0000           -0.4623669             -12.5816
        25        2.0000           -0.4463692             -12.1463
        26        2.0000           -0.4398152             -11.9680
        27        2.0000           -0.4168330             -11.3426
        28        2.0000           -0.4146628             -11.2835
        29        2.0000           -0.4049760             -11.0200
        30        2.0000           -0.3676352             -10.0039
        31        2.0000           -0.3495388              -9.5114 (HOMO)
        32                         -0.2290554              -6.2329 (LUMO)
        33                         -0.2132822              -5.8037
        34                         -0.1306417              -3.5549
        35                         -0.1003108              -2.7296
        36                         -0.0828462              -2.2544
        37                         -0.0634829              -1.7275
        38                         -0.0625737              -1.7027
        39                         -0.0372167              -1.0127
        40                         -0.0302540              -0.8233
        41                         -0.0292086              -0.7948
        42                         -0.0261365              -0.7112
       ...                                ...                  ...
        62                          0.6126790              16.6718
      -------------------------------------------------------------
                  HL-Gap            0.1204835 Eh            3.2785 eV

Wiberg/Mayer (AO) data.
largest (>0.10) Wiberg bond orders for each atom

     #   Z sym  total        # sym  WBO       # sym  WBO       # sym  WBO
 ---------------------------------------------------------------------------
     1   6 C    3.933 --    12 H    0.984    13 H    0.977    14 H    0.977
                             2 O    0.973
     2   8 O    1.945 --     1 C    0.973     3 C    0.779
     3   6 C    3.899 --     5 O    1.261     4 C    0.944     6 C    0.866
                             2 O    0.779
     4   6 C    3.994 --    17 H    0.990    15 H    0.988    16 H    0.987
                             3 C    0.944
     5   8 O    1.547 --     3 C    1.261
     6   6 C    3.804 --     7 N    1.660    11 O    1.045     3 C    0.866
     7   7 N    2.980 --     6 C    1.660     8 N    1.149
     8   7 N    2.976 --     9 C    1.656     7 N    1.149
     9   6 C    3.887 --     8 N    1.656    11 O    1.061    10 C    1.024
    10   6 C    3.993 --     9 C    1.024    20 H    0.985    19 H    0.972
                            18 H    0.968
    11   8 O    2.291 --     9 C    1.061     6 C    1.045
    12   1 H    1.023 --     1 C    0.984
    13   1 H    1.032 --     1 C    0.977
    14   1 H    1.033 --     1 C    0.977
    15   1 H    1.015 --     4 C    0.988
    16   1 H    1.017 --     4 C    0.987
    17   1 H    1.013 --     4 C    0.990
    18   1 H    1.002 --    10 C    0.968
    19   1 H    1.001 --    10 C    0.972
    20   1 H    1.002 --    10 C    0.985
 ---------------------------------------------------------------------------

           -------------------------------------------------
          | TOTAL ENERGY              -38.344463399660 Eh   |
          | GRADIENT NORM               0.000251327834 Eh/α |
          | HOMO-LUMO GAP               3.278521830482 eV   |
           -------------------------------------------------

 * finished run on 2023/06/20 at 14:52:35.531
