   * xtb version 6.5.1 (579679a) compiled by 'ehlert@majestix' on 2022-07-11
          program call               : /lustre/hpc/kemi/ree/PhD/git/ReactivityQM/dep/xtb-6.5.1/bin/xtb --gfn 1 /lustre/hpc/kemi/ree/PhD/git/ReactivityQM/calculations/R03/reac02prodE14/conf19/R03_reac02prodE14_conf19_gfn1.xyz --opt --vfukui --chrg -1 --uhf 0 --alpb DMSO

   ID    Z sym.   atoms
    1    6 C      1, 3, 5, 7-10, 12, 14, 17, 18, 21, 22, 24, 25
    2    8 O      2, 4, 13, 19, 23, 26
    3    7 N      6, 11, 15, 16, 20
    4    1 H      27-46

      * Solvation model:               ALPB
        Solvent                        DMSO
        Solvent mass                       7.8130E+01 g/mol
          :  Hamiltonian                  GFN1-xTB          :
 * total energy  :   -87.0483269 Eh     change       -0.2694094E-09 Eh
 * total energy  :   -87.0630788 Eh     change       -0.1475193E-01 Eh
 * total energy  :   -87.0686300 Eh     change       -0.5551163E-02 Eh
 * total energy  :   -87.0696562 Eh     change       -0.1026266E-02 Eh
 * total energy  :   -87.0702372 Eh     change       -0.5809770E-03 Eh
 * total energy  :   -87.0704347 Eh     change       -0.1974830E-03 Eh
 * total energy  :   -87.0705946 Eh     change       -0.1598773E-03 Eh
 * total energy  :   -87.0707284 Eh     change       -0.1338618E-03 Eh
 * total energy  :   -87.0708380 Eh     change       -0.1095062E-03 Eh
 * total energy  :   -87.0709150 Eh     change       -0.7702342E-04 Eh
 * total energy  :   -87.0727707 Eh     change       -0.1242853E-04 Eh
 * total energy  :   -87.0727875 Eh     change       -0.1680531E-04 Eh
 * total energy  :   -87.0728077 Eh     change       -0.2018495E-04 Eh
 * total energy  :   -87.0728270 Eh     change       -0.1934356E-04 Eh
 * total energy  :   -87.0728468 Eh     change       -0.1978824E-04 Eh
 * total energy  :   -87.0728640 Eh     change       -0.1718558E-04 Eh
 * total energy  :   -87.0728707 Eh     change       -0.6697161E-05 Eh
 * total energy  :   -87.0728762 Eh     change       -0.5502642E-05 Eh
 * total energy  :   -87.0728805 Eh     change       -0.4290681E-05 Eh
   *** GEOMETRY OPTIMIZATION CONVERGED AFTER 70 ITERATIONS ***

 final structure:
================
46
 xtb: 6.5.1 (579679a)
C           -5.77043266335277       -1.44071409962226        0.65620169582447
O           -4.43663321967999       -1.15414808659809        0.27820343859029
C           -4.11542448287374        0.19955653648393        0.23246285421462
O           -5.00621120943119        1.04208518323649        0.48219920693073
C           -2.79296119046233        0.47240575091731       -0.12601542155714
N           -1.89687535377234       -0.54652630101353       -0.28970175533674
C           -0.70363504064626       -0.34338769399886       -0.71992614131116
C            0.24645112007940       -1.53152883055443       -0.69565692754803
C            0.18582825219673       -2.34112346031920       -1.99880345632733
C           -0.15396516838379       -2.45376455734907        0.46881934203588
N            1.63492898611176       -1.10021405698109       -0.48921102561373
C            2.02688911165154       -0.37623252675788        0.57652359565458
O            1.29360541124543        0.08892083965997        1.43239241774216
C            3.50390145628950       -0.18302196586334        0.57762938208237
N            4.33836238006368       -0.61505146201973       -0.32022991021865
N            5.58150992241849       -0.21611651925009        0.07410339023380
C            5.42497622044515        0.43269153358093        1.18787615227902
C            6.47434543032088        1.06539039879435        2.01705646793229
O            4.13690062322473        0.48940133494565        1.55722873709200
N           -0.30836612254439        0.92371037507557       -1.23685299310708
C            0.82362687700901        1.05588877414949       -2.15009414855190
C           -1.12871049539859        2.01112199948485       -1.12940253170289
O           -0.94010688392809        3.02848066223986       -1.79426857544316
C           -2.25278506409972        1.89062241209608       -0.09019279329144
C           -1.62720439978424        2.19975190874737        1.29502257869784
O           -3.24155347731250        2.85565968052541       -0.38750938459695
H           -6.48665664748694       -0.98641494079399       -0.03897147089592
H           -5.98390495592889       -1.07176720465673        1.66667388369431
H           -5.88494925510620       -2.52538059863289        0.63593247977081
H           -0.84676759201177       -2.63029498617753       -2.19029504441744
H            0.79173417530045       -3.24142700279405       -1.90851975345104
H            0.54852533070656       -1.76651229026383       -2.84804101567014
H            0.53876805174960       -3.29083195431099        0.53495606106283
H           -1.16073811421308       -2.83186530279613        0.29694636921373
H           -0.14387670621582       -1.90448203924635        1.40901775409000
H            2.34697995684326       -1.49791394233722       -1.07925533929947
H            7.44729907399979        0.89731941392221        1.56276874623476
H            6.46290555182172        0.64219986507650        3.02114975286673
H            6.29046437871168        2.13638169315204        2.09979439604212
H            0.60925991658982        1.85424103294993       -2.86338009336024
H            0.98749596189273        0.13324184630293       -2.69819139385668
H            1.73203426946029        1.30938795558034       -1.60047810621999
H           -1.24055525853612        3.21852351747643        1.30610031093376
H           -0.81606432441640        1.50300892525860        1.50036357214907
H           -2.38970809143163        2.10043743905351        2.06568182636343
H           -4.09871174111482        2.49829174363199       -0.05636812993851

          :  Hamiltonian                  GFN1-xTB          :
         :: total energy             -87.072880461465 Eh    ::
         :: gradient norm              0.000747213288 Eh/a0 ::
         :: HOMO-LUMO gap              0.656813075938 eV    ::
         :: SCC energy               -87.866776394293 Eh    ::
         :: -> Gsolv                  -0.122810896499 Eh    ::
         :: repulsion energy           0.824481904867 Eh    ::

    * Orbital Energies and Occupations

         #    Occupation            Energy/Eh            Energy/eV
      -------------------------------------------------------------
         1        2.0000           -0.8595181             -23.3887
       ...           ...                  ...                  ...
        59        2.0000           -0.4704032             -12.8003
        60        2.0000           -0.4649335             -12.6515
        61        2.0000           -0.4570773             -12.4377
        62        2.0000           -0.4543573             -12.3637
        63        2.0000           -0.4463264             -12.1452
        64        2.0000           -0.4454861             -12.1223
        65        2.0000           -0.4414167             -12.0116
        66        2.0000           -0.4354376             -11.8489
        67        2.0000           -0.4210446             -11.4572
        68        2.0000           -0.4146419             -11.2830
        69        2.0000           -0.4009138             -10.9094
        70        2.0000           -0.3851670             -10.4809
        71        2.0000           -0.3280611              -8.9270 (HOMO)
        72        0.0000           -0.3039237              -8.2702 (LUMO)
        73                         -0.2534288              -6.8961
        74                         -0.2435604              -6.6276
        75                         -0.2017495              -5.4899
        76                         -0.1924387              -5.2365
        77                         -0.1435264              -3.9056
        78                         -0.1409377              -3.8351
        79                         -0.1273747              -3.4660
        80                         -0.1169803              -3.1832
        81                         -0.1128126              -3.0698
        82                         -0.1065049              -2.8981
       ...                                ...                  ...
       144                          0.7311552              19.8957
      -------------------------------------------------------------
                  HL-Gap            0.0241374 Eh            0.6568 eV

Wiberg/Mayer (AO) data.
largest (>0.10) Wiberg bond orders for each atom

     #   Z sym  total        # sym  WBO       # sym  WBO       # sym  WBO
 ---------------------------------------------------------------------------
     1   6 C    3.911 --    29 H    0.987    28 H    0.981    27 H    0.981
                             2 O    0.941
     2   8 O    2.089 --     3 C    0.967     1 C    0.941
     3   6 C    3.869 --     4 O    1.427     5 C    1.334     2 O    0.967
     4   8 O    1.820 --     3 C    1.427     5 C    0.108
     5   6 C    3.864 --     3 C    1.334     6 N    1.195    24 C    0.962
                             4 O    0.108     7 C    0.102
     6   7 N    3.062 --     7 C    1.621     5 C    1.195
     7   6 C    3.909 --     6 N    1.621    20 N    0.989     8 C    0.975
                             5 C    0.102
     8   6 C    3.926 --     9 C    0.989    10 C    0.987     7 C    0.975
                            11 N    0.913
     9   6 C    3.990 --     8 C    0.989    31 H    0.984    30 H    0.984
                            32 H    0.977
    10   6 C    3.992 --    33 H    0.987     8 C    0.987    34 H    0.983
                            35 H    0.982
    11   7 N    3.359 --    12 C    1.266     8 C    0.913    36 H    0.900
                            13 O    0.181
    12   6 C    3.921 --    13 O    1.585    11 N    1.266    14 C    0.984
    13   8 O    1.904 --    12 C    1.585    11 N    0.181
    14   6 C    3.872 --    15 N    1.613    19 O    1.063    12 C    0.984
    15   7 N    3.012 --    14 C    1.613    16 N    1.196
    16   7 N    2.980 --    17 C    1.609    15 N    1.196
    17   6 C    3.872 --    16 N    1.609    19 O    1.082    18 C    1.031
    18   6 C    3.987 --    17 C    1.031    37 H    0.983    38 H    0.964
                            39 H    0.964
    19   8 O    2.328 --    17 C    1.082    14 C    1.063
    20   7 N    3.410 --    22 C    1.209     7 C    0.989    21 C    0.948
                            23 O    0.140
    21   6 C    3.953 --    42 H    0.983    41 H    0.979    40 H    0.976
                            20 N    0.948
    22   6 C    3.887 --    23 O    1.574    20 N    1.209    24 C    0.937
    23   8 O    1.867 --    22 C    1.574    20 N    0.140
    24   6 C    3.921 --    26 O    0.964     5 C    0.962    25 C    0.956
                            22 C    0.937
    25   6 C    3.996 --    43 H    0.987    45 H    0.985    44 H    0.985
                            24 C    0.956
    26   8 O    1.880 --    24 C    0.964    46 H    0.812
    27   1 H    1.019 --     1 C    0.981
    28   1 H    1.017 --     1 C    0.981
    29   1 H    1.019 --     1 C    0.987
    30   1 H    1.007 --     9 C    0.984
    31   1 H    1.000 --     9 C    0.984
    32   1 H    1.007 --     9 C    0.977
    33   1 H    1.004 --    10 C    0.987
    34   1 H    1.021 --    10 C    0.983
    35   1 H    1.016 --    10 C    0.982
    36   1 H    0.954 --    11 N    0.900
    37   1 H    0.999 --    18 C    0.983
    38   1 H    0.997 --    18 C    0.964
    39   1 H    0.997 --    18 C    0.964
    40   1 H    1.015 --    21 C    0.976
    41   1 H    1.012 --    21 C    0.979
    42   1 H    1.013 --    21 C    0.983
    43   1 H    1.009 --    25 C    0.987
    44   1 H    1.019 --    25 C    0.985
    45   1 H    1.010 --    25 C    0.985
    46   1 H    0.898 --    26 O    0.812
 ---------------------------------------------------------------------------

           -------------------------------------------------
          | TOTAL ENERGY              -87.072880461465 Eh   |
          | GRADIENT NORM               0.000747213288 Eh/α |
          | HOMO-LUMO GAP               0.656813075938 eV   |
           -------------------------------------------------

 * finished run on 2023/06/20 at 15:34:40.415
