   * xtb version 6.5.1 (579679a) compiled by 'ehlert@majestix' on 2022-07-11
          program call               : /lustre/hpc/kemi/ree/PhD/git/ReactivityQM/dep/xtb-6.5.1/bin/xtb --gfn 1 /lustre/hpc/kemi/ree/PhD/git/ReactivityQM/calculations/R01/reac02prodE05/conf09/R01_reac02prodE05_conf09_gfn1.xyz --opt --vfukui --chrg -1 --uhf 0 --alpb DMSO

   ID    Z sym.   atoms
    1    6 C      1, 3, 5, 6, 8, 11-15
    2    8 O      2, 4, 7, 9
    3    7 N      10, 16, 17
    4    1 H      18-33

      * Solvation model:               ALPB
        Solvent                        DMSO
        Solvent mass                       7.8130E+01 g/mol
          :  Hamiltonian                  GFN1-xTB          :
 * total energy  :   -58.5474897 Eh     change       -0.3637979E-10 Eh
 * total energy  :   -58.5555257 Eh     change       -0.8036045E-02 Eh
 * total energy  :   -58.5580086 Eh     change       -0.2482813E-02 Eh
 * total energy  :   -58.5583728 Eh     change       -0.3642507E-03 Eh
 * total energy  :   -58.5586139 Eh     change       -0.2410737E-03 Eh
 * total energy  :   -58.5586852 Eh     change       -0.7133253E-04 Eh
 * total energy  :   -58.5587317 Eh     change       -0.4651454E-04 Eh
 * total energy  :   -58.5587590 Eh     change       -0.2729625E-04 Eh
 * total energy  :   -58.5587772 Eh     change       -0.1817284E-04 Eh
 * total energy  :   -58.5587897 Eh     change       -0.1250998E-04 Eh
 * total energy  :   -58.5590454 Eh     change       -0.1226961E-04 Eh
 * total energy  :   -58.5590856 Eh     change       -0.4021467E-04 Eh
 * total energy  :   -58.5591006 Eh     change       -0.1502435E-04 Eh
 * total energy  :   -58.5591222 Eh     change       -0.2156211E-04 Eh
 * total energy  :   -58.5591204 Eh     change        0.1758873E-05 Eh
 * total energy  :   -58.5591327 Eh     change       -0.1225337E-04 Eh
 * total energy  :   -58.5591389 Eh     change       -0.6166032E-05 Eh
 * total energy  :   -58.5591421 Eh     change       -0.3277136E-05 Eh
 * total energy  :   -58.5591448 Eh     change       -0.2666644E-05 Eh
   *** GEOMETRY OPTIMIZATION CONVERGED AFTER 40 ITERATIONS ***

 final structure:
================
33
 xtb: 6.5.1 (579679a)
C            4.82529954126377        0.96843346801361        0.61818648083341
O            3.71090144140231        0.15961135362138        0.24719911007666
C            2.49594195559878        0.64747911729342        0.57370010922579
O            2.38404710973407        1.71064494678091        1.15245418214590
C            1.35049023272737       -0.21296388934965        0.15895991474879
C            1.46253781829978       -1.59695065324126       -0.04240776323572
O            2.67342267960912       -2.30056895397400        0.06389333532054
C            0.27777644172540       -2.38370053142958       -0.16091069249275
O            0.21162795605215       -3.62327274826709       -0.24004934503079
N           -0.91046644709010       -1.65000807690718       -0.07676969151051
C           -0.92604333871820       -0.24501617133107       -0.47416244846943
C           -0.93989570041503       -0.14871548219334       -2.02186993263295
C           -2.20092659939209        0.42288649359458        0.12878484949577
C           -2.18267987605720        0.25350417810189        1.65636237335425
C           -2.23492646204178        1.91393397442640       -0.22214132017994
N           -3.39126734069804       -0.20922183183193       -0.44642324835452
N            0.22302072412944        0.47007601345900        0.03660950814696
H            4.85583225522815        1.10146112032792        1.70327652453124
H            5.72176133110785        0.45323536239223        0.28107660284914
H            4.75768657882274        1.95000630810650        0.14111926112449
H            3.37576145246535       -1.84266200560594       -0.41280843596369
H           -1.71639992184080       -2.16985782518222       -0.39402843287609
H           -1.90914563456809       -0.46613906896939       -2.40443345024379
H           -0.74726157100726        0.87654182940290       -2.33370988229922
H           -0.16428530990779       -0.79034562670656       -2.43880640190010
H           -2.15449224625948       -0.80516441037556        1.91626412385372
H           -1.29771271799520        0.74099859176818        2.06946979809739
H           -3.07349805150861        0.69886846995779        2.09740327830526
H           -1.27521491435979        2.37407698019552        0.01937369886759
H           -2.43914484984357        2.05537411980921       -1.28337650120777
H           -3.01910467403226        2.41675510342969        0.34444430766234
H           -3.53837999955940       -1.11822868837476       -0.02557848483026
H           -4.20525986287165        0.34892553305839       -0.23110442741119

          :  Hamiltonian                  GFN1-xTB          :
         :: total energy             -58.559144809923 Eh    ::
         :: gradient norm              0.000681534296 Eh/a0 ::
         :: HOMO-LUMO gap              1.486524366468 eV    ::
         :: SCC energy               -59.094288722597 Eh    ::
         :: -> Gsolv                  -0.106993046020 Eh    ::
         :: repulsion energy           0.555102248984 Eh    ::

    * Orbital Energies and Occupations

         #    Occupation            Energy/Eh            Energy/eV
      -------------------------------------------------------------
         1        2.0000           -0.8125267             -22.1100
       ...           ...                  ...                  ...
        36        2.0000           -0.4769244             -12.9778
        37        2.0000           -0.4767108             -12.9720
        38        2.0000           -0.4725268             -12.8581
        39        2.0000           -0.4651381             -12.6571
        40        2.0000           -0.4555259             -12.3955
        41        2.0000           -0.4468201             -12.1586
        42        2.0000           -0.4387659             -11.9394
        43        2.0000           -0.4251948             -11.5701
        44        2.0000           -0.3978746             -10.8267
        45        2.0000           -0.3915308             -10.6541
        46        2.0000           -0.3816201             -10.3844
        47        2.0000           -0.3715014             -10.1091
        48        2.0000           -0.3185014              -8.6669 (HOMO)
        49                         -0.2638726              -7.1803 (LUMO)
        50                         -0.1900187              -5.1707
        51                         -0.1260718              -3.4306
        52                         -0.1159841              -3.1561
        53                         -0.1044040              -2.8410
        54                         -0.1010062              -2.7485
        55                         -0.0911957              -2.4816
        56                         -0.0843362              -2.2949
        57                         -0.0672475              -1.8299
        58                         -0.0627575              -1.7077
        59                         -0.0610923              -1.6624
       ...                                ...                  ...
       100                          0.7329195              19.9438
      -------------------------------------------------------------
                  HL-Gap            0.0546288 Eh            1.4865 eV

Wiberg/Mayer (AO) data.
largest (>0.10) Wiberg bond orders for each atom

     #   Z sym  total        # sym  WBO       # sym  WBO       # sym  WBO
 ---------------------------------------------------------------------------
     1   6 C    3.887 --    19 H    0.987    18 H    0.980    20 H    0.980
                             2 O    0.909
     2   8 O    2.186 --     3 C    1.071     1 C    0.909     4 O    0.121
     3   6 C    3.814 --     4 O    1.649     2 O    1.071     5 C    1.000
     4   8 O    1.899 --     3 C    1.649     2 O    0.121
     5   6 C    3.970 --    17 N    1.443     6 C    1.320     3 C    1.000
     6   6 C    3.851 --     5 C    1.320     8 C    1.199     7 O    0.960
                            17 N    0.184
     7   8 O    1.925 --     6 C    0.960    21 H    0.860
     8   6 C    3.916 --     9 O    1.485     6 C    1.199    10 N    1.084
     9   8 O    1.783 --     8 C    1.485    10 N    0.103
    10   7 N    3.199 --     8 C    1.084    11 C    0.939    22 H    0.922
                             9 O    0.103
    11   6 C    3.941 --    17 N    0.998    12 C    0.970    13 C    0.952
                            10 N    0.939
    12   6 C    3.996 --    25 H    0.987    23 H    0.985    24 H    0.984
                            11 C    0.970
    13   6 C    3.961 --    15 C    1.003    14 C    0.993    16 N    0.978
                            11 C    0.952
    14   6 C    3.997 --    13 C    0.993    28 H    0.988    26 H    0.983
                            27 H    0.983
    15   6 C    3.997 --    13 C    1.003    31 H    0.986    30 H    0.985
                            29 H    0.982
    16   7 N    2.966 --    13 C    0.978    32 H    0.949    33 H    0.948
    17   7 N    2.937 --     5 C    1.443    11 C    0.998     6 C    0.184
    18   1 H    1.012 --     1 C    0.980
    19   1 H    1.013 --     1 C    0.987
    20   1 H    1.012 --     1 C    0.980
    21   1 H    0.900 --     7 O    0.860
    22   1 H    0.968 --    10 N    0.922
    23   1 H    1.021 --    12 C    0.985
    24   1 H    1.014 --    12 C    0.984
    25   1 H    1.008 --    12 C    0.987
    26   1 H    1.018 --    14 C    0.983
    27   1 H    1.018 --    14 C    0.983
    28   1 H    1.008 --    14 C    0.988
    29   1 H    1.026 --    15 C    0.982
    30   1 H    1.008 --    15 C    0.985
    31   1 H    1.005 --    15 C    0.986
    32   1 H    0.966 --    16 N    0.949
    33   1 H    0.965 --    16 N    0.948
 ---------------------------------------------------------------------------

           -------------------------------------------------
          | TOTAL ENERGY              -58.559144809923 Eh   |
          | GRADIENT NORM               0.000681534296 Eh/α |
          | HOMO-LUMO GAP               1.486524366468 eV   |
           -------------------------------------------------

 * finished run on 2023/06/20 at 15:00:31.267
