   * xtb version 6.5.1 (579679a) compiled by 'ehlert@majestix' on 2022-07-11
          program call               : /lustre/hpc/kemi/ree/PhD/git/ReactivityQM/dep/xtb-6.5.1/bin/xtb --gfn 1 /lustre/hpc/kemi/ree/PhD/git/ReactivityQM/calculations/R02methylcation/reac01prodN18/conf11/R02methylcation_reac01prodN18_conf11_gfn1.xyz --opt --vfukui --chrg 0 --uhf 0 --alpb DMSO

   ID    Z sym.   atoms
    1    6 C      1, 3, 5, 6, 8, 11-15, 17, 19, 22, 23
    2    8 O      2, 4, 7, 9, 18, 24
    3    7 N      10, 16, 20, 21, 25
    4    1 H      26-42

      * Solvation model:               ALPB
        Solvent                        DMSO
        Solvent mass                       7.8130E+01 g/mol
          :  Hamiltonian                  GFN1-xTB          :
 * total energy  :   -82.9178848 Eh     change       -0.5101697E-11 Eh
 * total energy  :   -82.9347246 Eh     change       -0.1683981E-01 Eh
 * total energy  :   -82.9420949 Eh     change       -0.7370263E-02 Eh
 * total energy  :   -82.9433796 Eh     change       -0.1284659E-02 Eh
 * total energy  :   -82.9438912 Eh     change       -0.5116047E-03 Eh
 * total energy  :   -82.9440984 Eh     change       -0.2072108E-03 Eh
 * total energy  :   -82.9442441 Eh     change       -0.1457497E-03 Eh
 * total energy  :   -82.9443885 Eh     change       -0.1443229E-03 Eh
 * total energy  :   -82.9445390 Eh     change       -0.1505422E-03 Eh
 * total energy  :   -82.9446816 Eh     change       -0.1425666E-03 Eh
 * total energy  :   -82.9500799 Eh     change       -0.1619489E-04 Eh
 * total energy  :   -82.9500901 Eh     change       -0.1020406E-04 Eh
 * total energy  :   -82.9501042 Eh     change       -0.1414931E-04 Eh
 * total energy  :   -82.9501139 Eh     change       -0.9727953E-05 Eh
 * total energy  :   -82.9501328 Eh     change       -0.1887661E-04 Eh
 * total energy  :   -82.9501405 Eh     change       -0.7638742E-05 Eh
 * total energy  :   -82.9501252 Eh     change        0.1523301E-04 Eh
 * total energy  :   -82.9501545 Eh     change       -0.2929545E-04 Eh
 * total energy  :   -82.9501592 Eh     change       -0.4697649E-05 Eh
   *** GEOMETRY OPTIMIZATION CONVERGED AFTER 84 ITERATIONS ***

 final structure:
================
42
 xtb: 6.5.1 (579679a)
C           -6.68172531840356        1.27508878238301        0.43287796832365
O           -5.46991335032952        0.90965392197656       -0.22512628590317
C           -4.35580811923854        0.95751137361718        0.52292509639566
O           -4.37666118789472        1.28727094606457        1.69524881735170
C           -3.13700699897029        0.56850294565320       -0.19663976205355
C           -3.07734373746613        0.28147901862629       -1.57510896836384
O           -3.99231202482537        0.25285657772418       -2.40061136115817
C           -1.66665743216477        0.06725354402974       -2.10910630206301
O           -1.26186427723941        0.18170465892114       -3.22115081155089
N           -0.67234685836431       -0.41857537554702       -1.07952206673174
C           -0.86633033977064       -1.89793702748268       -1.01744122369581
C           -0.86376099145204        0.21855285972797        0.25019983508971
C            0.34546594637461        0.35557021781120        1.15354811765667
C            0.26550189258095        1.72844203279027        1.83626928082711
C            0.34457099953499       -0.74324848643955        2.22566647679316
N            1.57929381257473        0.34872161827732        0.36113612877055
C            2.33314711703365       -0.73439067072507        0.05473429093958
O            2.00214181628707       -1.89819049256847        0.19628784537068
C            3.63125021711503       -0.32093394722607       -0.52788993637876
N            4.03042697760569        0.89975422304104       -0.72614986004512
N            5.27702491071948        0.82173257670089       -1.26515627462372
C            5.56183718110973       -0.44319357769479       -1.35946973036830
C            6.80844821063553       -1.05301062544750       -1.87109766578584
O            4.56093051850124       -1.21383888982757       -0.91140194324159
N           -2.00512106972577        0.62450931676695        0.59442161933761
H           -7.48254241787834        1.16281837390598       -0.29623510430001
H           -6.86006642821724        0.62149190737041        1.29115158485931
H           -6.62963166461448        2.31162220744543        0.77763923741706
H            0.26571461952209       -0.22523971442536       -1.43188520732447
H           -0.78849480834761       -2.28935632673469       -2.02912309869032
H           -1.84636950883679       -2.10611229285103       -0.59506774427387
H           -0.08124338536985       -2.31350340148518       -0.39248821944536
H           -0.66945972986488        1.80260044562058        2.39024751168991
H            0.29420858742447        2.52178565563364        1.09170610486869
H            1.10123074053270        1.84859537020038        2.52267042222090
H            1.25536739892720       -0.67919361699301        2.81789299355343
H           -0.51676815507905       -0.59266108324038        2.87513241901590
H            0.27749275042929       -1.73363811792003        1.78382593367696
H            2.01035202857060        1.24930103207617        0.20181279602134
H            6.57603075428514       -1.78218981889010       -2.64744767481896
H            7.32456584353783       -1.57355676796223       -1.06296289975605
H            7.45642548075971       -0.27804737290263       -2.27390433960387

          :  Hamiltonian                  GFN1-xTB          :
         :: total energy             -82.950159222432 Eh    ::
         :: gradient norm              0.000857839587 Eh/a0 ::
         :: HOMO-LUMO gap              1.683578540658 eV    ::
         :: SCC energy               -83.730471391665 Eh    ::
         :: -> Gsolv                  -0.065523472424 Eh    ::
         :: repulsion energy           0.807384773720 Eh    ::

    * Orbital Energies and Occupations

         #    Occupation            Energy/Eh            Energy/eV
      -------------------------------------------------------------
         1        2.0000           -0.8751366             -23.8137
       ...           ...                  ...                  ...
        55        2.0000           -0.5093274             -13.8595
        56        2.0000           -0.5047922             -13.7361
        57        2.0000           -0.5036762             -13.7057
        58        2.0000           -0.4878474             -13.2750
        59        2.0000           -0.4836453             -13.1607
        60        2.0000           -0.4760552             -12.9541
        61        2.0000           -0.4724828             -12.8569
        62        2.0000           -0.4681135             -12.7380
        63        2.0000           -0.4629728             -12.5981
        64        2.0000           -0.4578389             -12.4584
        65        2.0000           -0.4544762             -12.3669
        66        2.0000           -0.4300146             -11.7013
        67        2.0000           -0.4117486             -11.2043 (HOMO)
        68                         -0.3498783              -9.5207 (LUMO)
        69                         -0.3195302              -8.6949
        70                         -0.2891616              -7.8685
        71                         -0.2608270              -7.0975
        72                         -0.2509125              -6.8277
        73                         -0.2074816              -5.6459
        74                         -0.1650672              -4.4917
        75                         -0.1493160              -4.0631
        76                         -0.1433575              -3.9010
        77                         -0.1350654              -3.6753
        78                         -0.1338438              -3.6421
       ...                                ...                  ...
       134                          0.7683794              20.9087
      -------------------------------------------------------------
                  HL-Gap            0.0618704 Eh            1.6836 eV

Wiberg/Mayer (AO) data.
largest (>0.10) Wiberg bond orders for each atom

     #   Z sym  total        # sym  WBO       # sym  WBO       # sym  WBO
 ---------------------------------------------------------------------------
     1   6 C    3.883 --    26 H    0.986    28 H    0.980    27 H    0.980
                             2 O    0.909
     2   8 O    2.182 --     3 C    1.083     1 C    0.909     4 O    0.121
     3   6 C    3.859 --     4 O    1.609     2 O    1.083     5 C    1.071
     4   8 O    1.882 --     3 C    1.609     2 O    0.121
     5   6 C    3.906 --     6 C    1.292    25 N    1.126     3 C    1.071
                             7 O    0.150
     6   6 C    3.942 --     7 O    1.552     5 C    1.292     8 C    0.923
     7   8 O    1.892 --     6 C    1.552     5 C    0.150
     8   6 C    3.786 --     9 O    1.844     6 C    0.923    10 N    0.841
     9   8 O    2.061 --     8 C    1.844
    10   7 N    3.606 --    11 C    0.879    29 H    0.876    12 C    0.855
                             8 C    0.841
    11   6 C    3.883 --    31 H    0.986    30 H    0.981    32 H    0.967
                            10 N    0.879
    12   6 C    3.891 --    25 N    1.777    13 C    0.977    10 N    0.855
    13   6 C    3.932 --    14 C    0.986    15 C    0.978    12 C    0.977
                            16 N    0.926
    14   6 C    3.987 --    13 C    0.986    35 H    0.984    34 H    0.984
                            33 H    0.981
    15   6 C    3.985 --    37 H    0.984    36 H    0.982    38 H    0.978
                            13 C    0.978
    16   7 N    3.330 --    17 C    1.233    13 C    0.926    39 H    0.890
                            18 O    0.172
    17   6 C    3.914 --    18 O    1.590    16 N    1.233    19 C    0.996
    18   8 O    1.926 --    17 C    1.590    16 N    0.172
    19   6 C    3.879 --    20 N    1.604    24 O    1.065    17 C    0.996
    20   7 N    3.021 --    19 C    1.604    21 N    1.206
    21   7 N    2.981 --    22 C    1.598    20 N    1.206
    22   6 C    3.869 --    21 N    1.598    24 O    1.085    23 C    1.032
    23   6 C    3.985 --    22 C    1.032    42 H    0.982    40 H    0.965
                            41 H    0.960
    24   8 O    2.334 --    22 C    1.085    19 C    1.065
    25   7 N    3.084 --    12 C    1.777     5 C    1.126
    26   1 H    1.013 --     1 C    0.986
    27   1 H    1.010 --     1 C    0.980
    28   1 H    1.010 --     1 C    0.980
    29   1 H    0.937 --    10 N    0.876
    30   1 H    0.993 --    11 C    0.981
    31   1 H    0.995 --    11 C    0.986
    32   1 H    1.011 --    11 C    0.967
    33   1 H    1.009 --    14 C    0.981
    34   1 H    0.999 --    14 C    0.984
    35   1 H    0.998 --    14 C    0.984
    36   1 H    0.998 --    15 C    0.982
    37   1 H    1.002 --    15 C    0.984
    38   1 H    1.013 --    15 C    0.978
    39   1 H    0.948 --    16 N    0.890
    40   1 H    0.996 --    23 C    0.965
    41   1 H    0.996 --    23 C    0.960
    42   1 H    0.998 --    23 C    0.982
 ---------------------------------------------------------------------------

           -------------------------------------------------
          | TOTAL ENERGY              -82.950159222432 Eh   |
          | GRADIENT NORM               0.000857839587 Eh/α |
          | HOMO-LUMO GAP               1.683578540658 eV   |
           -------------------------------------------------

 * finished run on 2023/06/21 at 18:01:11.686
