                         Program Version 5.0.1 -  RELEASE  -
|  1> # ORCA input file
|  2> ! SP r2SCAN-3c CPCM
|  3>
|  4> %maxcore 1875.0
|  5> %pal nprocs 4 end
|  6> %cpcm smd true SMDsolvent "DMSO" end
|  7>
|  8> *xyz 0 1
|  9> C       5.098055    2.367751    1.480690
| 10> O       4.756753    1.104710    0.922287
| 11> C       3.440119    0.889078    0.706588
| 12> O       2.604303    1.741917    0.983592
| 13> C       3.118866   -0.408364    0.130487
| 14> N       1.760530   -0.566068   -0.070730
| 15> C       1.284042   -1.645724   -0.568125
| 16> C      -0.219399   -1.766957   -0.745532
| 17> C      -0.786548   -2.872743    0.151343
| 18> C      -0.594568   -1.978902   -2.215517
| 19> N      -0.717237   -0.461417   -0.294405
| 20> C      -1.943850   -0.043204   -0.213339
| 21> O      -2.912822   -0.836720   -0.572488
| 22> C      -4.299849   -0.470923   -0.512327
| 23> C      -2.117971    1.305963    0.281708
| 24> N      -1.138729    2.094776    0.625039
| 25> N      -1.692135    3.253432    1.029749
| 26> C      -2.983633    3.119239    0.915967
| 27> C      -4.029859    4.106915    1.242096
| 28> O      -3.312085    1.907320    0.446774
| 29> N       2.083586   -2.700089   -0.932109
| 30> C       3.455805   -2.685756   -0.794520
| 31> O       4.107440   -3.659376   -1.149408
| 32> C       4.052471   -1.425748   -0.197214
| 33> O       5.282359   -1.371012   -0.041719
| 34> H       6.180898    2.382089    1.599614
| 35> H       4.615237    2.502683    2.453279
| 36> H       4.785893    3.179321    0.816409
| 37> H      -0.584675   -2.644679    1.196938
| 38> H      -0.314138   -3.818820   -0.105533
| 39> H      -1.859830   -2.967531    0.007100
| 40> H      -0.207278   -1.161311   -2.821566
| 41> H      -0.167006   -2.916687   -2.564405
| 42> H      -1.674930   -2.025971   -2.327602
| 43> H       0.064245    0.157821    0.004335
| 44> H      -4.842527   -1.341861   -0.874859
| 45> H      -4.584126   -0.245340    0.515655
| 46> H      -4.490169    0.390243   -1.153062
| 47> H      -4.606384    3.761566    2.100903
| 48> H      -3.573043    5.066143    1.474074
| 49> H      -4.714870    4.212799    0.402008
| 50> H       1.677054   -3.528562   -1.332175
| 51> **                         ****END OF INPUT****

CARTESIAN COORDINATES (ANGSTROEM)
---------------------------------
  C      5.098055    2.367751    1.480690
  O      4.756753    1.104710    0.922287
  C      3.440119    0.889078    0.706588
  O      2.604303    1.741917    0.983592
  C      3.118866   -0.408364    0.130487
  N      1.760530   -0.566068   -0.070730
  C      1.284042   -1.645724   -0.568125
  C     -0.219399   -1.766957   -0.745532
  C     -0.786548   -2.872743    0.151343
  C     -0.594568   -1.978902   -2.215517
  N     -0.717237   -0.461417   -0.294405
  C     -1.943850   -0.043204   -0.213339
  O     -2.912822   -0.836720   -0.572488
  C     -4.299849   -0.470923   -0.512327
  C     -2.117971    1.305963    0.281708
  N     -1.138729    2.094776    0.625039
  N     -1.692135    3.253432    1.029749
  C     -2.983633    3.119239    0.915967
  C     -4.029859    4.106915    1.242096
  O     -3.312085    1.907320    0.446774
  N      2.083586   -2.700089   -0.932109
  C      3.455805   -2.685756   -0.794520
  O      4.107440   -3.659376   -1.149408
  C      4.052471   -1.425748   -0.197214
  O      5.282359   -1.371012   -0.041719
  H      6.180898    2.382089    1.599614
  H      4.615237    2.502683    2.453279
  H      4.785893    3.179321    0.816409
  H     -0.584675   -2.644679    1.196938
  H     -0.314138   -3.818820   -0.105533
  H     -1.859830   -2.967531    0.007100
  H     -0.207278   -1.161311   -2.821566
  H     -0.167006   -2.916687   -2.564405
  H     -1.674930   -2.025971   -2.327602
  H      0.064245    0.157821    0.004335
  H     -4.842527   -1.341861   -0.874859
  H     -4.584126   -0.245340    0.515655
  H     -4.490169    0.390243   -1.153062
  H     -4.606384    3.761566    2.100903
  H     -3.573043    5.066143    1.474074
  H     -4.714870    4.212799    0.402008
  H      1.677054   -3.528562   -1.332175

 Total Charge           Charge          ....    0
 Multiplicity           Mult            ....    1
 Number of Electrons    NEL             ....  184
 Basis Dimension        Dim             ....  615

ORBITAL ENERGIES
----------------

  NO   OCC          E(Eh)            E(eV)
   0   2.0000     -19.085341      -519.3385
   1   2.0000     -19.055628      -518.5300
   2   2.0000     -18.973422      -516.2931
   3   2.0000     -18.914436      -514.6880
   4   2.0000     -18.905967      -514.4575
   5   2.0000     -18.883963      -513.8588
   6   2.0000     -14.239173      -387.4676
   7   2.0000     -14.226687      -387.1278
   8   2.0000     -14.213905      -386.7800
   9   2.0000     -14.208997      -386.6465
  10   2.0000     -14.156114      -385.2074
  11   2.0000     -10.216245      -277.9982
  12   2.0000     -10.171525      -276.7813
  13   2.0000     -10.164229      -276.5827
  14   2.0000     -10.129532      -275.6386
  15   2.0000     -10.123029      -275.4616
  16   2.0000     -10.116487      -275.2836
  17   2.0000     -10.105982      -274.9978
  18   2.0000     -10.102702      -274.9085
  19   2.0000     -10.080124      -274.2941
  20   2.0000     -10.064169      -273.8600
  21   2.0000     -10.051433      -273.5134
  22   2.0000     -10.043595      -273.3001
  23   2.0000     -10.030139      -272.9340
  24   2.0000     -10.029831      -272.9256
  25   2.0000      -1.176775       -32.0217
  26   2.0000      -1.118114       -30.4254
  27   2.0000      -1.044932       -28.4340
  28   2.0000      -1.007447       -27.4140
  29   2.0000      -0.999389       -27.1948
  30   2.0000      -0.974074       -26.5059
  31   2.0000      -0.951594       -25.8942
  32   2.0000      -0.946045       -25.7432
  33   2.0000      -0.939278       -25.5591
  34   2.0000      -0.861770       -23.4500
  35   2.0000      -0.852635       -23.2014
  36   2.0000      -0.797007       -21.6877
  37   2.0000      -0.735610       -20.0170
  38   2.0000      -0.727780       -19.8039
  39   2.0000      -0.718451       -19.5500
  40   2.0000      -0.692075       -18.8323
  41   2.0000      -0.674934       -18.3659
  42   2.0000      -0.670831       -18.2542
  43   2.0000      -0.642775       -17.4908
  44   2.0000      -0.622375       -16.9357
  45   2.0000      -0.611831       -16.6488
  46   2.0000      -0.602182       -16.3862
  47   2.0000      -0.577607       -15.7175
  48   2.0000      -0.562952       -15.3187
  49   2.0000      -0.525072       -14.2879
  50   2.0000      -0.518787       -14.1169
  51   2.0000      -0.515516       -14.0279
  52   2.0000      -0.502882       -13.6841
  53   2.0000      -0.487029       -13.2527
  54   2.0000      -0.481005       -13.0888
  55   2.0000      -0.478440       -13.0190
  56   2.0000      -0.473859       -12.8944
  57   2.0000      -0.444540       -12.0965
  58   2.0000      -0.440214       -11.9788
  59   2.0000      -0.437558       -11.9066
  60   2.0000      -0.428649       -11.6641
  61   2.0000      -0.421050       -11.4573
  62   2.0000      -0.418402       -11.3853
  63   2.0000      -0.413832       -11.2609
  64   2.0000      -0.410351       -11.1662
  65   2.0000      -0.399769       -10.8783
  66   2.0000      -0.388927       -10.5832
  67   2.0000      -0.386013       -10.5040
  68   2.0000      -0.383201       -10.4274
  69   2.0000      -0.372797       -10.1443
  70   2.0000      -0.365349        -9.9417
  71   2.0000      -0.364414        -9.9162
  72   2.0000      -0.359448        -9.7811
  73   2.0000      -0.358240        -9.7482
  74   2.0000      -0.355128        -9.6635
  75   2.0000      -0.343955        -9.3595
  76   2.0000      -0.336609        -9.1596
  77   2.0000      -0.334177        -9.0934
  78   2.0000      -0.328336        -8.9345
  79   2.0000      -0.324360        -8.8263
  80   2.0000      -0.312929        -8.5152
  81   2.0000      -0.302545        -8.2327
  82   2.0000      -0.299653        -8.1540
  83   2.0000      -0.278420        -7.5762
  84   2.0000      -0.270443        -7.3591
  85   2.0000      -0.262694        -7.1483
  86   2.0000      -0.256323        -6.9749
  87   2.0000      -0.248640        -6.7658
  88   2.0000      -0.233145        -6.3442
  89   2.0000      -0.216123        -5.8810
  90   2.0000      -0.179941        -4.8964
  91   2.0000      -0.164657        -4.4805
  92   0.0000      -0.128886        -3.5072
  93   0.0000      -0.057016        -1.5515
  94   0.0000      -0.038011        -1.0343
  95   0.0000      -0.017123        -0.4659
  96   0.0000       0.015881         0.4322

MULLIKEN ATOMIC CHARGES
-----------------------
   0 C :   -0.329301
   1 O :   -0.153427
   2 C :    0.207610
   3 O :   -0.447323
   4 C :   -0.101839
   5 N :   -0.206094
   6 C :    0.408943
   7 C :   -0.252401
   8 C :   -0.582989
   9 C :   -0.575528
  10 N :    0.123416
  11 C :   -0.039808
  12 O :   -0.188890
  13 C :   -0.309836
  14 C :    0.297167
  15 N :   -0.038495
  16 N :   -0.328561
  17 C :    0.460588
  18 C :   -0.630592
  19 O :   -0.010953
  20 N :   -0.040046
  21 C :    0.053428
  22 O :   -0.389116
  23 C :   -0.080621
  24 O :   -0.369013
  25 H :    0.165467
  26 H :    0.164670
  27 H :    0.164136
  28 H :    0.195732
  29 H :    0.194434
  30 H :    0.193496
  31 H :    0.194702
  32 H :    0.194219
  33 H :    0.192617
  34 H :    0.341144
  35 H :    0.199432
  36 H :    0.194625
  37 H :    0.194875
  38 H :    0.211268
  39 H :    0.210297
  40 H :    0.204776
  41 H :    0.307793
Sum of atomic charges:    0.0000000

LOEWDIN ATOMIC CHARGES
----------------------
   0 C :   -0.053759
   1 O :   -0.598647
   2 C :    0.388759
   3 O :   -0.477052
   4 C :    0.131485
   5 N :   -0.614251
   6 C :    0.330715
   7 C :    0.114835
   8 C :   -0.335953
   9 C :   -0.336242
  10 N :   -0.502298
  11 C :    0.474900
  12 O :   -0.542666
  13 C :    0.003742
  14 C :    0.417579
  15 N :   -0.311718
  16 N :   -0.326601
  17 C :    0.400947
  18 C :   -0.310346
  19 O :   -0.379793
  20 N :   -0.472136
  21 C :    0.361649
  22 O :   -0.463166
  23 C :    0.231931
  24 O :   -0.556770
  25 H :    0.178287
  26 H :    0.174596
  27 H :    0.174248
  28 H :    0.179397
  29 H :    0.177914
  30 H :    0.179095
  31 H :    0.178905
  32 H :    0.177653
  33 H :    0.179190
  34 H :    0.343424
  35 H :    0.200467
  36 H :    0.196075
  37 H :    0.196095
  38 H :    0.198484
  39 H :    0.195266
  40 H :    0.195418
  41 H :    0.300342

  Mayer bond orders larger than 0.100000
B(  0-C ,  1-O ) :   0.8452 B(  0-C , 25-H ) :   0.9686 B(  0-C , 26-H ) :   0.9618
B(  0-C , 27-H ) :   0.9615 B(  1-O ,  2-C ) :   1.1308 B(  2-C ,  3-O ) :   1.8418
B(  2-C ,  4-C ) :   1.1441 B(  4-C ,  5-N ) :   1.0067 B(  4-C , 23-C ) :   0.9471
B(  5-N ,  6-C ) :   1.6906 B(  5-N ,  7-C ) :   0.1040 B(  5-N , 34-H ) :   0.1094
B(  6-C ,  7-C ) :   0.7296 B(  6-C , 10-N ) :  -0.1243 B(  6-C , 20-N ) :   1.0764
B(  7-C ,  8-C ) :   0.9359 B(  7-C ,  9-C ) :   0.9479 B(  7-C , 10-N ) :   0.9049
B(  8-C , 28-H ) :   0.9649 B(  8-C , 29-H ) :   0.9512 B(  8-C , 30-H ) :   0.9521
B(  9-C , 31-H ) :   0.9621 B(  9-C , 32-H ) :   0.9509 B(  9-C , 33-H ) :   0.9530
B( 10-N , 11-C ) :   1.5264 B( 10-N , 12-O ) :   0.1115 B( 10-N , 34-H ) :   0.7695
B( 11-C , 12-O ) :   1.2300 B( 11-C , 14-C ) :   0.9880 B( 12-O , 13-C ) :   0.8167
B( 13-C , 35-H ) :   0.9498 B( 13-C , 36-H ) :   0.9378 B( 13-C , 37-H ) :   0.9379
B( 14-C , 15-N ) :   1.5720 B( 14-C , 16-N ) :   0.1045 B( 14-C , 19-O ) :   1.1471
B( 15-N , 16-N ) :   1.1934 B( 16-N , 17-C ) :   1.5299 B( 17-C , 18-C ) :   0.8396
B( 17-C , 19-O ) :   1.0641 B( 18-C , 38-H ) :   0.9298 B( 18-C , 39-H ) :   0.9808
B( 18-C , 40-H ) :   0.9456 B( 20-N , 21-C ) :   0.9811 B( 20-N , 41-H ) :   0.8843
B( 21-C , 22-O ) :   2.0855 B( 21-C , 23-C ) :   0.8805 B( 23-C , 24-O ) :   1.9520

Dispersion correction           -0.018758402
FINAL SINGLE POINT ENERGY     -1268.601409962238

DIPOLE MOMENT
-------------
                                X             Y             Z
Electronic contribution:      9.84429      -0.31664       0.38692
Nuclear contribution   :    -22.39397       1.49161      -1.00698
                        -----------------------------------------
Total Dipole Moment    :    -12.54968       1.17497      -0.62005
                        -----------------------------------------
Magnitude (a.u.)       :     12.61981
Magnitude (Debye)      :     32.07700

Rotational constants in cm-1:     0.010757     0.004562     0.003278
Rotational constants in MHz :   322.488825   136.759584    98.276358

                             ****ORCA TERMINATED NORMALLY****
TOTAL RUN TIME: 0 days 0 hours 2 minutes 22 seconds 611 msec
