   * xtb version 6.5.1 (579679a) compiled by 'ehlert@majestix' on 2022-07-11
          program call               : /lustre/hpc/kemi/ree/PhD/git/ReactivityQM/dep/xtb-6.5.1/bin/xtb --gfn 1 /lustre/hpc/kemi/ree/PhD/git/ReactivityQM/calculations/R02methylcation/reac01prodN02/conf17/R02methylcation_reac01prodN02_conf17_gfn1.xyz --opt --vfukui --chrg 0 --uhf 0 --alpb DMSO

   ID    Z sym.   atoms
    1    6 C      1, 3, 5, 7-10, 12, 14, 15, 18, 19, 22, 24
    2    8 O      2, 4, 13, 20, 23, 25
    3    7 N      6, 11, 16, 17, 21
    4    1 H      26-42

      * Solvation model:               ALPB
        Solvent                        DMSO
        Solvent mass                       7.8130E+01 g/mol
          :  Hamiltonian                  GFN1-xTB          :
 * total energy  :   -82.9465423 Eh     change       -0.4173160E-09 Eh
 * total energy  :   -82.9656544 Eh     change       -0.1911218E-01 Eh
 * total energy  :   -82.9743787 Eh     change       -0.8724270E-02 Eh
 * total energy  :   -82.9759938 Eh     change       -0.1615050E-02 Eh
 * total energy  :   -82.9768597 Eh     change       -0.8659911E-03 Eh
 * total energy  :   -82.9771151 Eh     change       -0.2553842E-03 Eh
 * total energy  :   -82.9773015 Eh     change       -0.1864179E-03 Eh
 * total energy  :   -82.9774176 Eh     change       -0.1160801E-03 Eh
 * total energy  :   -82.9775193 Eh     change       -0.1016586E-03 Eh
 * total energy  :   -82.9776227 Eh     change       -0.1034243E-03 Eh
 * total energy  :   -82.9786001 Eh     change       -0.7376448E-05 Eh
 * total energy  :   -82.9786133 Eh     change       -0.1322293E-04 Eh
 * total energy  :   -82.9786211 Eh     change       -0.7817366E-05 Eh
 * total energy  :   -82.9786328 Eh     change       -0.1166406E-04 Eh
 * total energy  :   -82.9786321 Eh     change        0.6915104E-06 Eh
 * total energy  :   -82.9786462 Eh     change       -0.1414794E-04 Eh
 * total energy  :   -82.9786552 Eh     change       -0.8957705E-05 Eh
 * total energy  :   -82.9786631 Eh     change       -0.7914608E-05 Eh
 * total energy  :   -82.9786662 Eh     change       -0.3159777E-05 Eh
   *** GEOMETRY OPTIMIZATION CONVERGED AFTER 44 ITERATIONS ***

 final structure:
================
42
 xtb: 6.5.1 (579679a)
C            5.09805463504285        2.36775108857934        1.48068998196657
O            4.75675293896623        1.10470956578354        0.92228715506464
C            3.44011940823354        0.88907815058115        0.70658750291176
O            2.60430302649568        1.74191725276279        0.98359195302172
C            3.11886635072212       -0.40836422270372        0.13048713297323
N            1.76053032457227       -0.56606841174744       -0.07072967468254
C            1.28404242145916       -1.64572386767375       -0.56812535485621
C           -0.21939856926186       -1.76695726921519       -0.74553198696160
C           -0.78654788988458       -2.87274269489507        0.15134312183388
C           -0.59456799000754       -1.97890159989280       -2.21551735552732
N           -0.71723674174687       -0.46141717458319       -0.29440503361314
C           -1.94384956432012       -0.04320359502813       -0.21333860771547
O           -2.91282231331823       -0.83672033140641       -0.57248815883100
C           -4.29984938411042       -0.47092322550074       -0.51232732182065
C           -2.11797050530320        1.30596319104077        0.28170811978420
N           -1.13872889354410        2.09477586859268        0.62503869235509
N           -1.69213480174977        3.25343164175324        1.02974910971430
C           -2.98363334356665        3.11923868144065        0.91596654170113
C           -4.02985934412983        4.10691469531633        1.24209595638410
O           -3.31208513265318        1.90731975859741        0.44677445514721
N            2.08358600673672       -2.70008906456267       -0.93210921301545
C            3.45580504691393       -2.68575602273457       -0.79451989331873
O            4.10743976238971       -3.65937599367918       -1.14940847209895
C            4.05247125896698       -1.42574757246843       -0.19721438740159
O            5.28235949170384       -1.37101177681676       -0.04171904990179
H            6.18089784092741        2.38208885079396        1.59961439749090
H            4.61523682367604        2.50268307848595        2.45327871108176
H            4.78589297964164        3.17932095440785        0.81640929586466
H           -0.58467476415827       -2.64467862821673        1.19693808725405
H           -0.31413844719993       -3.81882011159943       -0.10553337380185
H           -1.85983020538582       -2.96753065953032        0.00710018210943
H           -0.20727789627575       -1.16131145818159       -2.82156563241941
H           -0.16700615104808       -2.91668671784706       -2.56440512980944
H           -1.67492967099406       -2.02597104187149       -2.32760157706852
H            0.06424540690806        0.15782131479353        0.00433543774564
H           -4.84252742569146       -1.34186105628899       -0.87485874005708
H           -4.58412605075923       -0.24533993459782        0.51565504649939
H           -4.49016882632341        0.39024269198018       -1.15306241684896
H           -4.60638395122742        3.76156571562470        2.10090262798910
H           -3.57304260836562        5.06614260868251        1.47407439598491
H           -4.71486961530055        4.21279872687174        0.40200820196346
H            1.67705436298254       -3.52856240508220       -1.33217472710034

          :  Hamiltonian                  GFN1-xTB          :
         :: total energy             -82.978666246504 Eh    ::
         :: gradient norm              0.000470328331 Eh/a0 ::
         :: HOMO-LUMO gap              0.416887885146 eV    ::
         :: SCC energy               -83.754810266666 Eh    ::
         :: -> Gsolv                  -0.100924714898 Eh    ::
         :: repulsion energy           0.801882166043 Eh    ::

    * Orbital Energies and Occupations

         #    Occupation            Energy/Eh            Energy/eV
      -------------------------------------------------------------
         1        2.0000           -0.8956325             -24.3714
       ...           ...                  ...                  ...
        55        2.0000           -0.5086026             -13.8398
        56        2.0000           -0.5014163             -13.6442
        57        2.0000           -0.4989522             -13.5772
        58        2.0000           -0.4949697             -13.4688
        59        2.0000           -0.4811709             -13.0933
        60        2.0000           -0.4774920             -12.9932
        61        2.0000           -0.4731789             -12.8759
        62        2.0000           -0.4699366             -12.7876
        63        2.0000           -0.4559768             -12.4078
        64        2.0000           -0.4477176             -12.1830
        65        2.0000           -0.4370409             -11.8925
        66        2.0000           -0.3923666             -10.6768
        67        1.9994           -0.3793267             -10.3220 (HOMO)
        68        0.0006           -0.3640063              -9.9051 (LUMO)
        69                         -0.2822201              -7.6796
        70                         -0.2820387              -7.6747
        71                         -0.2574023              -7.0043
        72                         -0.2455056              -6.6805
        73                         -0.2086178              -5.6768
        74                         -0.1547915              -4.2121
        75                         -0.1525609              -4.1514
        76                         -0.1424488              -3.8762
        77                         -0.1345343              -3.6609
        78                         -0.1268826              -3.4527
       ...                                ...                  ...
       134                          0.7531149              20.4933
      -------------------------------------------------------------
                  HL-Gap            0.0153203 Eh            0.4169 eV

Wiberg/Mayer (AO) data.
largest (>0.10) Wiberg bond orders for each atom

     #   Z sym  total        # sym  WBO       # sym  WBO       # sym  WBO
 ---------------------------------------------------------------------------
     1   6 C    3.894 --    26 H    0.987    28 H    0.981    27 H    0.981
                             2 O    0.920
     2   8 O    2.169 --     3 C    1.061     1 C    0.920     4 O    0.112
     3   6 C    3.853 --     4 O    1.575     5 C    1.108     2 O    1.061
     4   8 O    1.852 --     3 C    1.575     2 O    0.112
     5   6 C    3.907 --    24 C    1.266     6 N    1.146     3 C    1.108
                            25 O    0.129
     6   7 N    3.094 --     7 C    1.616     5 C    1.146
     7   6 C    3.937 --     6 N    1.616    21 N    1.113     8 C    0.974
     8   6 C    3.904 --    10 C    0.980     9 C    0.979     7 C    0.974
                            11 N    0.900
     9   6 C    3.984 --    29 H    0.984    31 H    0.982    30 H    0.981
                             8 C    0.979
    10   6 C    3.985 --    32 H    0.984    34 H    0.982    33 H    0.981
                             8 C    0.980
    11   7 N    3.501 --    12 C    1.491     8 C    0.900    35 H    0.817
                            13 O    0.114
    12   6 C    3.899 --    11 N    1.491    13 O    1.186    15 C    1.076
    13   8 O    2.271 --    12 C    1.186    14 C    0.862    11 N    0.114
    14   6 C    3.830 --    36 H    0.981    37 H    0.976    38 H    0.976
                            13 O    0.862
    15   6 C    3.889 --    16 N    1.558    12 C    1.076    20 O    1.053
    16   7 N    3.030 --    15 C    1.558    17 N    1.247
    17   7 N    2.990 --    18 C    1.561    16 N    1.247
    18   6 C    3.854 --    17 N    1.561    20 O    1.082    19 C    1.038
    19   6 C    3.980 --    18 C    1.038    40 H    0.980    41 H    0.961
                            39 H    0.953
    20   8 O    2.336 --    18 C    1.082    15 C    1.053
    21   7 N    3.424 --    22 C    1.139     7 C    1.113    42 H    0.894
                            23 O    0.132
    22   6 C    3.873 --    23 O    1.602    21 N    1.139    24 C    0.961
    23   8 O    1.880 --    22 C    1.602    21 N    0.132
    24   6 C    3.943 --    25 O    1.535     5 C    1.266    22 C    0.961
    25   8 O    1.841 --    24 C    1.535     5 C    0.129
    26   1 H    1.014 --     1 C    0.987
    27   1 H    1.013 --     1 C    0.981
    28   1 H    1.013 --     1 C    0.981
    29   1 H    1.000 --     9 C    0.984
    30   1 H    0.998 --     9 C    0.981
    31   1 H    1.003 --     9 C    0.982
    32   1 H    1.000 --    10 C    0.984
    33   1 H    0.998 --    10 C    0.981
    34   1 H    1.002 --    10 C    0.982
    35   1 H    0.961 --    11 N    0.817
    36   1 H    1.003 --    14 C    0.981
    37   1 H    1.003 --    14 C    0.976
    38   1 H    1.003 --    14 C    0.976
    39   1 H    0.992 --    19 C    0.953
    40   1 H    0.995 --    19 C    0.980
    41   1 H    0.993 --    19 C    0.961
    42   1 H    0.940 --    21 N    0.894
 ---------------------------------------------------------------------------

           -------------------------------------------------
          | TOTAL ENERGY              -82.978666246504 Eh   |
          | GRADIENT NORM               0.000470328331 Eh/α |
          | HOMO-LUMO GAP               0.416887885146 eV   |
           -------------------------------------------------

 * finished run on 2023/06/21 at 17:31:22.479
