                         Program Version 5.0.1 -  RELEASE  -
|  1> # ORCA input file
|  2> ! SP r2SCAN-3c CPCM
|  3>
|  4> %maxcore 1875.0
|  5> %pal nprocs 4 end
|  6> %cpcm smd true SMDsolvent "DMSO" end
|  7>
|  8> *xyz -1 1
|  9> C      -1.207765    2.856408    3.077002
| 10> O      -1.106587    1.688195    2.270030
| 11> C      -2.204455    1.351773    1.574464
| 12> O      -3.221563    2.028139    1.636897
| 13> C      -2.037635    0.133959    0.752378
| 14> C      -3.096496   -0.343926   -0.013829
| 15> O      -4.331738    0.284377   -0.100982
| 16> C      -2.971267   -1.608928   -0.680690
| 17> O      -3.889946   -2.206881   -1.270605
| 18> N      -1.724778   -2.208442   -0.590500
| 19> C      -1.657928   -3.532956   -1.206167
| 20> C      -0.535243   -1.552377   -0.046922
| 21> C       0.279787   -2.536326    0.817743
| 22> C       0.373800   -0.937279   -1.209012
| 23> C      -0.483850   -0.137100   -2.198969
| 24> C       1.214403   -1.965350   -1.971735
| 25> N       1.262713   -0.010907   -0.499874
| 26> C       2.228007    0.724756   -1.054736
| 27> O       2.600629    0.678358   -2.223521
| 28> C       2.885802    1.644399   -0.080903
| 29> N       3.822057    2.509407   -0.327822
| 30> N       4.117093    3.120587    0.857610
| 31> C       3.343561    2.590090    1.751353
| 32> C       3.280961    2.908256    3.195116
| 33> O       2.539403    1.652135    1.224661
| 34> N      -0.846470   -0.458321    0.840103
| 35> H      -0.243291    2.988116    3.564637
| 36> H      -1.993189    2.735506    3.828229
| 37> H      -1.436430    3.729439    2.459132
| 38> H      -4.323006    1.075342    0.469387
| 39> H      -1.864336   -3.462918   -2.278976
| 40> H      -0.682068   -3.985468   -1.061780
| 41> H      -2.414681   -4.182466   -0.755327
| 42> H       1.105218   -1.991127    1.271864
| 43> H      -0.363588   -2.912263    1.611777
| 44> H       0.683276   -3.378895    0.262932
| 45> H       0.155291    0.341625   -2.940565
| 46> H      -1.051108    0.632459   -1.676367
| 47> H      -1.174999   -0.802569   -2.714297
| 48> H       0.574089   -2.727092   -2.410553
| 49> H       1.758701   -1.477063   -2.780031
| 50> H       1.938411   -2.443205   -1.314532
| 51> H       0.918193    0.231845    0.432608
| 52> H       4.030361    3.657831    3.436206
| 53> H       2.292024    3.289410    3.450993
| 54> H       3.458637    2.009448    3.784962
| 55> **                         ****END OF INPUT****

CARTESIAN COORDINATES (ANGSTROEM)
---------------------------------
  C     -1.207765    2.856408    3.077002
  O     -1.106587    1.688195    2.270030
  C     -2.204455    1.351773    1.574464
  O     -3.221563    2.028139    1.636897
  C     -2.037635    0.133959    0.752378
  C     -3.096496   -0.343926   -0.013829
  O     -4.331738    0.284377   -0.100982
  C     -2.971267   -1.608928   -0.680690
  O     -3.889946   -2.206881   -1.270605
  N     -1.724778   -2.208442   -0.590500
  C     -1.657928   -3.532956   -1.206167
  C     -0.535243   -1.552377   -0.046922
  C      0.279787   -2.536326    0.817743
  C      0.373800   -0.937279   -1.209012
  C     -0.483850   -0.137100   -2.198969
  C      1.214403   -1.965350   -1.971735
  N      1.262713   -0.010907   -0.499874
  C      2.228007    0.724756   -1.054736
  O      2.600629    0.678358   -2.223521
  C      2.885802    1.644399   -0.080903
  N      3.822057    2.509407   -0.327822
  N      4.117093    3.120587    0.857610
  C      3.343561    2.590090    1.751353
  C      3.280961    2.908256    3.195116
  O      2.539403    1.652135    1.224661
  N     -0.846470   -0.458321    0.840103
  H     -0.243291    2.988116    3.564637
  H     -1.993189    2.735506    3.828229
  H     -1.436430    3.729439    2.459132
  H     -4.323006    1.075342    0.469387
  H     -1.864336   -3.462918   -2.278976
  H     -0.682068   -3.985468   -1.061780
  H     -2.414681   -4.182466   -0.755327
  H      1.105218   -1.991127    1.271864
  H     -0.363588   -2.912263    1.611777
  H      0.683276   -3.378895    0.262932
  H      0.155291    0.341625   -2.940565
  H     -1.051108    0.632459   -1.676367
  H     -1.174999   -0.802569   -2.714297
  H      0.574089   -2.727092   -2.410553
  H      1.758701   -1.477063   -2.780031
  H      1.938411   -2.443205   -1.314532
  H      0.918193    0.231845    0.432608
  H      4.030361    3.657831    3.436206
  H      2.292024    3.289410    3.450993
  H      3.458637    2.009448    3.784962

 Total Charge           Charge          ....   -1
 Multiplicity           Mult            ....    1
 Number of Electrons    NEL             ....  194
 Basis Dimension        Dim             ....  649

ORBITAL ENERGIES
----------------

  NO   OCC          E(Eh)            E(eV)
   0   2.0000     -19.056850      -518.5632
   1   2.0000     -18.990026      -516.7449
   2   2.0000     -18.940656      -515.4015
   3   2.0000     -18.936385      -515.2852
   4   2.0000     -18.914491      -514.6895
   5   2.0000     -18.883693      -513.8514
   6   2.0000     -14.195399      -386.2764
   7   2.0000     -14.190523      -386.1438
   8   2.0000     -14.175345      -385.7308
   9   2.0000     -14.162868      -385.3912
  10   2.0000     -14.093387      -383.5006
  11   2.0000     -10.149656      -276.1862
  12   2.0000     -10.139712      -275.9156
  13   2.0000     -10.138008      -275.8692
  14   2.0000     -10.133173      -275.7377
  15   2.0000     -10.094174      -274.6764
  16   2.0000     -10.089355      -274.5453
  17   2.0000     -10.070153      -274.0228
  18   2.0000     -10.067964      -273.9632
  19   2.0000     -10.050821      -273.4968
  20   2.0000     -10.048764      -273.4408
  21   2.0000     -10.041795      -273.2511
  22   2.0000     -10.037721      -273.1403
  23   2.0000     -10.004804      -272.2446
  24   2.0000     -10.004502      -272.2363
  25   2.0000     -10.003162      -272.1999
  26   2.0000      -1.146287       -31.1921
  27   2.0000      -1.066149       -29.0114
  28   2.0000      -1.001584       -27.2545
  29   2.0000      -0.988325       -26.8937
  30   2.0000      -0.973325       -26.4855
  31   2.0000      -0.966289       -26.2941
  32   2.0000      -0.958060       -26.0701
  33   2.0000      -0.906504       -24.6672
  34   2.0000      -0.880169       -23.9506
  35   2.0000      -0.825899       -22.4738
  36   2.0000      -0.821659       -22.3585
  37   2.0000      -0.753017       -20.4906
  38   2.0000      -0.717198       -19.5159
  39   2.0000      -0.706867       -19.2348
  40   2.0000      -0.692780       -18.8515
  41   2.0000      -0.665974       -18.1221
  42   2.0000      -0.654540       -17.8109
  43   2.0000      -0.650974       -17.7139
  44   2.0000      -0.632965       -17.2239
  45   2.0000      -0.597820       -16.2675
  46   2.0000      -0.589896       -16.0519
  47   2.0000      -0.584840       -15.9143
  48   2.0000      -0.565098       -15.3771
  49   2.0000      -0.530176       -14.4268
  50   2.0000      -0.525206       -14.2916
  51   2.0000      -0.509496       -13.8641
  52   2.0000      -0.486255       -13.2317
  53   2.0000      -0.481240       -13.0952
  54   2.0000      -0.471489       -12.8299
  55   2.0000      -0.462570       -12.5872
  56   2.0000      -0.451699       -12.2914
  57   2.0000      -0.442825       -12.0499
  58   2.0000      -0.435083       -11.8392
  59   2.0000      -0.432547       -11.7702
  60   2.0000      -0.415993       -11.3198
  61   2.0000      -0.411080       -11.1861
  62   2.0000      -0.402160       -10.9433
  63   2.0000      -0.401319       -10.9204
  64   2.0000      -0.391265       -10.6469
  65   2.0000      -0.387475       -10.5437
  66   2.0000      -0.384917       -10.4741
  67   2.0000      -0.382309       -10.4032
  68   2.0000      -0.376371       -10.2416
  69   2.0000      -0.372779       -10.1438
  70   2.0000      -0.366292        -9.9673
  71   2.0000      -0.363821        -9.9001
  72   2.0000      -0.353653        -9.6234
  73   2.0000      -0.347780        -9.4636
  74   2.0000      -0.344047        -9.3620
  75   2.0000      -0.340031        -9.2527
  76   2.0000      -0.336433        -9.1548
  77   2.0000      -0.334042        -9.0898
  78   2.0000      -0.330118        -8.9830
  79   2.0000      -0.322297        -8.7701
  80   2.0000      -0.320305        -8.7159
  81   2.0000      -0.311452        -8.4750
  82   2.0000      -0.305563        -8.3148
  83   2.0000      -0.303278        -8.2526
  84   2.0000      -0.298655        -8.1268
  85   2.0000      -0.291570        -7.9340
  86   2.0000      -0.270685        -7.3657
  87   2.0000      -0.261068        -7.1040
  88   2.0000      -0.253936        -6.9100
  89   2.0000      -0.251200        -6.8355
  90   2.0000      -0.247804        -6.7431
  91   2.0000      -0.230454        -6.2710
  92   2.0000      -0.224594        -6.1115
  93   2.0000      -0.209009        -5.6874
  94   2.0000      -0.196731        -5.3533
  95   2.0000      -0.188615        -5.1325
  96   2.0000      -0.117589        -3.1998
  97   0.0000      -0.073281        -1.9941
  98   0.0000      -0.057990        -1.5780
  99   0.0000      -0.013412        -0.3650
 100   0.0000       0.038915         1.0589
 101   0.0000       0.048274         1.3136

MULLIKEN ATOMIC CHARGES
-----------------------
   0 C :   -0.327296
   1 O :   -0.173976
   2 C :    0.207256
   3 O :   -0.476159
   4 C :    0.040796
   5 C :   -0.076061
   6 O :   -0.400964
   7 C :    0.013747
   8 O :   -0.458058
   9 N :    0.371815
  10 C :   -0.453244
  11 C :   -0.273788
  12 C :   -0.636944
  13 C :    0.295330
  14 C :   -0.771874
  15 C :   -0.648711
  16 N :   -0.035716
  17 C :   -0.148556
  18 O :   -0.447610
  19 C :    0.421900
  20 N :   -0.199022
  21 N :   -0.282780
  22 C :    0.394246
  23 C :   -0.646310
  24 O :   -0.050723
  25 N :   -0.213324
  26 H :    0.172434
  27 H :    0.171626
  28 H :    0.173718
  29 H :    0.343655
  30 H :    0.177608
  31 H :    0.167987
  32 H :    0.168851
  33 H :    0.182732
  34 H :    0.178214
  35 H :    0.174393
  36 H :    0.186706
  37 H :    0.188841
  38 H :    0.192086
  39 H :    0.187973
  40 H :    0.192630
  41 H :    0.187063
  42 H :    0.328142
  43 H :    0.202796
  44 H :    0.198976
  45 H :    0.199593
Sum of atomic charges:   -1.0000000

LOEWDIN ATOMIC CHARGES
----------------------
   0 C :   -0.044216
   1 O :   -0.580114
   2 C :    0.409957
   3 O :   -0.482955
   4 C :    0.172111
   5 C :    0.160589
   6 O :   -0.534672
   7 C :    0.346999
   8 O :   -0.533297
   9 N :   -0.759984
  10 C :   -0.116674
  11 C :    0.259498
  12 C :   -0.347733
  13 C :    0.097645
  14 C :   -0.350182
  15 C :   -0.368727
  16 N :   -0.608280
  17 C :    0.369250
  18 O :   -0.488666
  19 C :    0.416576
  20 N :   -0.348917
  21 N :   -0.371276
  22 C :    0.371407
  23 C :   -0.320393
  24 O :   -0.390174
  25 N :   -0.747233
  26 H :    0.182935
  27 H :    0.179145
  28 H :    0.179512
  29 H :    0.292404
  30 H :    0.177378
  31 H :    0.180958
  32 H :    0.181166
  33 H :    0.172360
  34 H :    0.167990
  35 H :    0.158308
  36 H :    0.169787
  37 H :    0.175620
  38 H :    0.171295
  39 H :    0.168093
  40 H :    0.178204
  41 H :    0.168776
  42 H :    0.315812
  43 H :    0.189651
  44 H :    0.190000
  45 H :    0.190064

  Mayer bond orders larger than 0.100000
B(  0-C ,  1-O ) :   0.8282 B(  0-C , 26-H ) :   0.9638 B(  0-C , 27-H ) :   0.9575
B(  0-C , 28-H ) :   0.9587 B(  1-O ,  2-C ) :   1.1490 B(  2-C ,  3-O ) :   1.7438
B(  2-C ,  4-C ) :   1.0598 B(  4-C ,  5-C ) :   1.2012 B(  4-C , 25-N ) :   1.2790
B(  5-C ,  6-O ) :   1.0717 B(  5-C ,  7-C ) :   1.0535 B(  5-C , 25-N ) :   0.1309
B(  6-O , 29-H ) :   0.7968 B(  7-C ,  8-O ) :   1.8829 B(  7-C ,  9-N ) :   1.0943
B(  9-N , 10-C ) :   0.8111 B(  9-N , 11-C ) :   1.0242 B(  9-N , 13-C ) :  -0.1035
B( 10-C , 30-H ) :   0.9522 B( 10-C , 31-H ) :   0.9484 B( 10-C , 32-H ) :   0.9563
B( 11-C , 12-C ) :   0.9842 B( 11-C , 13-C ) :   0.7206 B( 11-C , 16-N ) :  -0.1311
B( 11-C , 25-N ) :   0.7230 B( 12-C , 33-H ) :   0.9655 B( 12-C , 34-H ) :   0.9807
B( 12-C , 35-H ) :   0.9694 B( 13-C , 14-C ) :   0.7698 B( 13-C , 15-C ) :   0.8547
B( 13-C , 16-N ) :   0.9168 B( 14-C , 36-H ) :   0.9766 B( 14-C , 37-H ) :   0.9797
B( 14-C , 38-H ) :   0.9654 B( 15-C , 39-H ) :   0.9678 B( 15-C , 40-H ) :   0.9626
B( 15-C , 41-H ) :   0.9783 B( 16-N , 17-C ) :   1.2192 B( 16-N , 42-H ) :   0.8139
B( 17-C , 18-O ) :   1.9254 B( 17-C , 19-C ) :   0.8107 B( 18-O , 19-C ) :  -0.1178
B( 19-C , 20-N ) :   1.7093 B( 19-C , 22-C ) :   0.1005 B( 19-C , 24-O ) :   1.0787
B( 20-N , 21-N ) :   1.2796 B( 21-N , 22-C ) :   1.6519 B( 22-C , 23-C ) :   0.8279
B( 22-C , 24-O ) :   1.0602 B( 23-C , 43-H ) :   0.9914 B( 23-C , 44-H ) :   0.9381
B( 23-C , 45-H ) :   0.9472

Dispersion correction           -0.022913293
FINAL SINGLE POINT ENERGY     -1308.646707821535

DIPOLE MOMENT
-------------
                                X             Y             Z
Electronic contribution:     -0.05890      11.70976       0.93303
Nuclear contribution   :      2.82612     -11.11687       2.76611
                        -----------------------------------------
Total Dipole Moment    :      2.76722       0.59289       3.69914
                        -----------------------------------------
Magnitude (a.u.)       :      4.65754
Magnitude (Debye)      :     11.83852

Rotational constants in cm-1:     0.009962     0.005286     0.003946
Rotational constants in MHz :   298.655554   158.473228   118.307606

                             ****ORCA TERMINATED NORMALLY****
TOTAL RUN TIME: 0 days 0 hours 2 minutes 4 seconds 929 msec
