   * xtb version 6.5.1 (579679a) compiled by 'ehlert@majestix' on 2022-07-11
          program call               : /lustre/hpc/kemi/ree/PhD/git/ReactivityQM/dep/xtb-6.5.1/bin/xtb --gfn 1 /lustre/hpc/kemi/ree/PhD/git/ReactivityQM/calculations/R03/reac02prodE06/conf12/R03_reac02prodE06_conf12_gfn1.xyz --opt --vfukui --chrg -1 --uhf 0 --alpb DMSO

   ID    Z sym.   atoms
    1    6 C      1, 3, 5, 6, 8, 11-16, 18, 20, 23, 24
    2    8 O      2, 4, 7, 9, 19, 25
    3    7 N      10, 17, 21, 22, 26
    4    1 H      27-46

      * Solvation model:               ALPB
        Solvent                        DMSO
        Solvent mass                       7.8130E+01 g/mol
          :  Hamiltonian                  GFN1-xTB          :
 * total energy  :   -87.0419429 Eh     change       -0.3714717E-10 Eh
 * total energy  :   -87.0527738 Eh     change       -0.1083089E-01 Eh
 * total energy  :   -87.0569502 Eh     change       -0.4176387E-02 Eh
 * total energy  :   -87.0578691 Eh     change       -0.9189089E-03 Eh
 * total energy  :   -87.0587579 Eh     change       -0.8887800E-03 Eh
 * total energy  :   -87.0592546 Eh     change       -0.4966594E-03 Eh
 * total energy  :   -87.0596279 Eh     change       -0.3733761E-03 Eh
 * total energy  :   -87.0598719 Eh     change       -0.2439967E-03 Eh
 * total energy  :   -87.0599834 Eh     change       -0.1115215E-03 Eh
 * total energy  :   -87.0600404 Eh     change       -0.5697073E-04 Eh
 * total energy  :   -87.0636332 Eh     change       -0.1095096E-04 Eh
 * total energy  :   -87.0636456 Eh     change       -0.1236588E-04 Eh
 * total energy  :   -87.0636547 Eh     change       -0.9108901E-05 Eh
 * total energy  :   -87.0636606 Eh     change       -0.5947772E-05 Eh
 * total energy  :   -87.0636677 Eh     change       -0.7100331E-05 Eh
 * total energy  :   -87.0636784 Eh     change       -0.1064353E-04 Eh
 * total energy  :   -87.0636856 Eh     change       -0.7250224E-05 Eh
 * total energy  :   -87.0636912 Eh     change       -0.5604966E-05 Eh
 * total energy  :   -87.0636955 Eh     change       -0.4285721E-05 Eh
   *** GEOMETRY OPTIMIZATION CONVERGED AFTER 127 ITERATIONS ***

 final structure:
================
46
 xtb: 6.5.1 (579679a)
C           -1.20776492898318        2.85640794470528        3.07700176094959
O           -1.10658715102152        1.68819467639404        2.27003004977706
C           -2.20445502410240        1.35177307685407        1.57446414945180
O           -3.22156287858045        2.02813911020045        1.63689704088930
C           -2.03763517955397        0.13395939453180        0.75237789275459
C           -3.09649574532695       -0.34392643093844       -0.01382943780800
O           -4.33173758642975        0.28437664664413       -0.10098180381741
C           -2.97126658827077       -1.60892768393717       -0.68068995996540
O           -3.88994623474910       -2.20688077976782       -1.27060485577662
N           -1.72477788121134       -2.20844214360224       -0.59049975078476
C           -1.65792830853840       -3.53295587685907       -1.20616719426473
C           -0.53524322279663       -1.55237676775494       -0.04692209323254
C            0.27978741740173       -2.53632614162911        0.81774278397611
C            0.37380041853299       -0.93727850838176       -1.20901193739223
C           -0.48384979986386       -0.13709961310945       -2.19896877630874
C            1.21440335154604       -1.96534970980213       -1.97173473687481
N            1.26271265474609       -0.01090728798385       -0.49987406145572
C            2.22800655214472        0.72475618671697       -1.05473625720628
O            2.60062897547737        0.67835788826415       -2.22352113874740
C            2.88580249912075        1.64439903471810       -0.08090327864813
N            3.82205655882492        2.50940727438212       -0.32782165891354
N            4.11709269342645        3.12058693011769        0.85760962817917
C            3.34356130867265        2.59009028194761        1.75135325893078
C            3.28096085721508        2.90825627158041        3.19511585852625
O            2.53940293069242        1.65213482210018        1.22466116592680
N           -0.84646979115746       -0.45832118075359        0.84010324645227
H           -0.24329099139436        2.98811638325837        3.56463721262750
H           -1.99318943279013        2.73550562270167        3.82822885126246
H           -1.43642970509777        3.72943922191245        2.45913203833667
H           -4.32300618644661        1.07534163859225        0.46938693780269
H           -1.86433646851212       -3.46291823902242       -2.27897580548811
H           -0.68206817965697       -3.98546822994777       -1.06178022139137
H           -2.41468091149290       -4.18246561218873       -0.75532677060487
H            1.10521752493257       -1.99112668787984        1.27186381789055
H           -0.36358798163556       -2.91226275385426        1.61177704563131
H            0.68327609470201       -3.37889502788500        0.26293214462449
H            0.15529065419276        0.34162493789113       -2.94056468186379
H           -1.05110849114027        0.63245942474941       -1.67636662114556
H           -1.17499916145598       -0.80256936964845       -2.71429739966024
H            0.57408887834730       -2.72709225423789       -2.41055302398349
H            1.75870140939200       -1.47706255184353       -2.78003095063543
H            1.93841072492836       -2.44320526625290       -1.31453213005735
H            0.91819344218086        0.23184536320843        0.43260756535726
H            4.03036061586762        3.65783098469455        3.43620569810072
H            2.29202350122366        3.28941039857094        3.45099295682894
H            3.45863676664237        2.00944760253253        3.78496244175811

          :  Hamiltonian                  GFN1-xTB          :
         :: total energy             -87.063695521439 Eh    ::
         :: gradient norm              0.000837807125 Eh/a0 ::
         :: HOMO-LUMO gap              0.705648314087 eV    ::
         :: SCC energy               -87.851516959521 Eh    ::
         :: -> Gsolv                  -0.105387021329 Eh    ::
         :: repulsion energy           0.819938413259 Eh    ::

    * Orbital Energies and Occupations

         #    Occupation            Energy/Eh            Energy/eV
      -------------------------------------------------------------
         1        2.0000           -0.8536200             -23.2282
       ...           ...                  ...                  ...
        59        2.0000           -0.4729150             -12.8687
        60        2.0000           -0.4688293             -12.7575
        61        2.0000           -0.4627910             -12.5932
        62        2.0000           -0.4492417             -12.2245
        63        2.0000           -0.4468083             -12.1583
        64        2.0000           -0.4424843             -12.0406
        65        2.0000           -0.4373595             -11.9012
        66        2.0000           -0.4294482             -11.6859
        67        2.0000           -0.4219093             -11.4807
        68        2.0000           -0.3989280             -10.8554
        69        2.0000           -0.3872874             -10.5386
        70        2.0000           -0.3749278             -10.2023
        71        2.0000           -0.3194960              -8.6939 (HOMO)
        72        0.0000           -0.2935639              -7.9883 (LUMO)
        73                         -0.2699730              -7.3463
        74                         -0.2473782              -6.7315
        75                         -0.1886669              -5.1339
        76                         -0.1823110              -4.9609
        77                         -0.1472674              -4.0073
        78                         -0.1237125              -3.3664
        79                         -0.1217884              -3.3140
        80                         -0.1121726              -3.0524
        81                         -0.1096757              -2.9844
        82                         -0.0986987              -2.6857
       ...                                ...                  ...
       144                          0.7329763              19.9453
      -------------------------------------------------------------
                  HL-Gap            0.0259321 Eh            0.7056 eV

Wiberg/Mayer (AO) data.
largest (>0.10) Wiberg bond orders for each atom

     #   Z sym  total        # sym  WBO       # sym  WBO       # sym  WBO
 ---------------------------------------------------------------------------
     1   6 C    3.889 --    27 H    0.985    29 H    0.980    28 H    0.979
                             2 O    0.914
     2   8 O    2.192 --     3 C    1.092     1 C    0.914     4 O    0.118
     3   6 C    3.822 --     4 O    1.597     2 O    1.092     5 C    1.028
     4   8 O    1.919 --     3 C    1.597     2 O    0.118
     5   6 C    3.971 --    26 N    1.362     6 C    1.353     3 C    1.028
     6   6 C    3.879 --     5 C    1.353     8 C    1.151     7 O    0.997
                            26 N    0.184
     7   8 O    1.967 --     6 C    0.997    30 H    0.825
     8   6 C    3.917 --     9 O    1.478     6 C    1.151    10 N    1.131
     9   8 O    1.794 --     8 C    1.478    10 N    0.126
    10   7 N    3.292 --     8 C    1.131    11 C    0.957    12 C    0.929
                             9 O    0.126
    11   6 C    3.963 --    32 H    0.982    31 H    0.982    33 H    0.981
                            10 N    0.957
    12   6 C    3.941 --    26 N    1.014    13 C    0.987    10 N    0.929
                            14 C    0.913
    13   6 C    3.995 --    12 C    0.987    35 H    0.984    34 H    0.984
                            36 H    0.979
    14   6 C    3.923 --    16 C    1.000    15 C    0.993    17 N    0.922
                            12 C    0.913
    15   6 C    3.994 --    14 C    0.993    39 H    0.985    37 H    0.984
                            38 H    0.983
    16   6 C    3.994 --    14 C    1.000    42 H    0.983    40 H    0.983
                            41 H    0.978
    17   7 N    3.392 --    18 C    1.310    14 C    0.922    43 H    0.861
                            19 O    0.186
    18   6 C    3.924 --    19 O    1.544    17 N    1.310    20 C    0.983
    19   8 O    1.867 --    18 C    1.544    17 N    0.186
    20   6 C    3.865 --    21 N    1.623    25 O    1.050    18 C    0.983
    21   7 N    2.987 --    20 C    1.623    22 N    1.190
    22   7 N    2.979 --    23 C    1.619    21 N    1.190
    23   6 C    3.873 --    22 N    1.619    25 O    1.074    24 C    1.030
    24   6 C    3.989 --    23 C    1.030    44 H    0.983    46 H    0.966
                            45 H    0.963
    25   8 O    2.317 --    23 C    1.074    20 C    1.050
    26   7 N    2.927 --     5 C    1.362    12 C    1.014     6 C    0.184
    27   1 H    1.017 --     1 C    0.985
    28   1 H    1.011 --     1 C    0.979
    29   1 H    1.011 --     1 C    0.980
    30   1 H    0.889 --     7 O    0.825
    31   1 H    1.016 --    11 C    0.982
    32   1 H    1.011 --    11 C    0.982
    33   1 H    1.016 --    11 C    0.981
    34   1 H    1.013 --    13 C    0.984
    35   1 H    1.014 --    13 C    0.984
    36   1 H    1.008 --    13 C    0.979
    37   1 H    1.010 --    15 C    0.984
    38   1 H    1.012 --    15 C    0.983
    39   1 H    1.006 --    15 C    0.985
    40   1 H    1.006 --    16 C    0.983
    41   1 H    1.015 --    16 C    0.978
    42   1 H    1.006 --    16 C    0.983
    43   1 H    0.976 --    17 N    0.861
    44   1 H    1.000 --    24 C    0.983
    45   1 H    1.001 --    24 C    0.963
    46   1 H    0.998 --    24 C    0.966
 ---------------------------------------------------------------------------

           -------------------------------------------------
          | TOTAL ENERGY              -87.063695521439 Eh   |
          | GRADIENT NORM               0.000837807125 Eh/α |
          | HOMO-LUMO GAP               0.705648314087 eV   |
           -------------------------------------------------

 * finished run on 2023/06/20 at 15:20:26.056
