   * xtb version 6.5.1 (579679a) compiled by 'ehlert@majestix' on 2022-07-11
          program call               : /lustre/hpc/kemi/ree/PhD/git/ReactivityQM/dep/xtb-6.5.1/bin/xtb --gfn 1 /lustre/hpc/kemi/ree/PhD/git/ReactivityQM/calculations/R03/reac02prodE12/conf12/R03_reac02prodE12_conf12_gfn1.xyz --opt --vfukui --chrg -1 --uhf 0 --alpb DMSO

   ID    Z sym.   atoms
    1    6 C      1, 3, 5, 6, 8, 9, 12-16, 18, 20, 23, 24
    2    8 O      2, 4, 7, 10, 19, 25
    3    7 N      11, 17, 21, 22, 26
    4    1 H      27-46

      * Solvation model:               ALPB
        Solvent                        DMSO
        Solvent mass                       7.8130E+01 g/mol
          :  Hamiltonian                  GFN1-xTB          :
 * total energy  :   -87.0262502 Eh     change       -0.5390177E-10 Eh
 * total energy  :   -87.0396807 Eh     change       -0.1343051E-01 Eh
 * total energy  :   -87.0453076 Eh     change       -0.5626902E-02 Eh
 * total energy  :   -87.0465352 Eh     change       -0.1227532E-02 Eh
 * total energy  :   -87.0476211 Eh     change       -0.1085927E-02 Eh
 * total energy  :   -87.0482039 Eh     change       -0.5827579E-03 Eh
 * total energy  :   -87.0486117 Eh     change       -0.4078769E-03 Eh
 * total energy  :   -87.0488540 Eh     change       -0.2422652E-03 Eh
 * total energy  :   -87.0489861 Eh     change       -0.1321297E-03 Eh
 * total energy  :   -87.0490724 Eh     change       -0.8628899E-04 Eh
 * total energy  :   -87.0493425 Eh     change       -0.1278867E-04 Eh
 * total energy  :   -87.0493520 Eh     change       -0.9490902E-05 Eh
 * total energy  :   -87.0493592 Eh     change       -0.7134919E-05 Eh
 * total energy  :   -87.0493691 Eh     change       -0.9938683E-05 Eh
 * total energy  :   -87.0493743 Eh     change       -0.5197291E-05 Eh
 * total energy  :   -87.0493861 Eh     change       -0.1178854E-04 Eh
 * total energy  :   -87.0493901 Eh     change       -0.4008015E-05 Eh
 * total energy  :   -87.0493963 Eh     change       -0.6177822E-05 Eh
 * total energy  :   -87.0494002 Eh     change       -0.3954219E-05 Eh
   *** GEOMETRY OPTIMIZATION CONVERGED AFTER 28 ITERATIONS ***

 final structure:
================
46
 xtb: 6.5.1 (579679a)
C           -4.80703305702787       -1.58863918400870       -2.68354545168565
O           -3.77108510786982       -1.06424958688693       -1.86074558980546
C           -3.89618127298321       -1.29058680736063       -0.53687944168003
O           -4.84923881137094       -1.93321922089196       -0.09460708040763
C           -2.83766941204406       -0.72240217677734        0.28044962119600
C           -2.83850163686426       -0.86967963917039        1.63576107230214
O           -3.79573755488044       -1.53268894818023        2.29903334970552
C           -1.77948102596243       -0.18391682797724        2.54800882077847
C           -2.30870406253131        1.28081956406215        2.77911338441295
O           -1.43782135064554       -0.81201195157663        3.61212245784997
N           -0.53904008433106        0.01875718142182        1.55803259146438
C            0.71416339234217        0.22252750216089        2.26207170607853
C           -0.73385058634581        0.27216219018076        0.25197133362456
C            0.31312799443719        0.99564273864216       -0.61232085082512
C            0.29292759869293        2.49111985459408       -0.27730824981237
C           -0.01927337962683        0.81437794719522       -2.10031103916322
N            1.67127843250761        0.49583149886174       -0.37711419284272
C            2.02642309509792       -0.78819453740889       -0.56009874179222
O            1.28161045855630       -1.69171100261075       -0.90776939261948
C            3.46458863991439       -1.03568676325717       -0.26078455972083
N            4.09801494143779       -2.16607880079564       -0.31830835827902
N            5.38300799554313       -1.91826335118893        0.06864418187970
C            5.45278089338025       -0.65320063473250        0.34027762690010
C            6.62972991514818        0.11045523488300        0.80822249855743
O            4.27394187502687       -0.03627481084748        0.15433804384564
N           -1.82115314436362       -0.02462803557586       -0.39128955965765
H           -5.77534119657818       -1.17167869920548       -2.39216120777887
H           -4.85126386288002       -2.67867612854977       -2.60005306616945
H           -4.57447047310403       -1.30370525342862       -3.70834857896083
H           -4.46750667210554       -1.87722632590544        1.66602058789511
H           -2.50836329295513        1.78765119462963        1.83745451107172
H           -1.56054989885934        1.83716223202357        3.33960405732254
H           -3.22383765264546        1.22551418364018        3.36637046518413
H            1.11965650099975        1.22213260347260        2.09942603473981
H            0.52563228099097        0.09066716602738        3.33204494303942
H            1.46303197034474       -0.51260074563740        1.95612562012834
H            0.56021900676814        2.67113194235877        0.76176025327774
H           -0.70764722704848        2.88438271757140       -0.45240088882411
H            0.99555449879049        3.02762217071014       -0.91305738266646
H           -0.98279391682098        1.27308837337858       -2.31588316597836
H            0.74864641939193        1.29095733378488       -2.70719990782958
H           -0.07429078816067       -0.24370185987300       -2.35308133276774
H            2.38514205100433        1.16655684034875       -0.15512065732111
H            7.50817128515966       -0.53009431237219        0.80431176079277
H            6.79763951384112        0.96948092555179        0.16005808657428
H            6.45554470863147        0.48107220871841        1.81855068796685

          :  Hamiltonian                  GFN1-xTB          :
         :: total energy             -87.049400221779 Eh    ::
         :: gradient norm              0.000682496764 Eh/a0 ::
         :: HOMO-LUMO gap              1.127417681955 eV    ::
         :: SCC energy               -87.844972834326 Eh    ::
         :: -> Gsolv                  -0.135927730716 Eh    ::
         :: repulsion energy           0.825929112682 Eh    ::

    * Orbital Energies and Occupations

         #    Occupation            Energy/Eh            Energy/eV
      -------------------------------------------------------------
         1        2.0000           -0.8586777             -23.3658
       ...           ...                  ...                  ...
        59        2.0000           -0.4684781             -12.7479
        60        2.0000           -0.4640212             -12.6267
        61        2.0000           -0.4559327             -12.4066
        62        2.0000           -0.4543402             -12.3632
        63        2.0000           -0.4503219             -12.2539
        64        2.0000           -0.4432818             -12.0623
        65        2.0000           -0.4409800             -11.9997
        66        2.0000           -0.4292875             -11.6815
        67        2.0000           -0.4115840             -11.1998
        68        2.0000           -0.3889524             -10.5839
        69        2.0000           -0.3674201              -9.9980
        70        2.0000           -0.3551740              -9.6648
        71        2.0000           -0.3415974              -9.2953 (HOMO)
        72                         -0.3001656              -8.1679 (LUMO)
        73                         -0.2652920              -7.2190
        74                         -0.2508977              -6.8273
        75                         -0.2189895              -5.9590
        76                         -0.1884673              -5.1285
        77                         -0.1391506              -3.7865
        78                         -0.1346435              -3.6638
        79                         -0.1259968              -3.4285
        80                         -0.1222485              -3.3266
        81                         -0.1082690              -2.9462
        82                         -0.1007709              -2.7421
       ...                                ...                  ...
       144                          0.7365378              20.0422
      -------------------------------------------------------------
                  HL-Gap            0.0414318 Eh            1.1274 eV

Wiberg/Mayer (AO) data.
largest (>0.10) Wiberg bond orders for each atom

     #   Z sym  total        # sym  WBO       # sym  WBO       # sym  WBO
 ---------------------------------------------------------------------------
     1   6 C    3.891 --    29 H    0.987    28 H    0.980    27 H    0.980
                             2 O    0.917
     2   8 O    2.174 --     3 C    1.072     1 C    0.917     4 O    0.107
     3   6 C    3.840 --     4 O    1.544     5 C    1.101     2 O    1.072
     4   8 O    1.899 --     3 C    1.544     2 O    0.107
     5   6 C    3.947 --     6 C    1.540     3 C    1.101    26 N    1.072
     6   6 C    3.871 --     5 C    1.540     7 O    1.115     8 C    0.906
     7   8 O    2.086 --     6 C    1.115    30 H    0.792
     8   6 C    3.924 --    10 O    1.285     9 C    0.918     6 C    0.906
                            11 N    0.730
     9   6 C    3.990 --    31 H    0.990    33 H    0.985    32 H    0.985
                             8 C    0.918
    10   8 O    1.571 --     8 C    1.285
    11   7 N    3.343 --    13 C    1.273    12 C    0.967     8 C    0.730
                            26 N    0.176
    12   6 C    3.962 --    36 H    0.982    34 H    0.976    35 H    0.972
                            11 N    0.967
    13   6 C    3.951 --    26 N    1.551    11 N    1.273    14 C    0.952
    14   6 C    3.925 --    16 C    0.992    15 C    0.992    13 C    0.952
                            17 N    0.916
    15   6 C    3.994 --    14 C    0.992    38 H    0.984    39 H    0.984
                            37 H    0.979
    16   6 C    3.992 --    14 C    0.992    41 H    0.987    40 H    0.984
                            42 H    0.981
    17   7 N    3.371 --    18 C    1.273    14 C    0.916    43 H    0.900
                            19 O    0.182
    18   6 C    3.921 --    19 O    1.575    17 N    1.273    20 C    0.985
    19   8 O    1.882 --    18 C    1.575    17 N    0.182
    20   6 C    3.868 --    21 N    1.626    25 O    1.047    18 C    0.985
    21   7 N    2.994 --    20 C    1.626    22 N    1.192
    22   7 N    2.980 --    23 C    1.617    21 N    1.192
    23   6 C    3.871 --    22 N    1.617    25 O    1.072    24 C    1.031
    24   6 C    3.987 --    23 C    1.031    44 H    0.983    45 H    0.966
                            46 H    0.961
    25   8 O    2.315 --    23 C    1.072    20 C    1.047
    26   7 N    2.967 --    13 C    1.551     5 C    1.072    11 N    0.176
    27   1 H    1.012 --     1 C    0.980
    28   1 H    1.012 --     1 C    0.980
    29   1 H    1.015 --     1 C    0.987
    30   1 H    0.877 --     7 O    0.792
    31   1 H    1.010 --     9 C    0.990
    32   1 H    1.012 --     9 C    0.985
    33   1 H    1.013 --     9 C    0.985
    34   1 H    1.011 --    12 C    0.976
    35   1 H    1.026 --    12 C    0.972
    36   1 H    1.015 --    12 C    0.982
    37   1 H    1.004 --    15 C    0.979
    38   1 H    1.005 --    15 C    0.984
    39   1 H    1.000 --    15 C    0.984
    40   1 H    1.022 --    16 C    0.984
    41   1 H    1.004 --    16 C    0.987
    42   1 H    1.022 --    16 C    0.981
    43   1 H    0.945 --    17 N    0.900
    44   1 H    0.999 --    24 C    0.983
    45   1 H    0.997 --    24 C    0.966
    46   1 H    0.997 --    24 C    0.961
 ---------------------------------------------------------------------------

           -------------------------------------------------
          | TOTAL ENERGY              -87.049400221779 Eh   |
          | GRADIENT NORM               0.000682496764 Eh/α |
          | HOMO-LUMO GAP               1.127417681955 eV   |
           -------------------------------------------------

 * finished run on 2023/06/20 at 15:32:34.243
