   * xtb version 6.5.1 (579679a) compiled by 'ehlert@majestix' on 2022-07-11
          program call               : /lustre/hpc/kemi/ree/PhD/git/ReactivityQM/dep/xtb-6.5.1/bin/xtb --gfn 1 /lustre/hpc/kemi/ree/PhD/git/ReactivityQM/calculations/R02oxygendeprot/reac01prodE09/conf12/R02oxygendeprot_reac01prodE09_conf12_gfn1.xyz --opt --vfukui --chrg -2 --uhf 0 --alpb DMSO

   ID    Z sym.   atoms
    1    6 C      1, 3, 5, 7-10, 12, 14, 16, 17, 20, 22, 24
    2    8 O      2, 4, 13, 15, 23, 25
    3    7 N      6, 11, 18, 19, 21
    4    1 H      26-42

      * Solvation model:               ALPB
        Solvent                        DMSO
        Solvent mass                       7.8130E+01 g/mol
          :  Hamiltonian                  GFN1-xTB          :
 * total energy  :   -83.5939197 Eh     change       -0.2714273E-11 Eh
 * total energy  :   -83.6087206 Eh     change       -0.1480089E-01 Eh
 * total energy  :   -83.6139258 Eh     change       -0.5205236E-02 Eh
 * total energy  :   -83.6152553 Eh     change       -0.1329452E-02 Eh
 * total energy  :   -83.6179715 Eh     change       -0.2716185E-02 Eh
 * total energy  :   -83.6198305 Eh     change       -0.1858981E-02 Eh
 * total energy  :   -83.6225684 Eh     change       -0.2737894E-02 Eh
 * total energy  :   -83.6252491 Eh     change       -0.2680781E-02 Eh
 * total energy  :   -83.6266997 Eh     change       -0.1450567E-02 Eh
 * total energy  :   -83.6274854 Eh     change       -0.7856709E-03 Eh
 * total energy  :   -83.6319475 Eh     change       -0.1488594E-04 Eh
 * total energy  :   -83.6319586 Eh     change       -0.1102668E-04 Eh
 * total energy  :   -83.6319697 Eh     change       -0.1119234E-04 Eh
 * total energy  :   -83.6319798 Eh     change       -0.1005340E-04 Eh
 * total energy  :   -83.6319886 Eh     change       -0.8778396E-05 Eh
 * total energy  :   -83.6319964 Eh     change       -0.7772389E-05 Eh
 * total energy  :   -83.6320041 Eh     change       -0.7768393E-05 Eh
 * total energy  :   -83.6320107 Eh     change       -0.6547096E-05 Eh
 * total energy  :   -83.6320147 Eh     change       -0.4025751E-05 Eh
   *** GEOMETRY OPTIMIZATION CONVERGED AFTER 58 ITERATIONS ***

 final structure:
================
42
 xtb: 6.5.1 (579679a)
C            4.44823040780890       -2.30133778222284       -3.31993285994135
O            4.31116963996980       -1.19355763609037       -2.44523102671007
C            3.16717098786652       -1.16031966572372       -1.70656838415234
O            2.33377684959054       -2.05301553219866       -1.82336614838183
C            3.05634333839923       -0.02298444984065       -0.80897881593446
N            1.87269032278469       -0.01764257962245       -0.08956664895190
C            1.62944658179975        0.89664145876619        0.77374562023152
C            0.35903660143735        0.88007510228545        1.61281038002760
C            0.75926964854282        0.53014303678486        3.05721500409209
C           -0.32952676526541        2.25843592685601        1.56773658480660
N           -0.49984851552891       -0.16373967237061        1.05879532892103
C           -1.87018694847888       -0.21954307471495        1.52915233679924
O           -2.13442859398443       -0.00490654145804        2.75818050988477
C           -2.80904625884805       -0.43367453039318        0.55992454856138
O           -2.51662539600539       -0.79144638421544       -0.79241788359293
C           -3.65300340311262       -1.32084727892191       -1.25368904773223
C           -3.69602099989983       -1.79152549371222       -2.66800519480642
N           -4.64279441171182       -1.38684629903942       -0.44614010178384
N           -4.19700525052610       -0.83945139655285        0.81230496063843
C           -5.05797001362370        0.31071483960893        1.12897910641027
N            2.54628177648318        1.90401866874822        1.02466624072868
C            3.74299895008822        2.03281164090060        0.37594538326036
O            4.48916305226011        2.97380362978580        0.65284796486909
C            4.05762327275957        0.96841335332069       -0.64825704036816
O            5.14657991502145        1.02964913163492       -1.25570762754489
H            5.40467905460890       -2.19123973854713       -3.82959907773293
H            4.43499021801733       -3.24375584978777       -2.76225565377456
H            3.63884719449819       -2.31929221459724       -4.05716994386664
H            1.19257410131123       -0.47010489997762        3.08751616602783
H            1.49406945290819        1.24519252954879        3.42494783434810
H           -0.11257975486458        0.55758679193217        3.70891620597253
H           -1.23156667265789        2.23874746656665        2.17834125932115
H            0.32886353951757        3.03272741906251        1.95770615637331
H           -0.59939345046147        2.51027022507053        0.54243949779648
H           -0.48519517385752       -0.10243397406028        0.04083423346867
H           -3.41208741048858       -0.98070823808369       -3.33810306552277
H           -2.99865571966295       -2.61599018043318       -2.81793310170025
H           -4.70194179561408       -2.12483753394317       -2.91118723978971
H           -6.08328488200462       -0.03966039482233        1.24213561645923
H           -5.01644221274476        1.07427225438633        0.34540555050344
H           -4.70683806247032        0.73102258734702        2.07096162391402
H            2.34063378612426        2.61433827876473        1.70782774886294

          :  Hamiltonian                  GFN1-xTB          :
         :: total energy             -83.632014691411 Eh    ::
         :: gradient norm              0.000413447410 Eh/a0 ::
         :: HOMO-LUMO gap              0.716887117375 eV    ::
         :: SCC energy               -84.373934946712 Eh    ::
         :: -> Gsolv                  -0.268688876180 Eh    ::
         :: repulsion energy           0.767388859079 Eh    ::

    * Orbital Energies and Occupations

         #    Occupation            Energy/Eh            Energy/eV
      -------------------------------------------------------------
         1        2.0000           -0.7904055             -21.5080
       ...           ...                  ...                  ...
        56        2.0000           -0.4462337             -12.1426
        57        2.0000           -0.4414421             -12.0123
        58        2.0000           -0.4269677             -11.6184
        59        2.0000           -0.4254026             -11.5758
        60        2.0000           -0.4175986             -11.3634
        61        2.0000           -0.4099994             -11.1567
        62        2.0000           -0.4005046             -10.8983
        63        2.0000           -0.3805304             -10.3548
        64        2.0000           -0.3745005             -10.1907
        65        2.0000           -0.3671379              -9.9903
        66        2.0000           -0.3546559              -9.6507
        67        2.0000           -0.3525335              -9.5929
        68        2.0000           -0.2864126              -7.7937 (HOMO)
        69        0.0000           -0.2600675              -7.0768 (LUMO)
        70                         -0.2212668              -6.0210
        71                         -0.2045885              -5.5671
        72                         -0.1870351              -5.0895
        73                         -0.1282626              -3.4902
        74                         -0.1205081              -3.2792
        75                         -0.1181279              -3.2144
        76                         -0.1069610              -2.9106
        77                         -0.0985168              -2.6808
        78                         -0.0918670              -2.4998
        79                         -0.0873314              -2.3764
       ...                                ...                  ...
       134                          0.7579371              20.6245
      -------------------------------------------------------------
                  HL-Gap            0.0263451 Eh            0.7169 eV

Wiberg/Mayer (AO) data.
largest (>0.10) Wiberg bond orders for each atom

     #   Z sym  total        # sym  WBO       # sym  WBO       # sym  WBO
 ---------------------------------------------------------------------------
     1   6 C    3.903 --    26 H    0.987    27 H    0.980    28 H    0.980
                             2 O    0.930
     2   8 O    2.153 --     3 C    1.036     1 C    0.930     4 O    0.107
     3   6 C    3.848 --     4 O    1.571     5 C    1.123     2 O    1.036
     4   8 O    1.847 --     3 C    1.571     2 O    0.107
     5   6 C    3.920 --    24 C    1.279     6 N    1.147     3 C    1.123
                            25 O    0.131
     6   7 N    3.027 --     7 C    1.642     5 C    1.147
     7   6 C    3.923 --     6 N    1.642    21 N    1.083     8 C    0.976
     8   6 C    3.969 --     9 C    0.982    10 C    0.980     7 C    0.976
                            11 N    0.973
     9   6 C    3.993 --    30 H    0.987    29 H    0.987     8 C    0.982
                            31 H    0.976
    10   6 C    3.994 --    34 H    0.987    33 H    0.983    32 H    0.981
                             8 C    0.980
    11   7 N    3.074 --     8 C    0.973    12 C    0.966    35 H    0.937
    12   6 C    3.934 --    14 C    1.511    13 O    1.329    11 N    0.966
    13   8 O    1.693 --    12 C    1.329    14 C    0.169
    14   6 C    3.651 --    12 C    1.511    19 N    0.946    15 O    0.872
                            13 O    0.169
    15   8 O    2.192 --    16 C    1.091    14 C    0.872    18 N    0.134
    16   6 C    3.907 --    18 N    1.706    15 O    1.091    17 C    1.013
    17   6 C    3.995 --    16 C    1.013    38 H    0.987    36 H    0.974
                            37 H    0.972
    18   7 N    2.945 --    16 C    1.706    19 N    0.986    15 O    0.134
    19   7 N    3.060 --    18 N    0.986    20 C    0.970    14 C    0.946
    20   6 C    3.981 --    39 H    0.989    41 H    0.986    40 H    0.983
                            19 N    0.970
    21   7 N    3.425 --    22 C    1.174     7 C    1.083    42 H    0.899
                            23 O    0.136
    22   6 C    3.882 --    23 O    1.561    21 N    1.174    24 C    0.973
    23   8 O    1.843 --    22 C    1.561    21 N    0.136
    24   6 C    3.945 --    25 O    1.504     5 C    1.279    22 C    0.973
    25   8 O    1.810 --    24 C    1.504     5 C    0.131
    26   1 H    1.016 --     1 C    0.987
    27   1 H    1.015 --     1 C    0.980
    28   1 H    1.015 --     1 C    0.980
    29   1 H    1.014 --     9 C    0.987
    30   1 H    1.006 --     9 C    0.987
    31   1 H    1.033 --     9 C    0.976
    32   1 H    1.017 --    10 C    0.981
    33   1 H    1.005 --    10 C    0.983
    34   1 H    1.006 --    10 C    0.987
    35   1 H    0.994 --    11 N    0.937
    36   1 H    1.004 --    17 C    0.974
    37   1 H    1.004 --    17 C    0.972
    38   1 H    1.007 --    17 C    0.987
    39   1 H    1.026 --    20 C    0.989
    40   1 H    1.022 --    20 C    0.983
    41   1 H    1.034 --    20 C    0.986
    42   1 H    0.955 --    21 N    0.899
 ---------------------------------------------------------------------------

           -------------------------------------------------
          | TOTAL ENERGY              -83.632014691411 Eh   |
          | GRADIENT NORM               0.000413447410 Eh/α |
          | HOMO-LUMO GAP               0.716887117375 eV   |
           -------------------------------------------------

 * finished run on 2023/06/21 at 17:10:38.889
