   * xtb version 6.5.1 (579679a) compiled by 'ehlert@majestix' on 2022-07-11
          program call               : /lustre/hpc/kemi/ree/PhD/git/ReactivityQM/dep/xtb-6.5.1/bin/xtb --gfn 1 /lustre/hpc/kemi/ree/PhD/git/ReactivityQM/calculations/R02deprot/reac01prodN10/conf20/R02deprot_reac01prodN10_conf20_gfn1.xyz --opt --vfukui --chrg 0 --uhf 0 --alpb DMSO

   ID    Z sym.   atoms
    1    6 C      1, 3, 5, 6, 8-11, 13, 15, 18, 19, 22, 24
    2    8 O      2, 4, 14, 20, 23, 25
    3    7 N      7, 12, 16, 17, 21
    4    1 H      26-42

      * Solvation model:               ALPB
        Solvent                        DMSO
        Solvent mass                       7.8130E+01 g/mol
          :  Hamiltonian                  GFN1-xTB          :
 * total energy  :   -82.9312450 Eh     change       -0.1377032E-10 Eh
 * total energy  :   -82.9451448 Eh     change       -0.1389980E-01 Eh
 * total energy  :   -82.9508935 Eh     change       -0.5748754E-02 Eh
 * total energy  :   -82.9521937 Eh     change       -0.1300123E-02 Eh
 * total energy  :   -82.9529303 Eh     change       -0.7366055E-03 Eh
 * total energy  :   -82.9532285 Eh     change       -0.2982788E-03 Eh
 * total energy  :   -82.9534328 Eh     change       -0.2042193E-03 Eh
 * total energy  :   -82.9535754 Eh     change       -0.1426452E-03 Eh
 * total energy  :   -82.9536981 Eh     change       -0.1226965E-03 Eh
 * total energy  :   -82.9538300 Eh     change       -0.1319136E-03 Eh
 * total energy  :   -82.9545571 Eh     change       -0.9101329E-05 Eh
 * total energy  :   -82.9545692 Eh     change       -0.1208824E-04 Eh
 * total energy  :   -82.9545891 Eh     change       -0.1987510E-04 Eh
 * total energy  :   -82.9546027 Eh     change       -0.1365918E-04 Eh
 * total energy  :   -82.9546106 Eh     change       -0.7838370E-05 Eh
 * total energy  :   -82.9546202 Eh     change       -0.9662123E-05 Eh
 * total energy  :   -82.9546269 Eh     change       -0.6614384E-05 Eh
 * total energy  :   -82.9546329 Eh     change       -0.6030883E-05 Eh
 * total energy  :   -82.9546369 Eh     change       -0.4042635E-05 Eh
   *** GEOMETRY OPTIMIZATION CONVERGED AFTER 34 ITERATIONS ***

 final structure:
================
42
 xtb: 6.5.1 (579679a)
C           -4.00704450225493        3.20614970950923        0.16325147304197
O           -3.50105546748884        2.06794069565796       -0.56114143676938
C           -2.76069345367481        1.21643682673061        0.09705702035194
O           -2.45254265071796        1.26985752881449        1.24884277276322
C           -2.28705920216171        0.03614094218943       -0.86757429068573
C           -2.21412118506640        0.53829140517352       -2.31153492543292
N           -1.00596887625709       -0.35208247063949       -0.38112233970667
C           -0.91552671883616       -1.34716921192553        0.44505577182928
C            0.44718675017892       -1.67431503654019        1.03138366732929
C            0.36643163117516       -1.51174930494364        2.55660038381562
C            0.82969609280527       -3.11069620187360        0.64870905120630
N            1.41477855419316       -0.73293431882496        0.47663754535006
C            2.71687319301687       -0.70925231144200        0.80339474298640
O            3.27133085052192       -1.46635062985489        1.58410124546786
C            3.42703480493999        0.38479459455262        0.08580698945525
N            2.89765222461037        1.22616913604141       -0.75098964230134
N            3.89821824771652        2.05889873672819       -1.15721004079637
C            4.97376184463933        1.67189035835374       -0.54139082397067
C            6.33020992440806        2.25500308330636       -0.63801153647708
O            4.74099942950474        0.61948242364790        0.25717209699298
N           -1.89792528805943       -2.17521165940485        0.87755128519619
C           -3.12756051264898       -2.05316629947301        0.37806021458995
O           -4.11551143925743       -2.75777539015731        0.60217672715070
C           -3.33382811060170       -0.94520049388921       -0.59937162907881
O           -4.51040559767332       -0.86003585370415       -1.10596772742648
H           -4.45633555837804        3.86049837675927       -0.57968964408042
H           -3.18756549045830        3.70893252733727        0.67930956002562
H           -4.75364161590458        2.87316324025864        0.88576184152360
H           -1.78743057060130       -0.24790319867417       -2.93088714125096
H           -3.20981352657693        0.78429667903739       -2.67218477661816
H           -1.57813430444475        1.41865858605303       -2.36091576394063
H            0.13937682307954       -0.47596587747471        2.80656696916305
H           -0.42505834714824       -2.15328086643395        2.94148679395950
H            1.31155053630626       -1.79288351835469        3.01741164417747
H            0.93016676489418       -3.19229166197082       -0.43255792099759
H            0.04842060727480       -3.79037314765561        0.98597658670804
H            1.77280703355607       -3.38680893081863        1.11707388427312
H            1.05831822301841       -0.06046477946994       -0.19247880622131
H            7.03350247123773        1.50654473266251       -1.00347340446828
H            6.66590508898107        2.58098464359361        0.34658610019641
H            6.31544261109371        3.10361036018248       -1.31772890748072
H           -5.06243328894078       -1.59183442306923       -0.71522860984391

          :  Hamiltonian                  GFN1-xTB          :
         :: total energy             -82.954636936668 Eh    ::
         :: gradient norm              0.000706319028 Eh/a0 ::
         :: HOMO-LUMO gap              1.240011827985 eV    ::
         :: SCC energy               -83.725734332747 Eh    ::
         :: -> Gsolv                  -0.053352245205 Eh    ::
         :: repulsion energy           0.797459425858 Eh    ::

    * Orbital Energies and Occupations

         #    Occupation            Energy/Eh            Energy/eV
      -------------------------------------------------------------
         1        2.0000           -0.8769933             -23.8642
       ...           ...                  ...                  ...
        55        2.0000           -0.5038050             -13.7092
        56        2.0000           -0.5001103             -13.6087
        57        2.0000           -0.4972347             -13.5304
        58        2.0000           -0.4871801             -13.2568
        59        2.0000           -0.4853462             -13.2069
        60        2.0000           -0.4805164             -13.0755
        61        2.0000           -0.4632322             -12.6052
        62        2.0000           -0.4572329             -12.4419
        63        2.0000           -0.4545757             -12.3696
        64        2.0000           -0.4481342             -12.1944
        65        2.0000           -0.4412083             -12.0059
        66        2.0000           -0.4334319             -11.7943
        67        2.0000           -0.4258777             -11.5887 (HOMO)
        68                         -0.3803081             -10.3487 (LUMO)
        69                         -0.3063444              -8.3361
        70                         -0.2957596              -8.0480
        71                         -0.2719096              -7.3990
        72                         -0.2555757              -6.9546
        73                         -0.1991361              -5.4188
        74                         -0.1942467              -5.2857
        75                         -0.1536849              -4.1820
        76                         -0.1422098              -3.8697
        77                         -0.1356190              -3.6904
        78                         -0.1204373              -3.2773
       ...                                ...                  ...
       134                          0.7310628              19.8932
      -------------------------------------------------------------
                  HL-Gap            0.0455696 Eh            1.2400 eV

Wiberg/Mayer (AO) data.
largest (>0.10) Wiberg bond orders for each atom

     #   Z sym  total        # sym  WBO       # sym  WBO       # sym  WBO
 ---------------------------------------------------------------------------
     1   6 C    3.839 --    26 H    0.983    27 H    0.980    28 H    0.979
                             2 O    0.860
     2   8 O    2.241 --     3 C    1.177     1 C    0.860     4 O    0.142
     3   6 C    3.851 --     4 O    1.727     2 O    1.177     5 C    0.770
     4   8 O    2.021 --     3 C    1.727     2 O    0.142
     5   6 C    3.968 --    24 C    1.057     7 N    1.022     6 C    0.957
                             3 C    0.770
     6   6 C    3.979 --    31 H    0.984    30 H    0.983    29 H    0.981
                             5 C    0.957
     7   7 N    3.018 --     8 C    1.592     5 C    1.022
     8   6 C    3.943 --     7 N    1.592    21 N    1.244     9 C    0.980
     9   6 C    3.935 --     8 C    0.980    11 C    0.980    10 C    0.978
                            12 N    0.929
    10   6 C    3.991 --    32 H    0.986    33 H    0.984    34 H    0.981
                             9 C    0.978
    11   6 C    3.990 --    35 H    0.986    36 H    0.983    37 H    0.981
                             9 C    0.980
    12   7 N    3.365 --    13 C    1.275     9 C    0.929    38 H    0.880
                            14 O    0.183
    13   6 C    3.921 --    14 O    1.579    12 N    1.275    15 C    0.985
    14   8 O    1.898 --    13 C    1.579    12 N    0.183
    15   6 C    3.873 --    16 N    1.614    20 O    1.064    13 C    0.985
    16   7 N    3.012 --    15 C    1.614    17 N    1.196
    17   7 N    2.980 --    18 C    1.609    16 N    1.196
    18   6 C    3.872 --    17 N    1.609    20 O    1.082    19 C    1.031
    19   6 C    3.987 --    18 C    1.031    41 H    0.983    40 H    0.964
                            39 H    0.963
    20   8 O    2.328 --    18 C    1.082    15 C    1.064
    21   7 N    3.010 --    22 C    1.312     8 C    1.244    23 O    0.163
                            24 C    0.114
    22   6 C    3.935 --    23 O    1.512    21 N    1.312    24 C    0.989
    23   8 O    1.884 --    22 C    1.512    21 N    0.163
    24   6 C    3.784 --    25 O    1.329     5 C    1.057    22 C    0.989
                            21 N    0.114
    25   8 O    2.252 --    24 C    1.329    42 H    0.746
    26   1 H    1.005 --     1 C    0.983
    27   1 H    1.002 --     1 C    0.980
    28   1 H    1.001 --     1 C    0.979
    29   1 H    0.999 --     6 C    0.981
    30   1 H    1.003 --     6 C    0.983
    31   1 H    1.001 --     6 C    0.984
    32   1 H    1.003 --    10 C    0.986
    33   1 H    1.010 --    10 C    0.984
    34   1 H    1.010 --    10 C    0.981
    35   1 H    1.003 --    11 C    0.986
    36   1 H    1.010 --    11 C    0.983
    37   1 H    1.009 --    11 C    0.981
    38   1 H    0.972 --    12 N    0.880
    39   1 H    0.997 --    19 C    0.963
    40   1 H    0.997 --    19 C    0.964
    41   1 H    0.999 --    19 C    0.983
    42   1 H    0.821 --    25 O    0.746
 ---------------------------------------------------------------------------

           -------------------------------------------------
          | TOTAL ENERGY              -82.954636936668 Eh   |
          | GRADIENT NORM               0.000706319028 Eh/α |
          | HOMO-LUMO GAP               1.240011827985 eV   |
           -------------------------------------------------

 * finished run on 2023/06/20 at 18:18:10.062
