   * xtb version 6.5.1 (579679a) compiled by 'ehlert@majestix' on 2022-07-11
          program call               : /lustre/hpc/kemi/ree/PhD/git/ReactivityQM/dep/xtb-6.5.1/bin/xtb --gfn 1 /lustre/hpc/kemi/ree/PhD/git/ReactivityQM/calculations/R02/reac01prodE02/conf05/R02_reac01prodE02_conf05_gfn1.xyz --opt --vfukui --chrg -1 --uhf 0 --alpb DMSO

   ID    Z sym.   atoms
    1    6 C      1, 3, 4, 6, 8-11, 13, 15, 18, 19, 22, 24
    2    8 O      2, 5, 14, 20, 23, 25
    3    7 N      7, 12, 16, 17, 21
    4    1 H      26-43

      * Solvation model:               ALPB
        Solvent                        DMSO
        Solvent mass                       7.8130E+01 g/mol
          :  Hamiltonian                  GFN1-xTB          :
 * total energy  :   -83.8581666 Eh     change       -0.4533263E-11 Eh
 * total energy  :   -83.8699661 Eh     change       -0.1179952E-01 Eh
 * total energy  :   -83.8754663 Eh     change       -0.5500108E-02 Eh
 * total energy  :   -83.8783954 Eh     change       -0.2929169E-02 Eh
 * total energy  :   -83.8811171 Eh     change       -0.2721696E-02 Eh
 * total energy  :   -83.8837695 Eh     change       -0.2652400E-02 Eh
 * total energy  :   -83.8869475 Eh     change       -0.3178035E-02 Eh
 * total energy  :   -83.8889524 Eh     change       -0.2004861E-02 Eh
 * total energy  :   -83.8899908 Eh     change       -0.1038354E-02 Eh
 * total energy  :   -83.8912284 Eh     change       -0.1237614E-02 Eh
 * total energy  :   -83.8957772 Eh     change       -0.1381628E-04 Eh
 * total energy  :   -83.8957916 Eh     change       -0.1438930E-04 Eh
 * total energy  :   -83.8957989 Eh     change       -0.7328019E-05 Eh
 * total energy  :   -83.8958053 Eh     change       -0.6317167E-05 Eh
 * total energy  :   -83.8958114 Eh     change       -0.6162783E-05 Eh
 * total energy  :   -83.8958187 Eh     change       -0.7238314E-05 Eh
 * total energy  :   -83.8958264 Eh     change       -0.7756323E-05 Eh
 * total energy  :   -83.8958318 Eh     change       -0.5340410E-05 Eh
 * total energy  :   -83.8958353 Eh     change       -0.3522969E-05 Eh
   *** GEOMETRY OPTIMIZATION CONVERGED AFTER 61 ITERATIONS ***

 final structure:
================
43
 xtb: 6.5.1 (579679a)
C           -5.77291917765908        0.93179625530806       -0.00631992652737
O           -4.42345393003292        0.65659096102536        0.31392748477199
C           -3.74291396967325       -0.30029474665007       -0.52952549355590
C           -3.52800079447381        0.29947942529289       -1.93297903571639
O           -4.48802968340066       -1.46823079932337       -0.65402406715201
C           -2.39770179846618       -0.57101373751629        0.15034446108632
N           -1.43174524040554        0.36974251010350       -0.06762670317172
C           -0.26893315824400        0.22706818094626        0.47279569742781
C            0.80279585998869        1.28257781807654        0.30051356345060
C            0.97983089086136        2.03822468737601        1.62679737244691
C            0.41641579749383        2.23968024502506       -0.83085519705738
N            2.05728849324482        0.59083631086516       -0.04355094918406
C            3.23013252066287        1.22287345881631       -0.22009040819678
O            3.42257698625851        2.42297971547764       -0.09363396519896
C            4.33583836101991        0.29643082166795       -0.58672293217639
N            5.57390375307846        0.60127521226141       -0.82609894484521
N            6.21955716649025       -0.56626716753718       -1.10968129703605
C            5.33555548051134       -1.51112294841909       -1.02550635282903
C            5.53638741134009       -2.96062695975529       -1.24102565450927
O            4.12356240019558       -1.03332374871696       -0.69874890682398
N            0.02017413573322       -0.84972663541981        1.27841816402536
C           -0.87170037924326       -1.86435782628882        1.56510395205505
O           -0.51099120616713       -2.79226225627693        2.29295629691573
C           -2.21469082799297       -1.70315956632235        0.94576531822635
O           -3.11520399663230       -2.58387798662757        1.15635528752296
H           -6.32822360238969        0.01470369211614       -0.24119303631569
H           -5.85812212806020        1.62391994020731       -0.85546516739999
H           -6.22421769568771        1.40208911413989        0.87119622270756
H           -2.92359651067379       -0.38907007753120       -2.52056836184802
H           -3.01260259802709        1.25420036983767       -1.85201589917326
H           -4.48572136269222        0.43995015127415       -2.42969725804371
H            1.70804395880597        2.83962263329510        1.51956124514371
H            1.31794989443799        1.35355471683318        2.40292924995153
H            0.02392588557745        2.46739346347552        1.92406716062567
H            1.16854896159898        3.01792466687178       -0.94401372017490
H            0.32524367015908        1.68965615526787       -1.76636766782536
H           -0.54370568908297        2.69947481679754       -0.60018612005743
H            2.01012527754681       -0.39367147924949       -0.25156305108210
H            5.28038840452619       -3.51058664101858       -0.33538570201207
H            6.57462293253284       -3.15034076792369       -1.50158059424215
H            4.88793190529757       -3.31168335346262       -2.04347541719991
H            0.93696690015909       -0.93499278486635        1.68506178034640
H           -4.14529729851545       -2.08743683945657        0.08240857265525

          :  Hamiltonian                  GFN1-xTB          :
         :: total energy             -83.895835275441 Eh    ::
         :: gradient norm              0.000539305291 Eh/a0 ::
         :: HOMO-LUMO gap              1.298058964479 eV    ::
         :: SCC energy               -84.649141553243 Eh    ::
         :: -> Gsolv                  -0.114788974281 Eh    ::
         :: repulsion energy           0.779646938302 Eh    ::

    * Orbital Energies and Occupations

         #    Occupation            Energy/Eh            Energy/eV
      -------------------------------------------------------------
         1        2.0000           -0.8604455             -23.4139
       ...           ...                  ...                  ...
        56        2.0000           -0.4741774             -12.9030
        57        2.0000           -0.4582575             -12.4698
        58        2.0000           -0.4537314             -12.3467
        59        2.0000           -0.4513567             -12.2820
        60        2.0000           -0.4455794             -12.1248
        61        2.0000           -0.4441063             -12.0847
        62        2.0000           -0.4393056             -11.9541
        63        2.0000           -0.4383172             -11.9272
        64        2.0000           -0.4317090             -11.7474
        65        2.0000           -0.4237476             -11.5308
        66        2.0000           -0.4110029             -11.1840
        67        2.0000           -0.3667185              -9.9789
        68        2.0000           -0.3511451              -9.5551 (HOMO)
        69                         -0.3034423              -8.2571 (LUMO)
        70                         -0.2524268              -6.8689
        71                         -0.2451739              -6.6715
        72                         -0.2304634              -6.2712
        73                         -0.1916747              -5.2157
        74                         -0.1395877              -3.7984
        75                         -0.1209499              -3.2912
        76                         -0.1148293              -3.1247
        77                         -0.1135125              -3.0888
        78                         -0.1115312              -3.0349
        79                         -0.1013655              -2.7583
       ...                                ...                  ...
       136                          0.7337549              19.9665
      -------------------------------------------------------------
                  HL-Gap            0.0477028 Eh            1.2981 eV

Wiberg/Mayer (AO) data.
largest (>0.10) Wiberg bond orders for each atom

     #   Z sym  total        # sym  WBO       # sym  WBO       # sym  WBO
 ---------------------------------------------------------------------------
     1   6 C    3.922 --    28 H    0.984    27 H    0.982    26 H    0.979
                             2 O    0.953
     2   8 O    1.979 --     1 C    0.953     3 C    0.887
     3   6 C    3.862 --     5 O    0.993     4 C    0.976     6 C    0.959
                             2 O    0.887
     4   6 C    3.996 --    30 H    0.987    29 H    0.987    31 H    0.985
                             3 C    0.976
     5   8 O    1.883 --     3 C    0.993    43 H    0.730
     6   6 C    3.934 --    24 C    1.384     7 N    1.219     3 C    0.959
                            25 O    0.139
     7   7 N    3.037 --     8 C    1.570     6 C    1.219
     8   6 C    3.932 --     7 N    1.570    21 N    1.118     9 C    0.980
     9   6 C    3.929 --    11 C    0.994    10 C    0.982     8 C    0.980
                            12 N    0.910
    10   6 C    3.990 --    34 H    0.986    33 H    0.985     9 C    0.982
                            32 H    0.980
    11   6 C    3.992 --     9 C    0.994    36 H    0.986    37 H    0.984
                            35 H    0.984
    12   7 N    3.360 --    13 C    1.277     9 C    0.910    38 H    0.896
                            14 O    0.181
    13   6 C    3.920 --    14 O    1.574    12 N    1.277    15 C    0.987
    14   8 O    1.893 --    13 C    1.574    12 N    0.181
    15   6 C    3.869 --    16 N    1.625    20 O    1.047    13 C    0.987
    16   7 N    2.997 --    15 C    1.625    17 N    1.195
    17   7 N    2.981 --    18 C    1.614    16 N    1.195
    18   6 C    3.870 --    17 N    1.614    20 O    1.073    19 C    1.031
    19   6 C    3.987 --    18 C    1.031    40 H    0.983    41 H    0.964
                            39 H    0.963
    20   8 O    2.316 --    18 C    1.073    15 C    1.047
    21   7 N    3.427 --    22 C    1.132     8 C    1.118    42 H    0.900
                            23 O    0.130
    22   6 C    3.885 --    23 O    1.546    21 N    1.132    24 C    1.023
    23   8 O    1.839 --    22 C    1.546    21 N    0.130
    24   6 C    3.956 --     6 C    1.384    25 O    1.359    22 C    1.023
    25   8 O    1.827 --    24 C    1.359    43 H    0.143     6 C    0.139
    26   1 H    1.021 --     1 C    0.979
    27   1 H    1.015 --     1 C    0.982
    28   1 H    1.020 --     1 C    0.984
    29   1 H    1.012 --     4 C    0.987
    30   1 H    1.020 --     4 C    0.987
    31   1 H    1.007 --     4 C    0.985
    32   1 H    1.011 --    10 C    0.980
    33   1 H    1.004 --    10 C    0.985
    34   1 H    1.004 --    10 C    0.986
    35   1 H    1.010 --    11 C    0.984
    36   1 H    1.009 --    11 C    0.986
    37   1 H    1.015 --    11 C    0.984
    38   1 H    0.943 --    12 N    0.896
    39   1 H    0.997 --    19 C    0.963
    40   1 H    0.999 --    19 C    0.983
    41   1 H    0.997 --    19 C    0.964
    42   1 H    0.948 --    21 N    0.900
    43   1 H    0.886 --     5 O    0.730    25 O    0.143
 ---------------------------------------------------------------------------

           -------------------------------------------------
          | TOTAL ENERGY              -83.895835275441 Eh   |
          | GRADIENT NORM               0.000539305291 Eh/α |
          | HOMO-LUMO GAP               1.298058964479 eV   |
           -------------------------------------------------

 * finished run on 2023/06/20 at 14:54:32.002
