   * xtb version 6.5.1 (579679a) compiled by 'ehlert@majestix' on 2022-07-11
          program call               : /lustre/hpc/kemi/ree/PhD/git/ReactivityQM/dep/xtb-6.5.1/bin/xtb --gfn 1 /lustre/hpc/kemi/ree/PhD/git/ReactivityQM/calculations/RaltegravirCLI/reac02prodN11/conf04/RaltegravirCLI_reac02prodN11_conf04_gfn1.xyz --opt --vfukui --chrg 1 --uhf 0 --alpb DMSO

   ID    Z sym.   atoms
    1    6 C      1, 3-6, 9, 10, 13-18, 20-22, 24
    2    7 N      2, 7, 8, 12
    3    8 O      11, 23, 25
    4    9 F      19
    5    1 H      26-47

      * Solvation model:               ALPB
        Solvent                        DMSO
        Solvent mass                       7.8130E+01 g/mol
          :  Hamiltonian                  GFN1-xTB          :
 * total energy  :   -79.4540281 Eh     change       -0.6838263E-10 Eh
 * total energy  :   -79.4618687 Eh     change       -0.7840621E-02 Eh
 * total energy  :   -79.4641714 Eh     change       -0.2302608E-02 Eh
 * total energy  :   -79.4648333 Eh     change       -0.6619417E-03 Eh
 * total energy  :   -79.4656374 Eh     change       -0.8041003E-03 Eh
 * total energy  :   -79.4662528 Eh     change       -0.6153872E-03 Eh
 * total energy  :   -79.4667579 Eh     change       -0.5051501E-03 Eh
 * total energy  :   -79.4671426 Eh     change       -0.3847059E-03 Eh
 * total energy  :   -79.4674365 Eh     change       -0.2939061E-03 Eh
 * total energy  :   -79.4677864 Eh     change       -0.3498072E-03 Eh
 * total energy  :   -79.4744642 Eh     change       -0.7037673E-05 Eh
 * total energy  :   -79.4744714 Eh     change       -0.7183933E-05 Eh
 * total energy  :   -79.4744778 Eh     change       -0.6394602E-05 Eh
 * total energy  :   -79.4744832 Eh     change       -0.5416280E-05 Eh
 * total energy  :   -79.4744888 Eh     change       -0.5550931E-05 Eh
 * total energy  :   -79.4744951 Eh     change       -0.6380082E-05 Eh
 * total energy  :   -79.4745017 Eh     change       -0.6545214E-05 Eh
 * total energy  :   -79.4745073 Eh     change       -0.5622110E-05 Eh
 * total energy  :   -79.4745114 Eh     change       -0.4088382E-05 Eh
   *** GEOMETRY OPTIMIZATION CONVERGED AFTER 66 ITERATIONS ***

 final structure:
================
47
 xtb: 6.5.1 (579679a)
C           -4.23684655566569       -2.22130706194120        1.25887607485711
N           -3.10777887169059       -1.36255592977980        0.88839238963132
C           -3.22520637640911       -0.26135396459000        0.08059207748579
C           -4.55530430556600        0.16110903864609       -0.53035943738403
C           -4.81570196489543       -0.66962382354548       -1.79506606801878
C           -4.48228076076239        1.65297861043156       -0.90449602113530
N           -5.63945250074538       -0.03719236278219        0.41639555169621
N           -2.19929818187789        0.46271220061449       -0.24804419528838
C           -0.95421520122406        0.19229709602532        0.23446831028287
C            0.13864762293219        1.08909212573772       -0.25280085837714
O            0.11054944647398        1.65967142601054       -1.32946483554573
N            1.18551947573861        1.21489176621476        0.60464421152683
C            2.33954413727900        1.99815426315541        0.23418724378140
C            3.59488739389399        1.20688477208276        0.26893499022213
C            4.83674066376826        1.88787006547504        0.35112639833711
C            6.00656984814150        1.20229859102344        0.41634296852769
C            6.02755027330486       -0.26326589934708        0.21417197645038
C            6.46416472994018       -0.49524313211441       -1.26712163024399
F            6.98910859741318       -0.86326474093122        0.98086261057738
C            4.71474568142828       -0.92933367550565        0.36482058564698
C            3.56508144440192       -0.20894470971035        0.30257216364640
C           -0.77126798849174       -0.87156443039274        1.06734177000675
O            0.42386675669630       -1.22768119301394        1.58560693750589
C           -1.88803526135535       -1.71970015322488        1.43599015631822
O           -1.74459014291355       -2.68656547047518        2.17864673404814
H           -4.88973582589442       -2.37292211095195        0.40560113285204
H           -4.79712208904139       -1.75585830114883        2.06828842878389
H           -3.83640297391215       -3.17834170957028        1.59284009008870
H           -3.98616709213668       -0.55103488570150       -2.49108873926107
H           -4.92351512345491       -1.72557034652981       -1.55445248799805
H           -5.73127726167228       -0.32616470183085       -2.27445807638474
H           -4.23275534099180        2.24548068439436       -0.02606177516911
H           -5.44795034165909        1.97526295312872       -1.28918892916798
H           -3.71949377754185        1.81288771750227       -1.66517637181648
H           -5.58118588960683        0.62304897535111        1.17816051278213
H           -6.53575713398376        0.05427752856278       -0.03799073455189
H            1.18644688160412        0.76831399007603        1.50533691724923
H            2.43187415588310        2.88332895857856        0.87353859229261
H            2.17015846530586        2.36142242804039       -0.79217119711619
H            4.83274174636399        2.96948959923322        0.42366092621280
H            6.95939403853332        1.70298412530110        0.53880398953432
H            5.75729552950086       -0.03692049953813       -1.95242836756328
H            6.51304257213888       -1.56766860871409       -1.44103716217957
H            7.45045104715868       -0.05609256511651       -1.39814891228704
H            4.71236807912724       -2.00988291240570        0.44121406115926
H            2.60224274518764       -0.70745830983147        0.34017902435413
H            0.28834962927887       -2.01894441689655        2.14406997362832

          :  Hamiltonian                  GFN1-xTB          :
         :: total energy             -79.474511386550 Eh    ::
         :: gradient norm              0.000317152421 Eh/a0 ::
         :: HOMO-LUMO gap              0.140656090873 eV    ::
         :: SCC energy               -80.356096682796 Eh    ::
         :: -> Gsolv                  -0.104946200986 Eh    ::
         :: repulsion energy           0.911424298868 Eh    ::

    * Orbital Energies and Occupations

         #    Occupation            Energy/Eh            Energy/eV
      -------------------------------------------------------------
         1        2.0000           -0.8934893             -24.3131
       ...           ...                  ...                  ...
        55        2.0000           -0.5189923             -14.1225
        56        2.0000           -0.5178006             -14.0901
        57        2.0000           -0.5120125             -13.9326
        58        2.0000           -0.5090698             -13.8525
        59        2.0000           -0.5038038             -13.7092
        60        2.0000           -0.4958500             -13.4928
        61        2.0000           -0.4833411             -13.1524
        62        2.0000           -0.4765607             -12.9679
        63        2.0000           -0.4654068             -12.6644
        64        2.0000           -0.4622359             -12.5781
        65        2.0000           -0.4478954             -12.1879
        66        1.9997           -0.4322926             -11.7633
        67        1.8766           -0.4263819             -11.6024 (HOMO)
        68        0.1237           -0.4212129             -11.4618 (LUMO)
        69                         -0.3249800              -8.8432
        70                         -0.3224041              -8.7731
        71                         -0.2857705              -7.7762
        72                         -0.2519788              -6.8567
        73                         -0.2459227              -6.6919
        74                         -0.1658759              -4.5137
        75                         -0.1575816              -4.2880
        76                         -0.1544512              -4.2028
        77                         -0.1412373              -3.8433
        78                         -0.1377974              -3.7497
       ...                                ...                  ...
       144                          0.7047552              19.1774
      -------------------------------------------------------------
                  HL-Gap            0.0051690 Eh            0.1407 eV

Wiberg/Mayer (AO) data.
largest (>0.10) Wiberg bond orders for each atom

     #   Z sym  total        # sym  WBO       # sym  WBO       # sym  WBO
 ---------------------------------------------------------------------------
     1   6 C    3.914 --    26 H    0.978    28 H    0.974    27 H    0.974
                             2 N    0.925
     2   7 N    3.517 --     3 C    1.183    24 C    1.131     1 C    0.925
                            25 O    0.132
     3   6 C    3.918 --     8 N    1.552     2 N    1.183     4 C    0.975
     4   6 C    3.951 --     7 N    0.984     5 C    0.981     6 C    0.977
                             3 C    0.975
     5   6 C    3.991 --    29 H    0.985    31 H    0.982     4 C    0.981
                            30 H    0.979
     6   6 C    3.972 --    33 H    0.985    32 H    0.985    34 H    0.980
                             4 C    0.977
     7   7 N    2.935 --     4 C    0.984    35 H    0.930    36 H    0.926
     8   7 N    3.024 --     3 C    1.552     9 C    1.205
     9   6 C    3.963 --    22 C    1.504     8 N    1.205    10 C    0.989
    10   6 C    3.895 --    11 O    1.608    12 N    1.217     9 C    0.989
    11   8 O    1.906 --    10 C    1.608    12 N    0.159
    12   7 N    3.325 --    10 C    1.217    13 C    0.967    37 H    0.885
                            11 O    0.159
    13   6 C    3.954 --    14 C    1.061    12 N    0.967    38 H    0.936
                            39 H    0.901
    14   6 C    3.857 --    21 C    1.279    15 C    1.272    13 C    1.061
    15   6 C    3.987 --    16 C    1.649    14 C    1.272    40 H    0.961
    16   6 C    3.894 --    15 C    1.649    17 C    1.037    41 H    0.961
    17   6 C    3.883 --    16 C    1.037    20 C    1.037    19 F    0.897
                            18 C    0.860
    18   6 C    3.940 --    42 H    0.982    43 H    0.975    44 H    0.974
                            17 C    0.860
    19   9 F    1.005 --    17 C    0.897
    20   6 C    3.890 --    21 C    1.640    17 C    1.037    45 H    0.961
    21   6 C    3.985 --    20 C    1.640    14 C    1.279    46 H    0.955
    22   6 C    3.910 --     9 C    1.504    24 C    1.089    23 O    1.069
    23   8 O    2.062 --    22 C    1.069    47 H    0.797
    24   6 C    3.916 --    25 O    1.548     2 N    1.131    22 C    1.089
    25   8 O    1.894 --    24 C    1.548     2 N    0.132
    26   1 H    1.017 --     1 C    0.978
    27   1 H    1.012 --     1 C    0.974
    28   1 H    1.006 --     1 C    0.974
    29   1 H    1.002 --     5 C    0.985
    30   1 H    1.003 --     5 C    0.979
    31   1 H    0.998 --     5 C    0.982
    32   1 H    1.006 --     6 C    0.985
    33   1 H    1.002 --     6 C    0.985
    34   1 H    1.010 --     6 C    0.980
    35   1 H    0.946 --     7 N    0.930
    36   1 H    0.942 --     7 N    0.926
    37   1 H    0.934 --    12 N    0.885
    38   1 H    0.988 --    13 C    0.936
    39   1 H    0.992 --    13 C    0.901
    40   1 H    0.989 --    15 C    0.961
    41   1 H    0.989 --    16 C    0.961
    42   1 H    0.995 --    18 C    0.982
    43   1 H    0.993 --    18 C    0.975
    44   1 H    0.993 --    18 C    0.974
    45   1 H    0.989 --    20 C    0.961
    46   1 H    1.006 --    21 C    0.955
    47   1 H    0.840 --    23 O    0.797
 ---------------------------------------------------------------------------

           -------------------------------------------------
          | TOTAL ENERGY              -79.474511386550 Eh   |
          | GRADIENT NORM               0.000317152421 Eh/α |
          | HOMO-LUMO GAP               0.140656090873 eV   |
           -------------------------------------------------

 * finished run on 2023/06/20 at 15:31:40.693
