   * xtb version 6.5.1 (579679a) compiled by 'ehlert@majestix' on 2022-07-11
          program call               : /lustre/hpc/kemi/ree/PhD/git/ReactivityQM/dep/xtb-6.5.1/bin/xtb --gfn 1 /lustre/hpc/kemi/ree/PhD/git/ReactivityQM/calculations/R02oxygendeprot/reac01prodE08/conf05/R02oxygendeprot_reac01prodE08_conf05_gfn1.xyz --opt --vfukui --chrg -2 --uhf 0 --alpb DMSO

   ID    Z sym.   atoms
    1    6 C      1, 3, 5, 7-10, 12, 14, 15, 18, 19, 22, 24
    2    8 O      2, 4, 13, 20, 23, 25
    3    7 N      6, 11, 16, 17, 21
    4    1 H      26-42

      * Solvation model:               ALPB
        Solvent                        DMSO
        Solvent mass                       7.8130E+01 g/mol
          :  Hamiltonian                  GFN1-xTB          :
 * total energy  :   -83.6242948 Eh     change       -0.1834323E-08 Eh
 * total energy  :   -83.6377618 Eh     change       -0.1346694E-01 Eh
 * total energy  :   -83.6428751 Eh     change       -0.5113311E-02 Eh
 * total energy  :   -83.6437105 Eh     change       -0.8354293E-03 Eh
 * total energy  :   -83.6442272 Eh     change       -0.5166658E-03 Eh
 * total energy  :   -83.6444150 Eh     change       -0.1878080E-03 Eh
 * total energy  :   -83.6445649 Eh     change       -0.1499359E-03 Eh
 * total energy  :   -83.6446684 Eh     change       -0.1034979E-03 Eh
 * total energy  :   -83.6447665 Eh     change       -0.9806184E-04 Eh
 * total energy  :   -83.6448621 Eh     change       -0.9567812E-04 Eh
 * total energy  :   -83.6476543 Eh     change       -0.1282782E-04 Eh
 * total energy  :   -83.6476685 Eh     change       -0.1411784E-04 Eh
 * total energy  :   -83.6476885 Eh     change       -0.2007430E-04 Eh
 * total energy  :   -83.6477057 Eh     change       -0.1715116E-04 Eh
 * total energy  :   -83.6477145 Eh     change       -0.8787984E-05 Eh
 * total energy  :   -83.6477148 Eh     change       -0.2902445E-06 Eh
 * total energy  :   -83.6477209 Eh     change       -0.6168336E-05 Eh
 * total energy  :   -83.6477271 Eh     change       -0.6164711E-05 Eh
 * total energy  :   -83.6477319 Eh     change       -0.4797367E-05 Eh
   *** GEOMETRY OPTIMIZATION CONVERGED AFTER 66 ITERATIONS ***

 final structure:
================
42
 xtb: 6.5.1 (579679a)
C            5.43019494881517        3.39694412611308        0.18515060369513
O            4.67351954494140        2.44167917455497       -0.54062641173654
C            3.69644485606346        1.80509319447004        0.16115214877752
O            3.49875910127515        2.08639050125476        1.33941604533803
C            2.95606465613326        0.80805146248423       -0.59231599159470
N            1.97673442331333        0.18536880779879        0.16210757647996
C            1.24087109179949       -0.73679226324960       -0.34285790812364
C            0.18347650041424       -1.41290863384331        0.52288573589533
C            0.24830815832796       -2.94144276904570        0.38713356650029
C            0.43809233382445       -1.02474327347765        1.98319701601600
N           -1.15138406412093       -0.91134334115838        0.17906583278721
C           -1.83356878659114       -1.20881062531548       -0.95744948576097
O           -1.33674076229597       -1.80612343614005       -1.91776491782245
C           -3.22052488350142       -0.54459229690677       -1.04472699204152
C           -4.21741999665234       -1.46931392554315       -1.76539606303529
N           -2.96724325853165        0.69370012674560       -1.78835200781753
N           -3.29256552503309        1.70473967220995       -0.93405697766492
C           -3.70826425451370        1.24042739684325        0.18335240885122
C           -4.19544613674310        1.99185201161783        1.37210348222505
O           -3.70224743626528       -0.17177640998519        0.24112376477907
N            1.39159490243353       -1.13828106650515       -1.65031537923307
C            2.31380192514824       -0.61432605846723       -2.50995259372319
O            2.39210202318748       -1.03827686090657       -3.66464180354741
C            3.19602040666351        0.47949945301105       -1.95126735307054
O            4.04824979921072        1.00024687675483       -2.69933618920957
H            5.94438596420952        2.92551244767055        1.02884963391563
H            6.16388955119770        3.81542032057544       -0.50272675714532
H            4.78737133603042        4.19561534738984        0.56957096461817
H            0.01127244611899       -3.26339616408649       -0.62480210038209
H           -0.46557206293233       -3.39878411625593        1.06994370019884
H            1.24884262163438       -3.28769893513453        0.64191453826980
H            1.42946128198559       -1.35843989475106        2.28577021121898
H            0.38624936126270        0.05743413448052        2.10284447510834
H           -0.30245638943728       -1.49153505845642        2.62952108461170
H           -1.72118104653099       -0.64575454598824        0.97030327217283
H           -4.42004887100823       -2.34931467932373       -1.15770430166907
H           -5.14724479707191       -0.93167894607328       -1.93730325423493
H           -3.79584354652648       -1.77685778275499       -2.72076327355357
H           -4.10221445532361        3.06026125165601        1.18399289430407
H           -5.24275497558411        1.76208724667115        1.57956837214735
H           -3.61862060182636        1.73756758681484        2.26442801334100
H            0.78563361648772       -1.86569805574751       -2.01191057987888

          :  Hamiltonian                  GFN1-xTB          :
         :: total energy             -83.647731895148 Eh    ::
         :: gradient norm              0.000981545872 Eh/a0 ::
         :: HOMO-LUMO gap              0.385416358211 eV    ::
         :: SCC energy               -84.385768819529 Eh    ::
         :: -> Gsolv                  -0.278706333501 Eh    ::
         :: repulsion energy           0.764605149227 Eh    ::

    * Orbital Energies and Occupations

         #    Occupation            Energy/Eh            Energy/eV
      -------------------------------------------------------------
         1        2.0000           -0.7937729             -21.5997
       ...           ...                  ...                  ...
        56        2.0000           -0.4478484             -12.1866
        57        2.0000           -0.4457916             -12.1306
        58        2.0000           -0.4311630             -11.7325
        59        2.0000           -0.4274294             -11.6309
        60        2.0000           -0.4119005             -11.2084
        61        2.0000           -0.4044058             -11.0044
        62        2.0000           -0.4018844             -10.9358
        63        2.0000           -0.3993774             -10.8676
        64        2.0000           -0.3785912             -10.3020
        65        2.0000           -0.3697368             -10.0611
        66        2.0000           -0.3571878              -9.7196
        67        2.0000           -0.3498214              -9.5191
        68        1.9988           -0.2761981              -7.5157 (HOMO)
        69        0.0012           -0.2620343              -7.1303 (LUMO)
        70                         -0.2277782              -6.1982
        71                         -0.2082518              -5.6668
        72                         -0.1890373              -5.1440
        73                         -0.1623242              -4.4171
        74                         -0.1204114              -3.2766
        75                         -0.1092784              -2.9736
        76                         -0.1075935              -2.9278
        77                         -0.1047929              -2.8516
        78                         -0.0999750              -2.7205
        79                         -0.0889776              -2.4212
       ...                                ...                  ...
       134                          0.7568627              20.5953
      -------------------------------------------------------------
                  HL-Gap            0.0141638 Eh            0.3854 eV

Wiberg/Mayer (AO) data.
largest (>0.10) Wiberg bond orders for each atom

     #   Z sym  total        # sym  WBO       # sym  WBO       # sym  WBO
 ---------------------------------------------------------------------------
     1   6 C    3.902 --    27 H    0.987    26 H    0.980    28 H    0.980
                             2 O    0.929
     2   8 O    2.154 --     3 C    1.039     1 C    0.929     4 O    0.107
     3   6 C    3.848 --     4 O    1.569     5 C    1.123     2 O    1.039
     4   8 O    1.845 --     3 C    1.569     2 O    0.107
     5   6 C    3.918 --    24 C    1.275     6 N    1.150     3 C    1.123
                            25 O    0.128
     6   7 N    3.025 --     7 C    1.630     5 C    1.150
     7   6 C    3.932 --     6 N    1.630    21 N    1.108     8 C    0.970
     8   6 C    3.953 --    10 C    1.001     9 C    0.988     7 C    0.970
                            11 N    0.930
     9   6 C    3.992 --     8 C    0.988    31 H    0.987    30 H    0.985
                            29 H    0.978
    10   6 C    3.995 --     8 C    1.001    34 H    0.986    32 H    0.985
                            33 H    0.983
    11   7 N    3.296 --    12 C    1.223     8 C    0.930    35 H    0.902
                            13 O    0.139
    12   6 C    3.867 --    13 O    1.540    11 N    1.223    14 C    0.921
    13   8 O    1.870 --    12 C    1.540    11 N    0.139
    14   6 C    3.897 --    16 N    0.978    15 C    0.972    20 O    0.922
                            12 C    0.921
    15   6 C    3.996 --    36 H    0.988    37 H    0.987    38 H    0.986
                            14 C    0.972
    16   7 N    2.621 --    17 N    1.191    14 C    0.978    18 C    0.206
    17   7 N    3.019 --    18 C    1.669    16 N    1.191
    18   6 C    3.862 --    17 N    1.669    19 C    1.017    20 O    0.918
                            16 N    0.206
    19   6 C    3.996 --    18 C    1.017    39 H    0.987    41 H    0.978
                            40 H    0.976
    20   8 O    2.063 --    14 C    0.922    18 C    0.918
    21   7 N    3.448 --    22 C    1.181     7 C    1.108    42 H    0.879
                            23 O    0.136
    22   6 C    3.885 --    23 O    1.560    21 N    1.181    24 C    0.972
    23   8 O    1.840 --    22 C    1.560    21 N    0.136
    24   6 C    3.943 --    25 O    1.508     5 C    1.275    22 C    0.972
    25   8 O    1.812 --    24 C    1.508     5 C    0.128
    26   1 H    1.015 --     1 C    0.980
    27   1 H    1.016 --     1 C    0.987
    28   1 H    1.015 --     1 C    0.980
    29   1 H    1.015 --     9 C    0.978
    30   1 H    1.004 --     9 C    0.985
    31   1 H    1.004 --     9 C    0.987
    32   1 H    1.011 --    10 C    0.985
    33   1 H    1.016 --    10 C    0.983
    34   1 H    1.002 --    10 C    0.986
    35   1 H    0.961 --    11 N    0.902
    36   1 H    1.010 --    15 C    0.988
    37   1 H    1.020 --    15 C    0.987
    38   1 H    1.019 --    15 C    0.986
    39   1 H    1.009 --    19 C    0.987
    40   1 H    1.010 --    19 C    0.976
    41   1 H    1.009 --    19 C    0.978
    42   1 H    0.965 --    21 N    0.879
 ---------------------------------------------------------------------------

           -------------------------------------------------
          | TOTAL ENERGY              -83.647731895148 Eh   |
          | GRADIENT NORM               0.000981545872 Eh/α |
          | HOMO-LUMO GAP               0.385416358211 eV   |
           -------------------------------------------------

 * finished run on 2023/06/21 at 17:10:23.596
