   * xtb version 6.5.1 (579679a) compiled by 'ehlert@majestix' on 2022-07-11
          program call               : /lustre/hpc/kemi/ree/PhD/git/ReactivityQM/dep/xtb-6.5.1/bin/xtb --gfn 1 /lustre/hpc/kemi/ree/PhD/git/ReactivityQM/calculations/R03/reac02prodE04/conf17/R03_reac02prodE04_conf17_gfn1.xyz --opt --vfukui --chrg -1 --uhf 0 --alpb DMSO

   ID    Z sym.   atoms
    1    6 C      1, 3, 5, 6, 8-11, 13, 15, 18, 19, 22, 23, 25
    2    8 O      2, 4, 14, 20, 24, 26
    3    7 N      7, 12, 16, 17, 21
    4    1 H      27-46

      * Solvation model:               ALPB
        Solvent                        DMSO
        Solvent mass                       7.8130E+01 g/mol
          :  Hamiltonian                  GFN1-xTB          :
 * total energy  :   -87.0218064 Eh     change       -0.3509228E-09 Eh
 * total energy  :   -87.0373994 Eh     change       -0.1559302E-01 Eh
 * total energy  :   -87.0442993 Eh     change       -0.6899854E-02 Eh
 * total energy  :   -87.0461596 Eh     change       -0.1860341E-02 Eh
 * total energy  :   -87.0474274 Eh     change       -0.1267828E-02 Eh
 * total energy  :   -87.0478879 Eh     change       -0.4604848E-03 Eh
 * total energy  :   -87.0481830 Eh     change       -0.2951050E-03 Eh
 * total energy  :   -87.0484198 Eh     change       -0.2368048E-03 Eh
 * total energy  :   -87.0486345 Eh     change       -0.2146451E-03 Eh
 * total energy  :   -87.0488877 Eh     change       -0.2531850E-03 Eh
 * total energy  :   -87.0515162 Eh     change       -0.1415563E-04 Eh
 * total energy  :   -87.0515227 Eh     change       -0.6468590E-05 Eh
 * total energy  :   -87.0515327 Eh     change       -0.1004622E-04 Eh
 * total energy  :   -87.0515399 Eh     change       -0.7167087E-05 Eh
 * total energy  :   -87.0515486 Eh     change       -0.8722998E-05 Eh
 * total energy  :   -87.0515577 Eh     change       -0.9077426E-05 Eh
 * total energy  :   -87.0515639 Eh     change       -0.6232915E-05 Eh
 * total energy  :   -87.0515695 Eh     change       -0.5576892E-05 Eh
 * total energy  :   -87.0515735 Eh     change       -0.4029127E-05 Eh
   *** GEOMETRY OPTIMIZATION CONVERGED AFTER 59 ITERATIONS ***

 final structure:
================
46
 xtb: 6.5.1 (579679a)
C           -4.33687387256541       -2.69154889091927       -1.27698654326662
O           -3.49759690709383       -1.60013159896142       -1.64816863185719
C           -2.62776318355360       -1.16710382340152       -0.71360250752986
O           -2.53905763698335       -1.69696862991037        0.37834414748290
C           -1.91268083195655        0.12863404954859       -1.12796644392958
C           -1.56876557283311        0.13840316222475       -2.62115194097038
N           -0.68825494629584        0.24820455498948       -0.35300314204218
C           -0.71105479858383        0.75665426919211        0.83255046914466
C            0.62464805901596        0.63402806325328        1.59604201143211
C            1.10582216960492        1.94125012659954        2.23793093149166
C            0.53406947597313       -0.51417043874280        2.61385067933515
N            1.61028417452336        0.24951107373302        0.57694826632266
C            2.89126969324426       -0.05849656115877        0.79227969427889
O            3.49023936175619        0.00584210941090        1.85788431212309
C            3.54530139115319       -0.50195259680007       -0.47479407589965
N            2.96582443344358       -0.64362512009843       -1.62788498330494
N            3.92219709706861       -1.07950098832495       -2.49914571552122
C            5.02207620979182       -1.17685455120501       -1.81977539103562
C            6.34900024082424       -1.60971173737009       -2.31091316283655
O            4.85084553234218       -0.82756195784400       -0.53528998105554
N           -1.81767085403328        1.31305008966434        1.38619053556095
C           -1.92026651107148        1.87346014530293        2.72535027866580
C           -2.90132676561872        1.76550654232446        0.49520137364369
O           -3.69377496239996        2.64620949048388        0.93795845082556
C           -2.88940855847567        1.19650863083588       -0.73663797693506
O           -3.86572393700047        1.54889089191064       -1.69933432702483
H           -3.73304473667799       -3.56277493342530       -1.00695691033155
H           -4.95649151365718       -2.92400257401997       -2.14137264103834
H           -4.96857322779909       -2.41865488571961       -0.42654784878025
H           -0.91257351860642       -0.69797838594611       -2.85913859411459
H           -1.05733251518613        1.06858980490182       -2.86632810257848
H           -2.47533947028643        0.06429279451921       -3.21949062261820
H            0.58082517763205        2.14590362123536        3.16606548860754
H            0.96129250974003        2.77435492743152        1.55153571222806
H            2.16613520898860        1.86100473650529        2.47175735807531
H            0.26657189447917       -1.43656954771565        2.09809913621787
H           -0.21763889123354       -0.30664049536260        3.37103540357913
H            1.49432540204212       -0.64727689403969        3.10952468236403
H            1.20991198465642        0.09635429009616       -0.35219524761233
H            6.68377346214854       -2.48781661355937       -1.75990948046460
H            6.28562340629489       -1.84722539121305       -3.36963137584340
H            7.08106920399966       -0.81760811012561       -2.15828133022146
H           -1.54918538485429        2.90167600577895        2.75523610820898
H           -2.97621318437926        1.88749079864356        3.00422240490544
H           -1.38389576445076        1.26601132385928        3.44866386117776
H           -4.44059754308889        2.20234022340029       -1.27489932882601

          :  Hamiltonian                  GFN1-xTB          :
         :: total energy             -87.051573524866 Eh    ::
         :: gradient norm              0.000740106457 Eh/a0 ::
         :: HOMO-LUMO gap              0.392100800459 eV    ::
         :: SCC energy               -87.849485509058 Eh    ::
         :: -> Gsolv                  -0.113711282187 Eh    ::
         :: repulsion energy           0.827940256093 Eh    ::

    * Orbital Energies and Occupations

         #    Occupation            Energy/Eh            Energy/eV
      -------------------------------------------------------------
         1        2.0000           -0.8566008             -23.3093
       ...           ...                  ...                  ...
        59        2.0000           -0.4728565             -12.8671
        60        2.0000           -0.4672066             -12.7133
        61        2.0000           -0.4628017             -12.5935
        62        2.0000           -0.4581101             -12.4658
        63        2.0000           -0.4526721             -12.3178
        64        2.0000           -0.4511996             -12.2778
        65        2.0000           -0.4408911             -11.9973
        66        2.0000           -0.4382158             -11.9245
        67        2.0000           -0.4295112             -11.6876
        68        2.0000           -0.3975726             -10.8185
        69        2.0000           -0.3867655             -10.5244
        70        2.0000           -0.3747113             -10.1964
        71        1.9990           -0.3124358              -8.5018 (HOMO)
        72        0.0010           -0.2980264              -8.1097 (LUMO)
        73                         -0.2508998              -6.8273
        74                         -0.2370157              -6.4495
        75                         -0.2218654              -6.0373
        76                         -0.1867484              -5.0817
        77                         -0.1407353              -3.8296
        78                         -0.1330173              -3.6196
        79                         -0.1294875              -3.5235
        80                         -0.1244731              -3.3871
        81                         -0.1128527              -3.0709
        82                         -0.1007002              -2.7402
       ...                                ...                  ...
       144                          0.7316878              19.9102
      -------------------------------------------------------------
                  HL-Gap            0.0144094 Eh            0.3921 eV

Wiberg/Mayer (AO) data.
largest (>0.10) Wiberg bond orders for each atom

     #   Z sym  total        # sym  WBO       # sym  WBO       # sym  WBO
 ---------------------------------------------------------------------------
     1   6 C    3.889 --    28 H    0.987    27 H    0.981    29 H    0.981
                             2 O    0.911
     2   8 O    2.175 --     3 C    1.073     1 C    0.911     4 O    0.117
     3   6 C    3.812 --     4 O    1.635     2 O    1.073     5 C    0.916
     4   8 O    1.896 --     3 C    1.635     2 O    0.117
     5   6 C    3.965 --     6 C    0.989     7 N    0.971    25 C    0.957
                             3 C    0.916
     6   6 C    3.996 --     5 C    0.989    30 H    0.988    31 H    0.987
                            32 H    0.985
     7   7 N    3.009 --     8 C    1.626     5 C    0.971    21 N    0.171
     8   6 C    3.949 --     7 N    1.626    21 N    1.220     9 C    0.960
     9   6 C    3.930 --    10 C    0.991    11 C    0.982     8 C    0.960
                            12 N    0.923
    10   6 C    3.993 --     9 C    0.991    34 H    0.986    33 H    0.982
                            35 H    0.979
    11   6 C    3.993 --    36 H    0.985     9 C    0.982    38 H    0.981
                            37 H    0.978
    12   7 N    3.383 --    13 C    1.304     9 C    0.923    39 H    0.859
                            14 O    0.189
    13   6 C    3.924 --    14 O    1.559    12 N    1.304    15 C    0.979
    14   8 O    1.885 --    13 C    1.559    12 N    0.189
    15   6 C    3.869 --    16 N    1.619    20 O    1.061    13 C    0.979
    16   7 N    3.010 --    15 C    1.619    17 N    1.191
    17   7 N    2.980 --    18 C    1.615    16 N    1.191
    18   6 C    3.874 --    17 N    1.615    20 O    1.080    19 C    1.030
    19   6 C    3.988 --    18 C    1.030    41 H    0.983    42 H    0.965
                            40 H    0.965
    20   8 O    2.324 --    18 C    1.080    15 C    1.061
    21   7 N    3.372 --     8 C    1.220    22 C    0.957    23 C    0.886
                             7 N    0.171
    22   6 C    3.958 --    43 H    0.979    45 H    0.979    44 H    0.978
                            21 N    0.957
    23   6 C    3.918 --    25 C    1.521    24 O    1.360    21 N    0.886
    24   8 O    1.727 --    23 C    1.360    25 C    0.169
    25   6 C    3.801 --    23 C    1.521     5 C    0.957    26 O    0.947
                            24 O    0.169
    26   8 O    1.920 --    25 C    0.947    46 H    0.856
    27   1 H    1.012 --     1 C    0.981
    28   1 H    1.014 --     1 C    0.987
    29   1 H    1.010 --     1 C    0.981
    30   1 H    1.010 --     6 C    0.988
    31   1 H    1.012 --     6 C    0.987
    32   1 H    1.016 --     6 C    0.985
    33   1 H    1.006 --    10 C    0.982
    34   1 H    1.004 --    10 C    0.986
    35   1 H    1.011 --    10 C    0.979
    36   1 H    1.007 --    11 C    0.985
    37   1 H    1.007 --    11 C    0.978
    38   1 H    1.010 --    11 C    0.981
    39   1 H    0.984 --    12 N    0.859
    40   1 H    0.998 --    19 C    0.965
    41   1 H    0.999 --    19 C    0.983
    42   1 H    0.998 --    19 C    0.965
    43   1 H    1.012 --    22 C    0.979
    44   1 H    1.023 --    22 C    0.978
    45   1 H    1.013 --    22 C    0.979
    46   1 H    0.890 --    26 O    0.856
 ---------------------------------------------------------------------------

           -------------------------------------------------
          | TOTAL ENERGY              -87.051573524866 Eh   |
          | GRADIENT NORM               0.000740106457 Eh/α |
          | HOMO-LUMO GAP               0.392100800459 eV   |
           -------------------------------------------------

 * finished run on 2023/06/20 at 15:17:45.675
