   * xtb version 6.5.1 (579679a) compiled by 'ehlert@majestix' on 2022-07-11
          program call               : /lustre/hpc/kemi/ree/PhD/git/ReactivityQM/dep/xtb-6.5.1/bin/xtb --gfn 1 /lustre/hpc/kemi/ree/PhD/git/ReactivityQM/calculations/RaltegravirCLI/reac02prodN09/conf09/RaltegravirCLI_reac02prodN09_conf09_gfn1.xyz --opt --vfukui --chrg 1 --uhf 0 --alpb DMSO

   ID    Z sym.   atoms
    1    6 C      1-4, 6-9, 11, 13, 15-18, 21, 22, 24
    2    9 F      5
    3    7 N      10, 14, 19, 20
    4    8 O      12, 23, 25
    5    1 H      26-47

      * Solvation model:               ALPB
        Solvent                        DMSO
        Solvent mass                       7.8130E+01 g/mol
          :  Hamiltonian                  GFN1-xTB          :
 * total energy  :   -79.4717959 Eh     change       -0.2309264E-10 Eh
 * total energy  :   -79.4804030 Eh     change       -0.8607086E-02 Eh
 * total energy  :   -79.4828464 Eh     change       -0.2443416E-02 Eh
 * total energy  :   -79.4832803 Eh     change       -0.4339339E-03 Eh
 * total energy  :   -79.4836604 Eh     change       -0.3800889E-03 Eh
 * total energy  :   -79.4838304 Eh     change       -0.1699483E-03 Eh
 * total energy  :   -79.4839862 Eh     change       -0.1558537E-03 Eh
 * total energy  :   -79.4841229 Eh     change       -0.1367040E-03 Eh
 * total energy  :   -79.4842332 Eh     change       -0.1103079E-03 Eh
 * total energy  :   -79.4843367 Eh     change       -0.1034270E-03 Eh
 * total energy  :   -79.4859919 Eh     change       -0.7227777E-04 Eh
 * total energy  :   -79.4860343 Eh     change       -0.4242227E-04 Eh
 * total energy  :   -79.4860586 Eh     change       -0.2435786E-04 Eh
 * total energy  :   -79.4860737 Eh     change       -0.1500974E-04 Eh
 * total energy  :   -79.4860885 Eh     change       -0.1481546E-04 Eh
 * total energy  :   -79.4861022 Eh     change       -0.1370508E-04 Eh
 * total energy  :   -79.4861124 Eh     change       -0.1018041E-04 Eh
 * total energy  :   -79.4861244 Eh     change       -0.1202033E-04 Eh
 * total energy  :   -79.4861286 Eh     change       -0.4239245E-05 Eh
   *** GEOMETRY OPTIMIZATION CONVERGED AFTER 72 ITERATIONS ***

 final structure:
================
47
 xtb: 6.5.1 (579679a)
C            5.21281069140610        1.62372813189373       -1.43376766826939
C            4.36882335107485        1.73634135354574       -0.13900224172317
C            5.21421446590046        1.77882876352037        1.06967357901285
C            4.87633499775844        1.05954894965704        2.17265362689831
F            5.64110357853636        1.11615042837975        3.25477612389557
C            3.74454396210240        0.23039131350211        2.21117016406822
C            2.92678073119529        0.13082858010155        1.09404598601613
C            3.21034384876025        0.81779467704255       -0.07308415175756
C            2.35805128587612        0.64806326457188       -1.28894600382063
N            1.04252723406273        0.14390235459993       -0.98048375889114
C            0.71892415962123       -1.14794994367866       -1.21566274523071
O            1.52550795025436       -1.95981498111003       -1.66390521128875
C           -0.67805040281603       -1.49322721298813       -0.88693131562473
N           -1.46050018045487       -0.48888298145480       -0.39695376642032
C           -2.70306166906753       -0.70958543246130       -0.08707332829432
C           -3.47332634764756        0.50359990055786        0.41790501505904
C           -4.21785487164091        1.14235636909744       -0.76365907537059
C           -2.47549590187099        1.52161973173126        0.99690263324347
N           -4.42170916703033        0.12899706439065        1.45553376223402
N           -3.27893237474298       -1.93707716384256       -0.26025501079291
C           -4.68721607932130       -2.19900737022462        0.05773129352837
C           -2.56069133428261       -3.04681729202348       -0.71575569931183
O           -3.08873191449454       -4.14393393007074       -0.82277502926908
C           -1.16837766946017       -2.76173472252816       -1.05040512843688
O           -0.44188560820577       -3.78725411511273       -1.50618851310402
H            5.64883798474753        0.62898738807578       -1.49314092175908
H            6.00619197600025        2.36776481222581       -1.41085336205779
H            4.58741725348097        1.80059044198303       -2.30494128096964
H            3.91788393928689        2.74626380397755       -0.19868811482617
H            6.09650646685242        2.40671319881588        1.05689484513533
H            3.52775145720077       -0.33291053401347        3.11112766905645
H            2.05723229066126       -0.51506502671790        1.13041714275481
H            2.84497499863041       -0.09433870005264       -1.94014535025689
H            2.27543195752471        1.58453733331600       -1.84480396266947
H            0.34541819429286        0.76797548784382       -0.60261829128119
H           -4.96257925227640        0.46241786375135       -1.17520481658204
H           -3.50562249929082        1.40030167807300       -1.54645070055362
H           -4.71849944591746        2.05040513149281       -0.43015078308583
H           -1.88550573440521        1.06020073887127        1.78631463765563
H           -3.01991243703825        2.36931354325708        1.40853112156611
H           -1.80160008503195        1.87473176138255        0.21897751232704
H           -5.04893584293690        0.89914825082773        1.63887340298795
H           -3.92759393998215       -0.08982396344209        2.30957232710241
H           -5.30229685508865       -1.36272241012834       -0.25719874521260
H           -4.79779811439495       -2.34637848473929        1.13120489041634
H           -4.99621632668912       -3.10157802114334       -0.47060492381478
H            0.47477927885074       -3.48340203077969       -1.69438483227377

          :  Hamiltonian                  GFN1-xTB          :
         :: total energy             -79.486128619469 Eh    ::
         :: gradient norm              0.000646755888 Eh/a0 ::
         :: HOMO-LUMO gap              0.163234324422 eV    ::
         :: SCC energy               -80.366619048324 Eh    ::
         :: -> Gsolv                  -0.118477473005 Eh    ::
         :: repulsion energy           0.910830036244 Eh    ::

    * Orbital Energies and Occupations

         #    Occupation            Energy/Eh            Energy/eV
      -------------------------------------------------------------
         1        2.0000           -0.9145584             -24.8864
       ...           ...                  ...                  ...
        55        2.0000           -0.5208951             -14.1743
        56        2.0000           -0.5165397             -14.0558
        57        2.0000           -0.5092470             -13.8573
        58        2.0000           -0.5019475             -13.6587
        59        2.0000           -0.5003114             -13.6142
        60        2.0000           -0.4940827             -13.4447
        61        2.0000           -0.4834305             -13.1548
        62        2.0000           -0.4749049             -12.9228
        63        2.0000           -0.4648622             -12.6495
        64        2.0000           -0.4607160             -12.5367
        65        2.0000           -0.4439688             -12.0810
        66        1.9991           -0.4270966             -11.6219
        67        1.9188           -0.4227827             -11.5045 (HOMO)
        68        0.0821           -0.4167839             -11.3413 (LUMO)
        69                         -0.3252844              -8.8514
        70                         -0.3230731              -8.7913
        71                         -0.2842458              -7.7347
        72                         -0.2413563              -6.5676
        73                         -0.2406090              -6.5473
        74                         -0.1657173              -4.5094
        75                         -0.1578412              -4.2951
        76                         -0.1524823              -4.1493
        77                         -0.1466938              -3.9917
        78                         -0.1400523              -3.8110
       ...                                ...                  ...
       144                          0.7101573              19.3244
      -------------------------------------------------------------
                  HL-Gap            0.0059988 Eh            0.1632 eV

Wiberg/Mayer (AO) data.
largest (>0.10) Wiberg bond orders for each atom

     #   Z sym  total        # sym  WBO       # sym  WBO       # sym  WBO
 ---------------------------------------------------------------------------
     1   6 C    3.964 --    28 H    0.982    26 H    0.982    27 H    0.981
                             2 C    0.925
     2   6 C    3.986 --     3 C    1.081     8 C    1.078     1 C    0.925
                            29 H    0.833
     3   6 C    3.930 --     4 C    1.543     2 C    1.081    30 H    0.959
     4   6 C    3.883 --     3 C    1.543     6 C    1.284     5 F    0.966
     5   9 F    1.108 --     4 C    0.966
     6   6 C    3.912 --     7 C    1.430     4 C    1.284    31 H    0.960
     7   6 C    3.984 --     8 C    1.461     6 C    1.430    32 H    0.958
     8   6 C    3.896 --     7 C    1.461     2 C    1.078     9 C    1.041
     9   6 C    3.955 --     8 C    1.041    10 N    0.967    34 H    0.951
                            33 H    0.911
    10   7 N    3.335 --    11 C    1.235     9 C    0.967    35 H    0.884
                            12 O    0.155
    11   6 C    3.898 --    12 O    1.548    10 N    1.235    13 C    1.026
    12   8 O    1.915 --    11 C    1.548    10 N    0.155
    13   6 C    3.960 --    24 C    1.476    14 N    1.190    11 C    1.026
    14   7 N    3.041 --    15 C    1.543    13 C    1.190
    15   6 C    3.919 --    14 N    1.543    20 N    1.192    16 C    0.975
    16   6 C    3.958 --    19 N    0.985    18 C    0.982    17 C    0.980
                            15 C    0.975
    17   6 C    3.991 --    37 H    0.985    38 H    0.982    16 C    0.980
                            36 H    0.980
    18   6 C    3.981 --    39 H    0.985    40 H    0.984    16 C    0.982
                            41 H    0.981
    19   7 N    2.951 --    16 C    0.985    43 H    0.934    42 H    0.931
    20   7 N    3.509 --    15 C    1.192    22 C    1.107    21 C    0.928
                            23 O    0.134
    21   6 C    3.918 --    44 H    0.978    45 H    0.975    46 H    0.975
                            20 N    0.928
    22   6 C    3.912 --    23 O    1.582    20 N    1.107    24 C    1.073
    23   8 O    1.896 --    22 C    1.582    20 N    0.134
    24   6 C    3.916 --    13 C    1.476    25 O    1.116    22 C    1.073
    25   8 O    2.081 --    24 C    1.116    47 H    0.782
    26   1 H    0.994 --     1 C    0.982
    27   1 H    0.993 --     1 C    0.981
    28   1 H    0.995 --     1 C    0.982
    29   1 H    0.969 --     2 C    0.833
    30   1 H    0.985 --     3 C    0.959
    31   1 H    0.987 --     6 C    0.960
    32   1 H    0.995 --     7 C    0.958
    33   1 H    0.997 --     9 C    0.911
    34   1 H    0.992 --     9 C    0.951
    35   1 H    0.949 --    10 N    0.884
    36   1 H    1.003 --    17 C    0.980
    37   1 H    1.003 --    17 C    0.985
    38   1 H    0.998 --    17 C    0.982
    39   1 H    1.006 --    18 C    0.985
    40   1 H    1.001 --    18 C    0.984
    41   1 H    1.012 --    18 C    0.981
    42   1 H    0.946 --    19 N    0.931
    43   1 H    0.950 --    19 N    0.934
    44   1 H    1.019 --    21 C    0.978
    45   1 H    1.013 --    21 C    0.975
    46   1 H    1.008 --    21 C    0.975
    47   1 H    0.855 --    25 O    0.782
 ---------------------------------------------------------------------------

           -------------------------------------------------
          | TOTAL ENERGY              -79.486128619469 Eh   |
          | GRADIENT NORM               0.000646755888 Eh/α |
          | HOMO-LUMO GAP               0.163234324422 eV   |
           -------------------------------------------------

 * finished run on 2023/06/20 at 15:28:37.331
