   * xtb version 6.5.1 (579679a) compiled by 'ehlert@majestix' on 2022-07-11
          program call               : /lustre/hpc/kemi/ree/PhD/git/ReactivityQM/dep/xtb-6.5.1/bin/xtb --gfn 1 /lustre/hpc/kemi/ree/PhD/git/ReactivityQM/calculations/RaltegravirCLI/reac02prodE09/conf19/RaltegravirCLI_reac02prodE09_conf19_gfn1.xyz --opt --vfukui --chrg -1 --uhf 0 --alpb DMSO

   ID    Z sym.   atoms
    1    6 C      1, 3-6, 9, 10, 13-18, 20-22, 24
    2    7 N      2, 7, 8, 12
    3    8 O      11, 23, 25
    4    9 F      19
    5    1 H      26-47

      * Solvation model:               ALPB
        Solvent                        DMSO
        Solvent mass                       7.8130E+01 g/mol
          :  Hamiltonian                  GFN1-xTB          :
 * total energy  :   -80.1868842 Eh     change       -0.3562661E-10 Eh
 * total energy  :   -80.1967957 Eh     change       -0.9911493E-02 Eh
 * total energy  :   -80.2005350 Eh     change       -0.3739379E-02 Eh
 * total energy  :   -80.2017591 Eh     change       -0.1224068E-02 Eh
 * total energy  :   -80.2031316 Eh     change       -0.1372440E-02 Eh
 * total energy  :   -80.2045107 Eh     change       -0.1379184E-02 Eh
 * total energy  :   -80.2067378 Eh     change       -0.2227023E-02 Eh
 * total energy  :   -80.2099498 Eh     change       -0.3212042E-02 Eh
 * total energy  :   -80.2126023 Eh     change       -0.2652533E-02 Eh
 * total energy  :   -80.2147297 Eh     change       -0.2127407E-02 Eh
 * total energy  :   -80.2322606 Eh     change       -0.2523313E-04 Eh
 * total energy  :   -80.2323104 Eh     change       -0.4979092E-04 Eh
 * total energy  :   -80.2323352 Eh     change       -0.2486173E-04 Eh
 * total energy  :   -80.2323498 Eh     change       -0.1458555E-04 Eh
 * total energy  :   -80.2323739 Eh     change       -0.2412105E-04 Eh
 * total energy  :   -80.2323862 Eh     change       -0.1226545E-04 Eh
 * total energy  :   -80.2324067 Eh     change       -0.2054623E-04 Eh
 * total energy  :   -80.2324130 Eh     change       -0.6216968E-05 Eh
 * total energy  :   -80.2324168 Eh     change       -0.3858310E-05 Eh
   *** GEOMETRY OPTIMIZATION CONVERGED AFTER 95 ITERATIONS ***

 final structure:
================
47
 xtb: 6.5.1 (579679a)
C           -4.25982653056796        2.25035126259689       -1.33727236739404
N           -3.15082995559960        1.35760684394627       -0.99705465985725
C           -3.27646211747574        0.27769193063680       -0.15862479123874
C           -4.59219528618125       -0.07420782658617        0.52563611785218
C           -4.75965647917343        0.81141783285071        1.76971465363860
C           -4.55382769727561       -1.55025289553658        0.95703064243764
N           -5.71736081237704        0.14263319417429       -0.37863415826366
N           -2.26667168686466       -0.47874681108746        0.13650654296456
C           -1.02889410157305       -0.26857289284447       -0.40162230946187
C            0.03583804283206       -1.21647309186412        0.07870030565895
O           -0.05936737065230       -1.80159714047747        1.15039621164931
N            1.07678019486952       -1.37393289997187       -0.75934392874696
C            2.21650950986123       -2.20689856702678       -0.41140178254083
C            3.42395393828593       -1.39260268227824        0.00961836352065
C            4.62371127872487       -2.05361137877527        0.26925443224899
C            5.74932596368841       -1.34456771408332        0.65804009234675
C            5.70842015897290        0.04344948736849        0.79838937572153
C            6.93554120147928        0.81150873318489        1.18490966023218
F            8.54390391594900        1.44186873083529       -1.31303348952341
C            4.50417785224380        0.69727421431048        0.54240239183926
C            3.37535257888283       -0.01022465531268        0.15383759302050
C           -0.84302572656882        0.77173020157418       -1.26300747548107
O            0.34164731127724        1.07750323748646       -1.83923601584585
C           -1.94350091252841        1.65012828960580       -1.60621536502148
O           -1.80008556061190        2.59468122815518       -2.38216045809371
H           -4.89722680584635        1.77703392621063       -2.08177679349445
H           -4.84814900003772        2.47483191737528       -0.45376151788582
H           -3.84138230064931        3.17050234414540       -1.74495022119848
H           -5.65143875041200        0.50624864515429        2.31554582411827
H           -4.86525285916443        1.85936102570523        1.49503637600853
H           -3.89347626909181        0.70434957896795        2.42282637419098
H           -3.76369512351072       -1.71404916976103        1.68932193154254
H           -4.37015888335792       -2.18798853075727        0.09352793384633
H           -5.51160576686724       -1.82032164925408        1.39757890062368
H           -5.74814082001958       -0.59703908187033       -1.06809576395447
H           -6.57863209015923        0.10371319951534        0.14678731713012
H            1.10139764296377       -0.89094274321287       -1.64121255164930
H            1.91037873901147       -2.87171456554077        0.40510604607855
H            2.46933191091448       -2.82902958248589       -1.27669235909296
H            4.67504461408053       -3.13243516474728        0.16754839783410
H            6.67048523328656       -1.88221379229516        0.86041371876392
H            7.56807313666777        0.22609249896039        1.85258484005957
H            7.52179615802619        1.04958929340180        0.28145509370785
H            6.67233732305357        1.74850460935961        1.67562079259661
H            4.44041237435472        1.77543053188251        0.65106722902545
H            2.45127456301483        0.52278927794093       -0.04196607798104
H            0.20516826412163        1.85113180033432       -2.41794307179504

          :  Hamiltonian                  GFN1-xTB          :
         :: total energy             -80.232416816026 Eh    ::
         :: gradient norm              0.000636085986 Eh/a0 ::
         :: HOMO-LUMO gap              0.695871916837 eV    ::
         :: SCC energy               -81.126516675202 Eh    ::
         :: -> Gsolv                  -0.160615220731 Eh    ::
         :: repulsion energy           0.923442620576 Eh    ::

    * Orbital Energies and Occupations

         #    Occupation            Energy/Eh            Energy/eV
      -------------------------------------------------------------
         1        2.0000           -0.8235155             -22.4090
       ...           ...                  ...                  ...
        56        2.0000           -0.4620471             -12.5729
        57        2.0000           -0.4572513             -12.4424
        58        2.0000           -0.4504367             -12.2570
        59        2.0000           -0.4455019             -12.1227
        60        2.0000           -0.4314060             -11.7392
        61        2.0000           -0.4301061             -11.7038
        62        2.0000           -0.4242490             -11.5444
        63        2.0000           -0.4177476             -11.3675
        64        2.0000           -0.4122213             -11.2171
        65        2.0000           -0.4074277             -11.0867
        66        2.0000           -0.3319215              -9.0320
        67        2.0000           -0.3319187              -9.0320
        68        2.0000           -0.3313645              -9.0169 (HOMO)
        69        0.0000           -0.3057917              -8.3210 (LUMO)
        70                         -0.2713725              -7.3844
        71                         -0.2460186              -6.6945
        72                         -0.2419017              -6.5825
        73                         -0.2245475              -6.1102
        74                         -0.1492288              -4.0607
        75                         -0.1313507              -3.5742
        76                         -0.1231401              -3.3508
        77                         -0.1213575              -3.3023
        78                         -0.1160146              -3.1569
        79                         -0.1142826              -3.1098
       ...                                ...                  ...
       144                          0.7172526              19.5174
      -------------------------------------------------------------
                  HL-Gap            0.0255728 Eh            0.6959 eV

Wiberg/Mayer (AO) data.
largest (>0.10) Wiberg bond orders for each atom

     #   Z sym  total        # sym  WBO       # sym  WBO       # sym  WBO
 ---------------------------------------------------------------------------
     1   6 C    3.923 --    27 H    0.978    28 H    0.976    26 H    0.976
                             2 N    0.929
     2   7 N    3.514 --     3 C    1.173    24 C    1.134     1 C    0.929
                            25 O    0.132
     3   6 C    3.923 --     8 N    1.562     2 N    1.173     4 C    0.976
     4   6 C    3.966 --     6 C    0.989     7 N    0.984     5 C    0.982
                             3 C    0.976
     5   6 C    3.994 --    31 H    0.985    29 H    0.983     4 C    0.982
                            30 H    0.980
     6   6 C    3.995 --     4 C    0.989    34 H    0.986    33 H    0.985
                            32 H    0.983
     7   7 N    2.977 --     4 C    0.984    35 H    0.941    36 H    0.939
     8   7 N    3.029 --     3 C    1.562     9 C    1.200
     9   6 C    3.964 --    22 C    1.512     8 N    1.200    10 C    0.981
    10   6 C    3.908 --    11 O    1.576    12 N    1.271     9 C    0.981
    11   8 O    1.872 --    10 C    1.576    12 N    0.174
    12   7 N    3.360 --    10 C    1.271    13 C    0.947    37 H    0.896
                            11 O    0.174
    13   6 C    3.944 --    14 C    0.992    39 H    0.969    38 H    0.964
                            12 N    0.947
    14   6 C    3.985 --    21 C    1.420    15 C    1.405    13 C    0.992
                            17 C    0.105
    15   6 C    3.995 --    16 C    1.458    14 C    1.405    40 H    0.974
                            20 C    0.108
    16   6 C    3.995 --    15 C    1.458    17 C    1.399    41 H    0.973
                            21 C    0.107
    17   6 C    3.987 --    20 C    1.410    16 C    1.399    18 C    1.032
                            14 C    0.105
    18   6 C    3.988 --    17 C    1.032    44 H    0.984    42 H    0.983
                            43 H    0.926
    19   9 F    0.101
    20   6 C    3.995 --    21 C    1.446    17 C    1.410    45 H    0.973
                            15 C    0.108
    21   6 C    3.995 --    20 C    1.446    14 C    1.420    46 H    0.971
                            16 C    0.107
    22   6 C    3.917 --     9 C    1.512    24 C    1.096    23 O    1.065
    23   8 O    2.059 --    22 C    1.065    47 H    0.805
    24   6 C    3.917 --    25 O    1.534     2 N    1.134    22 C    1.096
    25   8 O    1.884 --    24 C    1.534     2 N    0.132
    26   1 H    1.019 --     1 C    0.976
    27   1 H    1.021 --     1 C    0.978
    28   1 H    1.010 --     1 C    0.976
    29   1 H    1.000 --     5 C    0.983
    30   1 H    1.005 --     5 C    0.980
    31   1 H    1.004 --     5 C    0.985
    32   1 H    1.015 --     6 C    0.983
    33   1 H    1.008 --     6 C    0.985
    34   1 H    1.004 --     6 C    0.986
    35   1 H    0.957 --     7 N    0.941
    36   1 H    0.954 --     7 N    0.939
    37   1 H    0.948 --    12 N    0.896
    38   1 H    1.015 --    13 C    0.964
    39   1 H    1.007 --    13 C    0.969
    40   1 H    1.001 --    15 C    0.974
    41   1 H    1.003 --    16 C    0.973
    42   1 H    1.006 --    18 C    0.983
    43   1 H    1.038 --    18 C    0.926
    44   1 H    1.006 --    18 C    0.984
    45   1 H    1.003 --    20 C    0.973
    46   1 H    1.011 --    21 C    0.971
    47   1 H    0.849 --    23 O    0.805
 ---------------------------------------------------------------------------

           -------------------------------------------------
          | TOTAL ENERGY              -80.232416816026 Eh   |
          | GRADIENT NORM               0.000636085986 Eh/α |
          | HOMO-LUMO GAP               0.695871916837 eV   |
           -------------------------------------------------

 * finished run on 2023/06/20 at 15:09:51.070
