   * xtb version 6.5.1 (579679a) compiled by 'ehlert@majestix' on 2022-07-11
          program call               : /lustre/hpc/kemi/ree/PhD/git/ReactivityQM/dep/xtb-6.5.1/bin/xtb --gfn 1 /lustre/hpc/kemi/ree/PhD/git/ReactivityQM/calculations/RaltegravirCLI/reac02prodE03/conf10/RaltegravirCLI_reac02prodE03_conf10_gfn1.xyz --opt --vfukui --chrg -1 --uhf 0 --alpb DMSO

   ID    Z sym.   atoms
    1    6 C      1, 3, 5, 7, 8, 11-15, 17, 18, 20-24
    2    7 N      2, 10, 19, 25
    3    8 O      4, 6, 9
    4    9 F      16
    5    1 H      26-47

      * Solvation model:               ALPB
        Solvent                        DMSO
        Solvent mass                       7.8130E+01 g/mol
          :  Hamiltonian                  GFN1-xTB          :
 * total energy  :   -80.1243916 Eh     change       -0.1364299E-08 Eh
 * total energy  :   -80.1375939 Eh     change       -0.1320234E-01 Eh
 * total energy  :   -80.1443849 Eh     change       -0.6790974E-02 Eh
 * total energy  :   -80.1467986 Eh     change       -0.2413694E-02 Eh
 * total energy  :   -80.1481723 Eh     change       -0.1373671E-02 Eh
 * total energy  :   -80.1491101 Eh     change       -0.9378518E-03 Eh
 * total energy  :   -80.1495723 Eh     change       -0.4622097E-03 Eh
 * total energy  :   -80.1501019 Eh     change       -0.5295652E-03 Eh
 * total energy  :   -80.1503796 Eh     change       -0.2776926E-03 Eh
 * total energy  :   -80.1505808 Eh     change       -0.2011980E-03 Eh
 * total energy  :   -80.1555614 Eh     change       -0.8646482E-04 Eh
 * total energy  :   -80.1556004 Eh     change       -0.3897916E-04 Eh
 * total energy  :   -80.1556416 Eh     change       -0.4117178E-04 Eh
 * total energy  :   -80.1556742 Eh     change       -0.3265066E-04 Eh
 * total energy  :   -80.1556917 Eh     change       -0.1749004E-04 Eh
 * total energy  :   -80.1557033 Eh     change       -0.1157914E-04 Eh
 * total energy  :   -80.1557102 Eh     change       -0.6902683E-05 Eh
 * total energy  :   -80.1557181 Eh     change       -0.7884112E-05 Eh
 * total energy  :   -80.1557210 Eh     change       -0.2953996E-05 Eh
   *** GEOMETRY OPTIMIZATION CONVERGED AFTER 48 ITERATIONS ***

 final structure:
================
47
 xtb: 6.5.1 (579679a)
C           -2.20300060269276       -0.26342365197448        2.37788012779646
N           -1.65393384829719       -0.50535344745565        1.05346520042313
C           -1.33548425364936       -1.99296025612035        0.84923595889038
O           -1.91833104195450       -2.79747143202087        1.63377547249450
C           -0.44543806733421       -2.17123830920300       -0.14378897820117
O           -0.06666196994465       -3.48275576844673       -0.54127264944106
C           -0.07116114455798       -1.04130960353409       -0.99617790358005
C            1.12595624565965       -0.80398092773925       -1.64676993205581
O            1.40688032678397        0.19147743856580       -2.38426427698426
N            2.11301991438374       -1.84228669647308       -1.50320061319430
C            3.49806892073854       -1.39600012989836       -1.61230694167043
C            3.91870243119464       -0.60043265068063       -0.39327206552640
C            3.68020169376473        0.77251331623957       -0.32867559178941
C            4.01499388108832        1.50046281718690        0.80408451853142
C            4.58923040232321        0.82929695399997        1.86852563691259
F            4.92086174058038        1.52936165255486        2.97346676329922
C            4.84491319911575       -0.52897854520994        1.84277917535273
C            4.50209747569001       -1.23993886258838        0.69976664976726
N           -1.13259490247939       -0.06280341385551       -1.10215524396106
C           -1.35839024682664        0.41853353359476       -2.46815106736606
C           -1.86674971237755        0.25318730332853       -0.04243921845132
C           -2.93508591814253        1.36421359102711       -0.12106803158122
C           -3.19162927972354        2.16915455129434        1.16584983822094
C           -4.25309794447760        0.70597184714946       -0.55964508550620
N           -2.53694415227325        2.35804921244137       -1.12514007690964
H           -1.87465669636469        0.70065968962563        2.76044983836217
H           -3.29386985540916       -0.32473825971317        2.38979963536367
H           -1.81975475869294       -1.04181172270519        3.04150816274931
H           -0.44130471412261       -4.08584274721785        0.11425188637893
H            1.97359885659805       -2.37964120165576       -0.65137511462380
H            4.13431039840305       -2.28123756130331       -1.71730673260979
H            3.59718750445538       -0.78511153491905       -2.51660731287497
H            3.22801548858223        1.27790757040640       -1.17601234565550
H            3.84003350560275        2.56695543219593        0.86392871745706
H            5.30410843995950       -1.01458793157285        2.69390702494280
H            4.70263727774758       -2.30493681433018        0.66036868520806
H           -0.97771806152706       -0.33363329900707       -3.16085023869356
H           -0.82515492208932        1.35374567606802       -2.64014756047563
H           -2.41765959114914        0.56323337624059       -2.66265608588526
H           -3.79728023938006        1.62900481354044        1.88829053147611
H           -2.25877452222066        2.48807167708875        1.62696496643965
H           -3.74883741911012        3.06363597174266        0.88636791141146
H           -4.55383688435628       -0.04706986613031        0.16830571354720
H           -4.15202697891580        0.23069709722029       -1.53464298709335
H           -5.03583462850068        1.46051259056805       -0.62214619561227
H           -3.35182511226715        2.89867694854373       -1.37567813986457
H           -1.87778223383548        3.00222057312800       -0.70581102543245

          :  Hamiltonian                  GFN1-xTB          :
         :: total energy             -80.155721020275 Eh    ::
         :: gradient norm              0.000549759678 Eh/a0 ::
         :: HOMO-LUMO gap              0.706675153664 eV    ::
         :: SCC energy               -81.013506039768 Eh    ::
         :: -> Gsolv                  -0.118356787092 Eh    ::
         :: repulsion energy           0.889685014729 Eh    ::

    * Orbital Energies and Occupations

         #    Occupation            Energy/Eh            Energy/eV
      -------------------------------------------------------------
         1        2.0000           -0.8508296             -23.1523
       ...           ...                  ...                  ...
        56        2.0000           -0.4586806             -12.4813
        57        2.0000           -0.4555733             -12.3968
        58        2.0000           -0.4538002             -12.3485
        59        2.0000           -0.4417028             -12.0193
        60        2.0000           -0.4349935             -11.8368
        61        2.0000           -0.4201032             -11.4316
        62        2.0000           -0.4050131             -11.0210
        63        2.0000           -0.3965570             -10.7909
        64        2.0000           -0.3896263             -10.6023
        65        2.0000           -0.3795558             -10.3282
        66        2.0000           -0.3670989              -9.9893
        67        2.0000           -0.3482881              -9.4774
        68        2.0000           -0.2830302              -7.7016 (HOMO)
        69        0.0000           -0.2570604              -6.9950 (LUMO)
        70                         -0.2499351              -6.8011
        71                         -0.2483548              -6.7581
        72                         -0.1560300              -4.2458
        73                         -0.1285980              -3.4993
        74                         -0.1241796              -3.3791
        75                         -0.1222017              -3.3253
        76                         -0.1101527              -2.9974
        77                         -0.1073432              -2.9210
        78                         -0.1000504              -2.7225
        79                         -0.0971985              -2.6449
       ...                                ...                  ...
       144                          0.7569270              20.5970
      -------------------------------------------------------------
                  HL-Gap            0.0259698 Eh            0.7067 eV

Wiberg/Mayer (AO) data.
largest (>0.10) Wiberg bond orders for each atom

     #   Z sym  total        # sym  WBO       # sym  WBO       # sym  WBO
 ---------------------------------------------------------------------------
     1   6 C    3.958 --    26 H    0.982    27 H    0.976    28 H    0.976
                             2 N    0.962
     2   7 N    3.358 --    21 C    1.288     1 C    0.962     3 C    0.777
                            19 N    0.144
     3   6 C    3.893 --     5 C    1.583     4 O    1.351     2 N    0.777
     4   8 O    1.727 --     3 C    1.351     5 C    0.180
     5   6 C    3.822 --     3 C    1.583     7 C    1.044     6 O    0.930
                             4 O    0.180
     6   8 O    1.921 --     5 C    0.930    29 H    0.865
     7   6 C    3.760 --     8 C    1.433     5 C    1.044    19 N    0.931
                             9 O    0.140
     8   6 C    3.928 --     7 C    1.433     9 O    1.354    10 N    0.991
     9   8 O    1.725 --     8 C    1.354     7 C    0.140
    10   7 N    3.105 --     8 C    0.991    11 C    0.971    30 H    0.935
    11   6 C    3.977 --    12 C    0.995    31 H    0.979    32 H    0.973
                            10 N    0.971
    12   6 C    3.985 --    18 C    1.416    13 C    1.409    11 C    0.995
    13   6 C    3.991 --    14 C    1.446    12 C    1.409    33 H    0.967
                            17 C    0.110
    14   6 C    3.992 --    13 C    1.446    15 C    1.400    34 H    0.971
                            18 C    0.109
    15   6 C    3.853 --    17 C    1.404    14 C    1.400    16 F    0.911
    16   9 F    1.035 --    15 C    0.911
    17   6 C    3.991 --    18 C    1.440    15 C    1.404    35 H    0.971
                            13 C    0.110
    18   6 C    3.994 --    17 C    1.440    12 C    1.416    36 H    0.973
                            14 C    0.109
    19   7 N    3.536 --    21 C    1.419    20 C    0.941     7 C    0.931
                             2 N    0.144
    20   6 C    3.949 --    37 H    0.983    39 H    0.980    38 H    0.976
                            19 N    0.941
    21   6 C    3.931 --    19 N    1.419     2 N    1.288    22 C    0.964
    22   6 C    3.966 --    23 C    0.992    24 C    0.985    25 N    0.982
                            21 C    0.964
    23   6 C    3.994 --    22 C    0.992    41 H    0.982    42 H    0.982
                            40 H    0.979
    24   6 C    3.994 --    22 C    0.985    43 H    0.984    45 H    0.983
                            44 H    0.980
    25   7 N    2.980 --    22 C    0.982    46 H    0.945    47 H    0.945
    26   1 H    1.013 --     1 C    0.982
    27   1 H    1.010 --     1 C    0.976
    28   1 H    1.024 --     1 C    0.976
    29   1 H    0.895 --     6 O    0.865
    30   1 H    0.984 --    10 N    0.935
    31   1 H    1.013 --    11 C    0.979
    32   1 H    1.027 --    11 C    0.973
    33   1 H    1.024 --    13 C    0.967
    34   1 H    1.001 --    14 C    0.971
    35   1 H    1.000 --    17 C    0.971
    36   1 H    1.002 --    18 C    0.973
    37   1 H    1.022 --    20 C    0.983
    38   1 H    1.044 --    20 C    0.976
    39   1 H    1.027 --    20 C    0.980
    40   1 H    1.007 --    23 C    0.979
    41   1 H    1.005 --    23 C    0.982
    42   1 H    1.005 --    23 C    0.982
    43   1 H    1.004 --    24 C    0.984
    44   1 H    1.006 --    24 C    0.980
    45   1 H    1.000 --    24 C    0.983
    46   1 H    0.960 --    25 N    0.945
    47   1 H    0.961 --    25 N    0.945
 ---------------------------------------------------------------------------

           -------------------------------------------------
          | TOTAL ENERGY              -80.155721020275 Eh   |
          | GRADIENT NORM               0.000549759678 Eh/α |
          | HOMO-LUMO GAP               0.706675153664 eV   |
           -------------------------------------------------

 * finished run on 2023/06/20 at 14:59:32.838
