   * xtb version 6.5.1 (579679a) compiled by 'ehlert@majestix' on 2022-07-11
          program call               : /lustre/hpc/kemi/ree/PhD/git/ReactivityQM/dep/xtb-6.5.1/bin/xtb --gfn 1 /lustre/hpc/kemi/ree/PhD/git/ReactivityQM/calculations/RaltegravirCLI/reac02prodN08/conf08/RaltegravirCLI_reac02prodN08_conf08_gfn1.xyz --opt --vfukui --chrg 1 --uhf 0 --alpb DMSO

   ID    Z sym.   atoms
    1    6 C      1, 3-6, 9, 10, 13-18, 20-22, 24
    2    7 N      2, 7, 8, 12
    3    8 O      11, 23, 25
    4    9 F      19
    5    1 H      26-47

      * Solvation model:               ALPB
        Solvent                        DMSO
        Solvent mass                       7.8130E+01 g/mol
          :  Hamiltonian                  GFN1-xTB          :
 * total energy  :   -79.4710980 Eh     change       -0.7782575E-09 Eh
 * total energy  :   -79.4802756 Eh     change       -0.9177578E-02 Eh
 * total energy  :   -79.4829037 Eh     change       -0.2628170E-02 Eh
 * total energy  :   -79.4832401 Eh     change       -0.3363420E-03 Eh
 * total energy  :   -79.4835223 Eh     change       -0.2822692E-03 Eh
 * total energy  :   -79.4836443 Eh     change       -0.1219305E-03 Eh
 * total energy  :   -79.4837989 Eh     change       -0.1546541E-03 Eh
 * total energy  :   -79.4839325 Eh     change       -0.1335723E-03 Eh
 * total energy  :   -79.4840488 Eh     change       -0.1163052E-03 Eh
 * total energy  :   -79.4841484 Eh     change       -0.9957500E-04 Eh
 * total energy  :   -79.4842514 Eh     change       -0.8916707E-05 Eh
 * total energy  :   -79.4842602 Eh     change       -0.8797140E-05 Eh
 * total energy  :   -79.4842683 Eh     change       -0.8057288E-05 Eh
 * total energy  :   -79.4842769 Eh     change       -0.8584762E-05 Eh
 * total energy  :   -79.4842843 Eh     change       -0.7401757E-05 Eh
 * total energy  :   -79.4842898 Eh     change       -0.5537882E-05 Eh
 * total energy  :   -79.4842948 Eh     change       -0.5002009E-05 Eh
 * total energy  :   -79.4842999 Eh     change       -0.5070434E-05 Eh
 * total energy  :   -79.4843029 Eh     change       -0.2999661E-05 Eh
   *** GEOMETRY OPTIMIZATION CONVERGED AFTER 22 ITERATIONS ***

 final structure:
================
47
 xtb: 6.5.1 (579679a)
C           -3.99009802114770        1.58312827634339       -2.12522910001981
N           -2.81968613712378        0.97573321223204       -1.48291508735768
C           -2.89434096845672        0.17434756761842       -0.37144403389891
C           -4.21600582206237       -0.17732052746350        0.29913769219297
C           -4.84781705656011       -1.35667579325315       -0.45615471402759
C           -3.94331940650105       -0.59123739535548        1.75614918996751
N           -5.12645941142224        0.95924162901524        0.27794211805972
N           -1.84016927137241       -0.37516423970367        0.14807694141086
C           -0.59512887622417       -0.17310458362868       -0.37075798097309
C            0.50068447636889       -0.85492414549073        0.36852895812250
O            0.37542274865711       -1.30976481500502        1.48907205851387
N            1.68881380355450       -0.95905406472745       -0.31993020327030
C            2.84927662608621       -1.45121648121597        0.31255941201852
C            3.74294557159887       -0.22938888049161        0.92974028375817
C            2.83637455572976        0.52344548380604        1.92306226350506
C            4.86424829258149       -0.89592459866013        1.60206621508438
C            6.13265560696246       -0.87598308006209        1.09888236929255
C            6.38367039671680       -0.13204184433749       -0.06060765875769
F            7.60173095308772       -0.11320366477028       -0.53682530348588
C            5.39627102122074        0.60909140445167       -0.72164756741993
C            4.12592982775733        0.59185613609878       -0.22486176665407
C           -0.44447005360527        0.65900914446224       -1.44257755819102
O            0.73977507050991        0.97398345139690       -2.00286348657063
C           -1.60163890417728        1.29155682317045       -2.05182537213328
O           -1.48273871063162        2.04144389936667       -3.01651786841125
H           -4.81032180912125        0.87312938196051       -2.15319592964124
H           -3.70887623952154        1.86594582977993       -3.13938202792005
H           -4.29495504633297        2.46721062325066       -1.56761626396636
H           -4.14991873901668       -2.19275195332158       -0.48447943750049
H           -5.10167714838633       -1.07610125143241       -1.47689901365735
H           -5.75631803679222       -1.67234457634994        0.05478498792593
H           -3.42812543472413        0.21149745578650        2.28145130469694
H           -3.32309304558747       -1.48599605084934        1.78775566087356
H           -4.88897485689095       -0.79310239205933        2.25615836486970
H           -6.04425426029588        0.66265961075131        0.57952166153635
H           -4.80015876954528        1.67023985786178        0.91849275358775
H            1.78294024051900       -0.55428870837246       -1.23755134564087
H            3.47938160521988       -1.98230259576497       -0.39722281334650
H            2.57120715480504       -2.08623883535655        1.15537326782094
H            2.01291394653516        0.98808816548734        1.38528692966794
H            2.44040851329376       -0.16604339147516        2.66658913120522
H            3.42041004242072        1.29613887123872        2.41872926141088
H            4.64669972105630       -1.44599045383947        2.51058914565136
H            6.94820359821105       -1.39746320128814        1.58458892558317
H            5.66052799770239        1.19069574562014       -1.59601434043452
H            3.33907788555091        1.15850270023935       -0.71061264880236
H            0.56897536936218        1.58068325434146       -2.75227837466854

          :  Hamiltonian                  GFN1-xTB          :
         :: total energy             -79.484302893543 Eh    ::
         :: gradient norm              0.000303689224 Eh/a0 ::
         :: HOMO-LUMO gap              0.223725019395 eV    ::
         :: SCC energy               -80.368369435336 Eh    ::
         :: -> Gsolv                  -0.103205476680 Eh    ::
         :: repulsion energy           0.915300659809 Eh    ::

    * Orbital Energies and Occupations

         #    Occupation            Energy/Eh            Energy/eV
      -------------------------------------------------------------
         1        2.0000           -0.9366668             -25.4880
       ...           ...                  ...                  ...
        55        2.0000           -0.5187556             -14.1161
        56        2.0000           -0.5154363             -14.0257
        57        2.0000           -0.5139124             -13.9843
        58        2.0000           -0.5070679             -13.7980
        59        2.0000           -0.5001792             -13.6106
        60        2.0000           -0.4930439             -13.4164
        61        2.0000           -0.4883157             -13.2877
        62        2.0000           -0.4774867             -12.9931
        63        2.0000           -0.4721439             -12.8477
        64        2.0000           -0.4625896             -12.5877
        65        2.0000           -0.4496188             -12.2348
        66        2.0000           -0.4338022             -11.8044
        67        1.9739           -0.4193083             -11.4100 (HOMO)
        68        0.0261           -0.4110866             -11.1862 (LUMO)
        69                         -0.3296604              -8.9705
        70                         -0.3283213              -8.9341
        71                         -0.2861679              -7.7870
        72                         -0.2515422              -6.8448
        73                         -0.2426386              -6.6025
        74                         -0.1655971              -4.5061
        75                         -0.1526266              -4.1532
        76                         -0.1469244              -3.9980
        77                         -0.1370419              -3.7291
        78                         -0.1364717              -3.7136
       ...                                ...                  ...
       144                          0.7065254              19.2255
      -------------------------------------------------------------
                  HL-Gap            0.0082217 Eh            0.2237 eV

Wiberg/Mayer (AO) data.
largest (>0.10) Wiberg bond orders for each atom

     #   Z sym  total        # sym  WBO       # sym  WBO       # sym  WBO
 ---------------------------------------------------------------------------
     1   6 C    3.916 --    26 H    0.978    27 H    0.976    28 H    0.975
                             2 N    0.923
     2   7 N    3.521 --     3 C    1.177    24 C    1.140     1 C    0.923
                            25 O    0.135
     3   6 C    3.916 --     8 N    1.557     2 N    1.177     4 C    0.977
     4   6 C    3.962 --     7 N    0.986     6 C    0.985     5 C    0.979
                             3 C    0.977
     5   6 C    3.992 --    29 H    0.985    31 H    0.982    30 H    0.980
                             4 C    0.979
     6   6 C    3.989 --    34 H    0.985     4 C    0.985    32 H    0.985
                            33 H    0.982
     7   7 N    2.966 --     4 C    0.986    36 H    0.938    35 H    0.935
     8   7 N    3.028 --     3 C    1.557     9 C    1.199
     9   6 C    3.965 --    22 C    1.493     8 N    1.199    10 C    1.010
    10   6 C    3.887 --    11 O    1.631    12 N    1.148     9 C    1.010
    11   8 O    1.922 --    10 C    1.631    12 N    0.131
    12   7 N    3.371 --    10 C    1.148    13 C    1.049    37 H    0.877
                            11 O    0.131
    13   6 C    3.928 --    12 N    1.049    38 H    0.976    39 H    0.963
                            14 C    0.757
    14   6 C    3.980 --    16 C    1.104    21 C    1.104    15 C    0.939
                            13 C    0.757
    15   6 C    3.970 --    42 H    0.981    41 H    0.980    40 H    0.980
                            14 C    0.939
    16   6 C    3.938 --    17 C    1.591    14 C    1.104    43 H    0.964
    17   6 C    3.983 --    16 C    1.591    18 C    1.299    44 H    0.957
    18   6 C    3.818 --    17 C    1.299    20 C    1.298    19 F    1.023
    19   9 F    1.175 --    18 C    1.023
    20   6 C    3.984 --    21 C    1.593    18 C    1.298    45 H    0.957
    21   6 C    3.942 --    20 C    1.593    14 C    1.104    46 H    0.962
    22   6 C    3.909 --     9 C    1.493    24 C    1.082    23 O    1.078
    23   8 O    2.070 --    22 C    1.078    47 H    0.791
    24   6 C    3.918 --    25 O    1.549     2 N    1.140    22 C    1.082
    25   8 O    1.896 --    24 C    1.549     2 N    0.135
    26   1 H    1.020 --     1 C    0.978
    27   1 H    1.007 --     1 C    0.976
    28   1 H    1.015 --     1 C    0.975
    29   1 H    1.003 --     5 C    0.985
    30   1 H    1.004 --     5 C    0.980
    31   1 H    0.999 --     5 C    0.982
    32   1 H    1.006 --     6 C    0.985
    33   1 H    1.013 --     6 C    0.982
    34   1 H    1.003 --     6 C    0.985
    35   1 H    0.950 --     7 N    0.935
    36   1 H    0.953 --     7 N    0.938
    37   1 H    0.934 --    12 N    0.877
    38   1 H    0.999 --    13 C    0.976
    39   1 H    1.003 --    13 C    0.963
    40   1 H    0.999 --    15 C    0.980
    41   1 H    1.001 --    15 C    0.980
    42   1 H    0.997 --    15 C    0.981
    43   1 H    0.990 --    16 C    0.964
    44   1 H    0.986 --    17 C    0.957
    45   1 H    0.986 --    20 C    0.957
    46   1 H    0.997 --    21 C    0.962
    47   1 H    0.837 --    23 O    0.791
 ---------------------------------------------------------------------------

           -------------------------------------------------
          | TOTAL ENERGY              -79.484302893543 Eh   |
          | GRADIENT NORM               0.000303689224 Eh/α |
          | HOMO-LUMO GAP               0.223725019395 eV   |
           -------------------------------------------------

 * finished run on 2023/06/20 at 15:27:07.724
