   * xtb version 6.5.1 (579679a) compiled by 'ehlert@majestix' on 2022-07-11
          program call               : /lustre/hpc/kemi/ree/PhD/git/ReactivityQM/dep/xtb-6.5.1/bin/xtb --gfn 1 /lustre/hpc/kemi/ree/PhD/git/ReactivityQM/calculations/RaltegravirCLI/reac02prodN07/conf03/RaltegravirCLI_reac02prodN07_conf03_gfn1.xyz --opt --vfukui --chrg 1 --uhf 0 --alpb DMSO

   ID    Z sym.   atoms
    1    6 C      1, 3-6, 9-11, 14-18, 20-22, 24
    2    7 N      2, 7, 8, 13
    3    8 O      12, 23, 25
    4    9 F      19
    5    1 H      26-47

      * Solvation model:               ALPB
        Solvent                        DMSO
        Solvent mass                       7.8130E+01 g/mol
          :  Hamiltonian                  GFN1-xTB          :
 * total energy  :   -79.3927511 Eh     change       -0.1469829E-09 Eh
 * total energy  :   -79.4078644 Eh     change       -0.1511332E-01 Eh
 * total energy  :   -79.4151846 Eh     change       -0.7320185E-02 Eh
 * total energy  :   -79.4166116 Eh     change       -0.1427019E-02 Eh
 * total energy  :   -79.4178399 Eh     change       -0.1228307E-02 Eh
 * total energy  :   -79.4184871 Eh     change       -0.6472341E-03 Eh
 * total energy  :   -79.4190025 Eh     change       -0.5153928E-03 Eh
 * total energy  :   -79.4194184 Eh     change       -0.4159118E-03 Eh
 * total energy  :   -79.4198108 Eh     change       -0.3924071E-03 Eh
 * total energy  :   -79.4202310 Eh     change       -0.4202013E-03 Eh
 * total energy  :   -79.4262159 Eh     change       -0.1407712E-04 Eh
 * total energy  :   -79.4262284 Eh     change       -0.1256269E-04 Eh
 * total energy  :   -79.4262400 Eh     change       -0.1155221E-04 Eh
 * total energy  :   -79.4262519 Eh     change       -0.1193529E-04 Eh
 * total energy  :   -79.4262647 Eh     change       -0.1276888E-04 Eh
 * total energy  :   -79.4262765 Eh     change       -0.1187014E-04 Eh
 * total energy  :   -79.4262861 Eh     change       -0.9539100E-05 Eh
 * total energy  :   -79.4262928 Eh     change       -0.6702216E-05 Eh
 * total energy  :   -79.4262974 Eh     change       -0.4603966E-05 Eh
   *** GEOMETRY OPTIMIZATION CONVERGED AFTER 62 ITERATIONS ***

 final structure:
================
47
 xtb: 6.5.1 (579679a)
C           -2.98368087733628        0.88750037567522       -2.46301688948418
N           -2.02281595882930        0.85345864201583       -1.35152960440360
C           -2.27402853446651        0.26823851357765       -0.14750048543215
C           -3.58865757336759       -0.39768683164550        0.22274215691043
C           -3.60663245756192       -0.67038835669506        1.73545458522389
C           -3.72619388161842       -1.71929243526883       -0.54581582754544
N           -4.69085412875835        0.48471741828869       -0.12915235760311
N           -1.31735542879209        0.21276526277137        0.73954439026006
C           -0.13367574359342        0.75570725385440        0.54487214865741
C            0.95633115348539        0.36818615191905        1.72203064623665
C            0.25331058650762        1.47732541365314        2.67433216228979
O            0.85297436975232       -0.81282437893228        2.10646161299926
N            2.20694066797793        0.88631685836673        1.40723053848823
C            3.40287451840042        0.10405828891859        1.62003945819619
C            3.82427530707310       -0.59560901882675        0.33793702781895
C            3.11041109565641       -1.70317899871447       -0.11419963701898
C            3.50412701753820       -2.36185871707689       -1.26950364968748
C            4.61294921847947       -1.89076740498505       -1.95131495031988
F            5.00042061388350       -2.52561455403045       -3.06446765167622
C            5.33589652529515       -0.78934101149967       -1.52950486041206
C            4.92730143736393       -0.13652597662259       -0.37460218731585
C            0.17752228048840        1.47360104972914       -0.55768036832145
O            1.32082037128805        2.11810437076355       -0.78113315073528
C           -0.81521731710212        1.46633479978768       -1.63783847552270
O           -0.57878035148356        2.02090643828223       -2.69684043543687
H           -3.99315347847079        0.80259141795926       -2.07019841930621
H           -2.86049769163926        1.83693043075912       -2.98308135394280
H           -2.76421666408427        0.06672153691678       -3.14523326343690
H           -4.56498384446622       -1.10812041665662        2.00811802086562
H           -2.80750470692986       -1.35841788502475        2.00757985404554
H           -3.47434431637963        0.26049932093004        2.28379998401164
H           -2.87747540169798       -2.36652325540940       -0.32921564632820
H           -3.77290537686658       -1.54159648220528       -1.61799880515026
H           -4.64178044345370       -2.21988294751301       -0.23475676818174
H           -5.57109568641685        0.00669301830492       -0.00050734966965
H           -4.67768721090987        1.31352789134197        0.44662899918602
H           -0.75183154129225        1.12849302038303        2.88787174970201
H            0.87440297432761        1.44889533570088        3.56658572425300
H            0.25228373505938        2.47002097826797        2.23967234634115
H            2.30613077564950        1.83597773731208        1.08641754431699
H            4.18877957775883        0.78381803348167        1.95401087679912
H            3.18233987670806       -0.63529465677475        2.39685076778202
H            2.24875092574026       -2.05333770173195        0.44092605393106
H            2.96282060675878       -3.22492253761947       -1.63482933291378
H            6.19596339894490       -0.44844368288420       -2.09082765523450
H            5.47638874724464        0.72991226349877       -0.02737047625569
H            1.32135183413041        2.49832742765863       -1.68099104697285

          :  Hamiltonian                  GFN1-xTB          :
         :: total energy             -79.426297393884 Eh    ::
         :: gradient norm              0.000259575431 Eh/a0 ::
         :: HOMO-LUMO gap              0.176658957489 eV    ::
         :: SCC energy               -80.321999571442 Eh    ::
         :: -> Gsolv                  -0.105648339041 Eh    ::
         :: repulsion energy           0.927222386272 Eh    ::

    * Orbital Energies and Occupations

         #    Occupation            Energy/Eh            Energy/eV
      -------------------------------------------------------------
         1        2.0000           -0.8750903             -23.8124
       ...           ...                  ...                  ...
        55        2.0000           -0.5207252             -14.1697
        56        2.0000           -0.5182800             -14.1031
        57        2.0000           -0.5113984             -13.9159
        58        2.0000           -0.5065380             -13.7836
        59        2.0000           -0.5005392             -13.6204
        60        2.0000           -0.4919478             -13.3866
        61        2.0000           -0.4878517             -13.2751
        62        2.0000           -0.4831289             -13.1466
        63        2.0000           -0.4752548             -12.9323
        64        2.0000           -0.4649438             -12.6518
        65        2.0000           -0.4607919             -12.5388
        66        2.0000           -0.4521042             -12.3024
        67        1.9364           -0.4353489             -11.8464 (HOMO)
        68        0.0636           -0.4288568             -11.6698 (LUMO)
        69                         -0.3351088              -9.1188
        70                         -0.3119986              -8.4899
        71                         -0.2867817              -7.8037
        72                         -0.2819484              -7.6722
        73                         -0.2105160              -5.7284
        74                         -0.1603472              -4.3633
        75                         -0.1566284              -4.2621
        76                         -0.1515519              -4.1239
        77                         -0.1405356              -3.8242
        78                         -0.1364693              -3.7135
       ...                                ...                  ...
       144                          0.6836527              18.6031
      -------------------------------------------------------------
                  HL-Gap            0.0064921 Eh            0.1767 eV

Wiberg/Mayer (AO) data.
largest (>0.10) Wiberg bond orders for each atom

     #   Z sym  total        # sym  WBO       # sym  WBO       # sym  WBO
 ---------------------------------------------------------------------------
     1   6 C    3.884 --    27 H    0.974    28 H    0.973    26 H    0.963
                             2 N    0.905
     2   7 N    3.530 --     3 C    1.217    24 C    1.130     1 C    0.905
                            25 O    0.127
     3   6 C    3.895 --     8 N    1.449     2 N    1.217     4 C    0.975
     4   6 C    3.953 --     5 C    0.984     7 N    0.983     6 C    0.977
                             3 C    0.975
     5   6 C    3.980 --    31 H    0.984     4 C    0.984    29 H    0.983
                            30 H    0.981
     6   6 C    3.989 --    32 H    0.985    33 H    0.982    34 H    0.980
                             4 C    0.977
     7   7 N    2.967 --     4 C    0.983    36 H    0.930    35 H    0.925
     8   7 N    3.154 --     3 C    1.449     9 C    1.342
     9   6 C    3.905 --    22 C    1.485     8 N    1.342    10 C    0.630
    10   6 C    3.910 --    12 O    1.406    13 N    1.112    11 C    0.684
                             9 C    0.630
    11   6 C    3.894 --    39 H    0.984    37 H    0.976    38 H    0.960
                            10 C    0.684
    12   8 O    1.874 --    10 C    1.406    13 N    0.230
    13   7 N    3.464 --    10 C    1.112    14 C    0.956    40 H    0.880
                            12 O    0.230
    14   6 C    3.920 --    41 H    0.964    13 N    0.956    42 H    0.956
                            15 C    0.952
    15   6 C    3.975 --    21 C    1.422    16 C    1.412    14 C    0.952
    16   6 C    3.991 --    17 C    1.447    15 C    1.412    43 H    0.968
                            20 C    0.110
    17   6 C    3.990 --    16 C    1.447    18 C    1.395    44 H    0.968
                            21 C    0.109
    18   6 C    3.861 --    20 C    1.400    17 C    1.395    19 F    0.935
    19   9 F    1.065 --    18 C    0.935
    20   6 C    3.986 --    21 C    1.439    18 C    1.400    45 H    0.967
                            16 C    0.110
    21   6 C    3.991 --    20 C    1.439    15 C    1.422    46 H    0.969
                            17 C    0.109
    22   6 C    3.914 --     9 C    1.485    23 O    1.109    24 C    1.028
    23   8 O    2.101 --    22 C    1.109    47 H    0.780
    24   6 C    3.914 --    25 O    1.582     2 N    1.130    22 C    1.028
    25   8 O    1.937 --    24 C    1.582     2 N    0.127
    26   1 H    1.020 --     1 C    0.963
    27   1 H    1.001 --     1 C    0.974
    28   1 H    0.998 --     1 C    0.973
    29   1 H    0.999 --     5 C    0.983
    30   1 H    1.005 --     5 C    0.981
    31   1 H    1.004 --     5 C    0.984
    32   1 H    1.000 --     6 C    0.985
    33   1 H    1.001 --     6 C    0.982
    34   1 H    0.997 --     6 C    0.980
    35   1 H    0.940 --     7 N    0.925
    36   1 H    0.944 --     7 N    0.930
    37   1 H    1.007 --    11 C    0.976
    38   1 H    0.989 --    11 C    0.960
    39   1 H    0.993 --    11 C    0.984
    40   1 H    0.931 --    13 N    0.880
    41   1 H    0.996 --    14 C    0.964
    42   1 H    1.003 --    14 C    0.956
    43   1 H    1.008 --    16 C    0.968
    44   1 H    0.996 --    17 C    0.968
    45   1 H    0.995 --    20 C    0.967
    46   1 H    0.996 --    21 C    0.969
    47   1 H    0.819 --    23 O    0.780
 ---------------------------------------------------------------------------

           -------------------------------------------------
          | TOTAL ENERGY              -79.426297393884 Eh   |
          | GRADIENT NORM               0.000259575431 Eh/α |
          | HOMO-LUMO GAP               0.176658957489 eV   |
           -------------------------------------------------

 * finished run on 2023/06/20 at 15:25:47.265
