   * xtb version 6.5.1 (579679a) compiled by 'ehlert@majestix' on 2022-07-11
          program call               : /lustre/hpc/kemi/ree/PhD/git/ReactivityQM/dep/xtb-6.5.1/bin/xtb --gfn 1 /lustre/hpc/kemi/ree/PhD/git/ReactivityQM/calculations/R03/reac02prodE06/conf19/R03_reac02prodE06_conf19_gfn1.xyz --opt --vfukui --chrg -1 --uhf 0 --alpb DMSO

   ID    Z sym.   atoms
    1    6 C      1, 3, 5, 6, 8, 11-16, 18, 20, 23, 24
    2    8 O      2, 4, 7, 9, 19, 25
    3    7 N      10, 17, 21, 22, 26
    4    1 H      27-46

      * Solvation model:               ALPB
        Solvent                        DMSO
        Solvent mass                       7.8130E+01 g/mol
          :  Hamiltonian                  GFN1-xTB          :
 * total energy  :   -87.0435907 Eh     change       -0.3235812E-10 Eh
 * total energy  :   -87.0557222 Eh     change       -0.1213152E-01 Eh
 * total energy  :   -87.0604224 Eh     change       -0.4700188E-02 Eh
 * total energy  :   -87.0613695 Eh     change       -0.9470579E-03 Eh
 * total energy  :   -87.0618646 Eh     change       -0.4951604E-03 Eh
 * total energy  :   -87.0620533 Eh     change       -0.1887170E-03 Eh
 * total energy  :   -87.0621720 Eh     change       -0.1186978E-03 Eh
 * total energy  :   -87.0622597 Eh     change       -0.8763229E-04 Eh
 * total energy  :   -87.0623199 Eh     change       -0.6024529E-04 Eh
 * total energy  :   -87.0623638 Eh     change       -0.4386690E-04 Eh
 * total energy  :   -87.0625379 Eh     change       -0.2231413E-04 Eh
 * total energy  :   -87.0625537 Eh     change       -0.1574561E-04 Eh
 * total energy  :   -87.0625648 Eh     change       -0.1110146E-04 Eh
 * total energy  :   -87.0625768 Eh     change       -0.1199628E-04 Eh
 * total energy  :   -87.0625865 Eh     change       -0.9761129E-05 Eh
 * total energy  :   -87.0625997 Eh     change       -0.1314731E-04 Eh
 * total energy  :   -87.0626067 Eh     change       -0.7027524E-05 Eh
 * total energy  :   -87.0626124 Eh     change       -0.5705314E-05 Eh
 * total energy  :   -87.0626157 Eh     change       -0.3277436E-05 Eh
   *** GEOMETRY OPTIMIZATION CONVERGED AFTER 24 ITERATIONS ***

 final structure:
================
46
 xtb: 6.5.1 (579679a)
C           -5.06877942040085        3.12900490216727        1.24416120115853
O           -4.00319264449260        2.32991340013309        0.73991337595979
C           -4.27414176190584        1.02764397156728        0.55866643265371
O           -5.37982718598683        0.57330900166756        0.81698362700801
C           -3.12778184652237        0.24640942411247        0.04246138825764
C           -3.27271176427532       -1.11399234324651       -0.22375263158454
O           -4.44328335585883       -1.82350797258508        0.00896645498860
C           -2.22095075277318       -1.82419077021412       -0.89546219929226
O           -2.31843814905212       -2.98131170451671       -1.34348945376994
N           -1.04201405121625       -1.11221789247631       -1.06075714311433
C           -0.01157562850705       -1.73973549313199       -1.88359471335688
C           -0.81486544233646        0.24529292652118       -0.54364068281055
C           -0.13516116320454        1.10515583368029       -1.62766144686091
C            0.08312798647778        0.17821604098759        0.78533856822754
C           -0.51906246938597       -0.84222279699280        1.75917673404934
C            0.11255173552257        1.54880220616676        1.46766187571199
N            1.43790332778173       -0.29356593197797        0.50286572135451
C            2.51336165297093        0.42224583306784        0.12391229074766
O            2.56465926165502        1.63158028858411       -0.06595511050148
C            3.68222779566781       -0.47539903761157       -0.06422787170253
N            3.66940829217648       -1.77430659646126        0.02420668863798
N            4.94290316354903       -2.19889380867260       -0.22437140895221
C            5.64958661069898       -1.13520899341554       -0.44752566010381
C            7.09448663271139       -1.06199803483791       -0.75989657421578
O            4.91361327786801       -0.01425504143980       -0.36327295951227
N           -2.01353225198891        0.93963549906618       -0.17642249246463
H           -5.92481966993119        3.09838215797020        0.56429211596254
H           -4.69194324607116        4.14744340084743        1.32393296407119
H           -5.38298623002817        2.76812634500455        2.22751426012017
H           -5.10837110108546       -1.22052974385146        0.38998251280418
H           -0.12339196036582       -2.82425686510027       -1.81887251933935
H            0.98222842228067       -1.47236618870513       -1.52829014299872
H           -0.10419588045341       -1.44033839841202       -2.93283680596787
H            0.86364873856127        0.75770914223831       -1.87612639213633
H           -0.07389358418306        2.13380450708594       -1.27864717816570
H           -0.75232482898388        1.08548038020484       -2.52534567844482
H            0.06408756492028       -0.86590350589160        2.67911423251272
H           -1.54346670670827       -0.56488774309978        2.00321309367812
H           -0.51931699897433       -1.84059360870051        1.32214835444463
H            0.74193751318961        1.51023296336506        2.35620670086509
H            0.49023127116006        2.32546659400389        0.80667458184608
H           -0.90332358753757        1.81407666770896        1.76143726137842
H            1.59717088595895       -1.28197023476150        0.64136946750434
H            7.62322436739648       -0.53779478099782        0.03620235976139
H            7.25000775183840       -0.51153558111289       -1.68722418066659
H            7.49698442984517       -2.06695041793814       -0.85902801774259

          :  Hamiltonian                  GFN1-xTB          :
         :: total energy             -87.062615689575 Eh    ::
         :: gradient norm              0.000797422833 Eh/a0 ::
         :: HOMO-LUMO gap              0.661461897051 eV    ::
         :: SCC energy               -87.851309184418 Eh    ::
         :: -> Gsolv                  -0.109292234899 Eh    ::
         :: repulsion energy           0.820273540465 Eh    ::

    * Orbital Energies and Occupations

         #    Occupation            Energy/Eh            Energy/eV
      -------------------------------------------------------------
         1        2.0000           -0.8523257             -23.1930
       ...           ...                  ...                  ...
        59        2.0000           -0.4724442             -12.8559
        60        2.0000           -0.4699669             -12.7885
        61        2.0000           -0.4689085             -12.7596
        62        2.0000           -0.4499130             -12.2428
        63        2.0000           -0.4481594             -12.1950
        64        2.0000           -0.4449351             -12.1073
        65        2.0000           -0.4372213             -11.8974
        66        2.0000           -0.4364015             -11.8751
        67        2.0000           -0.4227870             -11.5046
        68        2.0000           -0.3999951             -10.8844
        69        2.0000           -0.3886307             -10.5752
        70        2.0000           -0.3747895             -10.1985
        71        2.0000           -0.3200096              -8.7079 (HOMO)
        72        0.0000           -0.2957013              -8.0464 (LUMO)
        73                         -0.2711208              -7.3776
        74                         -0.2476675              -6.7394
        75                         -0.1898466              -5.1660
        76                         -0.1839558              -5.0057
        77                         -0.1386421              -3.7726
        78                         -0.1264702              -3.4414
        79                         -0.1152415              -3.1359
        80                         -0.1143630              -3.1120
        81                         -0.1129605              -3.0738
        82                         -0.1008986              -2.7456
       ...                                ...                  ...
       144                          0.7307368              19.8844
      -------------------------------------------------------------
                  HL-Gap            0.0243083 Eh            0.6615 eV

Wiberg/Mayer (AO) data.
largest (>0.10) Wiberg bond orders for each atom

     #   Z sym  total        # sym  WBO       # sym  WBO       # sym  WBO
 ---------------------------------------------------------------------------
     1   6 C    3.889 --    28 H    0.987    27 H    0.980    29 H    0.980
                             2 O    0.913
     2   8 O    2.191 --     3 C    1.093     1 C    0.913     4 O    0.118
     3   6 C    3.821 --     4 O    1.598     2 O    1.093     5 C    1.027
     4   8 O    1.919 --     3 C    1.598     2 O    0.118
     5   6 C    3.971 --    26 N    1.376     6 C    1.343     3 C    1.027
     6   6 C    3.857 --     5 C    1.343     8 C    1.152     7 O    0.998
                            26 N    0.175
     7   8 O    1.964 --     6 C    0.998    30 H    0.825
     8   6 C    3.917 --     9 O    1.477     6 C    1.152    10 N    1.128
     9   8 O    1.796 --     8 C    1.477    10 N    0.126
    10   7 N    3.298 --     8 C    1.128    11 C    0.959    12 C    0.923
                             9 O    0.126
    11   6 C    3.962 --    32 H    0.983    33 H    0.982    31 H    0.978
                            10 N    0.959
    12   6 C    3.940 --    26 N    1.026    13 C    0.986    10 N    0.923
                            14 C    0.892
    13   6 C    3.995 --    12 C    0.986    36 H    0.985    34 H    0.984
                            35 H    0.981
    14   6 C    3.915 --    16 C    1.001    15 C    1.000    17 N    0.923
                            12 C    0.892
    15   6 C    3.995 --    14 C    1.000    37 H    0.986    39 H    0.982
                            38 H    0.982
    16   6 C    3.993 --    14 C    1.001    40 H    0.986    42 H    0.981
                            41 H    0.978
    17   7 N    3.374 --    18 C    1.262    14 C    0.923    43 H    0.902
                            19 O    0.179
    18   6 C    3.916 --    19 O    1.551    17 N    1.262    20 C    0.994
    19   8 O    1.877 --    18 C    1.551    17 N    0.179
    20   6 C    3.857 --    21 N    1.596    25 O    1.057    18 C    0.994
    21   7 N    2.995 --    20 C    1.596    22 N    1.189
    22   7 N    2.980 --    23 C    1.617    21 N    1.189
    23   6 C    3.868 --    22 N    1.617    25 O    1.077    24 C    1.030
    24   6 C    3.988 --    23 C    1.030    46 H    0.983    45 H    0.967
                            44 H    0.964
    25   8 O    2.314 --    23 C    1.077    20 C    1.057
    26   7 N    2.896 --     5 C    1.376    12 C    1.026     6 C    0.175
    27   1 H    1.011 --     1 C    0.980
    28   1 H    1.014 --     1 C    0.987
    29   1 H    1.011 --     1 C    0.980
    30   1 H    0.889 --     7 O    0.825
    31   1 H    1.020 --    11 C    0.978
    32   1 H    1.016 --    11 C    0.983
    33   1 H    1.007 --    11 C    0.982
    34   1 H    1.007 --    13 C    0.984
    35   1 H    1.018 --    13 C    0.981
    36   1 H    1.012 --    13 C    0.985
    37   1 H    1.004 --    15 C    0.986
    38   1 H    1.010 --    15 C    0.982
    39   1 H    1.007 --    15 C    0.982
    40   1 H    1.004 --    16 C    0.986
    41   1 H    1.020 --    16 C    0.978
    42   1 H    1.025 --    16 C    0.981
    43   1 H    0.967 --    17 N    0.902
    44   1 H    0.998 --    24 C    0.964
    45   1 H    0.998 --    24 C    0.967
    46   1 H    1.000 --    24 C    0.983
 ---------------------------------------------------------------------------

           -------------------------------------------------
          | TOTAL ENERGY              -87.062615689575 Eh   |
          | GRADIENT NORM               0.000797422833 Eh/α |
          | HOMO-LUMO GAP               0.661461897051 eV   |
           -------------------------------------------------

 * finished run on 2023/06/20 at 15:20:21.898
