   * xtb version 6.5.1 (579679a) compiled by 'ehlert@majestix' on 2022-07-11
          program call               : /lustre/hpc/kemi/ree/PhD/git/ReactivityQM/dep/xtb-6.5.1/bin/xtb --gfn 1 /lustre/hpc/kemi/ree/PhD/git/ReactivityQM/calculations/R02/reac01prodN12/conf05/R02_reac01prodN12_conf05_gfn1.xyz --opt --vfukui --chrg 1 --uhf 0 --alpb DMSO

   ID    Z sym.   atoms
    1    6 C      1, 3, 5, 7-10, 12, 14, 15, 18, 19, 22, 24
    2    8 O      2, 4, 13, 20, 23, 25
    3    7 N      6, 11, 16, 17, 21
    4    1 H      26-43

      * Solvation model:               ALPB
        Solvent                        DMSO
        Solvent mass                       7.8130E+01 g/mol
          :  Hamiltonian                  GFN1-xTB          :
 * total energy  :   -83.1120522 Eh     change       -0.2244178E-09 Eh
 * total energy  :   -83.1257483 Eh     change       -0.1369608E-01 Eh
 * total energy  :   -83.1312859 Eh     change       -0.5537671E-02 Eh
 * total energy  :   -83.1322169 Eh     change       -0.9309567E-03 Eh
 * total energy  :   -83.1328364 Eh     change       -0.6194535E-03 Eh
 * total energy  :   -83.1330973 Eh     change       -0.2609285E-03 Eh
 * total energy  :   -83.1333278 Eh     change       -0.2305027E-03 Eh
 * total energy  :   -83.1334697 Eh     change       -0.1419373E-03 Eh
 * total energy  :   -83.1335421 Eh     change       -0.7235158E-04 Eh
 * total energy  :   -83.1335932 Eh     change       -0.5111725E-04 Eh
 * total energy  :   -83.1364741 Eh     change       -0.8547819E-05 Eh
 * total energy  :   -83.1364809 Eh     change       -0.6749788E-05 Eh
 * total energy  :   -83.1364890 Eh     change       -0.8131581E-05 Eh
 * total energy  :   -83.1364992 Eh     change       -0.1015537E-04 Eh
 * total energy  :   -83.1365074 Eh     change       -0.8271409E-05 Eh
 * total energy  :   -83.1365129 Eh     change       -0.5439037E-05 Eh
 * total energy  :   -83.1365179 Eh     change       -0.5057838E-05 Eh
 * total energy  :   -83.1365235 Eh     change       -0.5561973E-05 Eh
 * total energy  :   -83.1365278 Eh     change       -0.4320189E-05 Eh
   *** GEOMETRY OPTIMIZATION CONVERGED AFTER 113 ITERATIONS ***

 final structure:
================
43
 xtb: 6.5.1 (579679a)
C            6.03165571705965       -0.43219691696749       -1.21830103217451
O            4.66675132000158       -0.25401543144522       -0.82184219289777
C            4.34827633252361       -0.65600159651297        0.40719599306460
O            5.14085604378748       -1.14915223402946        1.17294577663764
C            2.90420953568344       -0.41687502588399        0.71487048796748
N            2.15926652214411        0.14554665020008       -0.29626815398107
C            0.91937679344562        0.41199534322318       -0.09588561290038
C            0.04361347989996        0.98908164920150       -1.18677151491663
C            0.59481107378688        0.64669809538093       -2.57002629138507
C           -0.09225672573556        2.49940669726640       -0.98226328021562
N           -1.26631803906256        0.31156394368779       -1.00670576202394
C           -2.43860022029810        0.81523566540431       -1.33538277434724
O           -2.73633274735071        1.79907704144401       -1.94491012323145
C           -3.64304654366617       -0.10480261668638       -0.71938638879740
C           -4.97154971511865        0.41366326970997       -1.24540944038983
N           -3.33704925954705       -1.44451979740877       -0.99898282491118
N           -3.00895910169531       -2.04444852714558        0.06927202136463
C           -3.14100272397481       -1.15677814368573        1.10951261994620
C           -2.84496496036096       -1.43308715929887        2.50719850895347
O           -3.52678690285788       -0.00697575824710        0.68078707726682
N            0.30501895237596        0.17431232230165        1.10441911048312
C            0.91292390777251       -0.48668583042817        2.14168292306203
O            0.29882081288963       -0.80859842931017        3.15010069315867
C            2.32709371679950       -0.76254996634609        1.91047491957656
O            2.98137337837851       -1.36207513849622        2.90496583643522
H            6.10716726831261       -0.06589738453505       -2.23998907114617
H            6.69048846727403        0.13868252968297       -0.55926531005916
H            6.29987893020074       -1.49048806147584       -1.17228495410363
H           -0.05208512554720        1.06426996200137       -3.33921177345690
H            0.65025108327186       -0.43338982884627       -2.69290056981054
H            1.59504120530222        1.06647385695203       -2.66817139565840
H           -0.65547030754342        2.94772333738123       -1.79829239365080
H           -0.59758939113912        2.70614392923645       -0.04107934774512
H            0.90366264448161        2.94022966973764       -0.95650631083746
H           -1.23963629417861       -0.60404793796502       -0.58742049829768
H           -5.78011439858693       -0.15467719119124       -0.79129386201864
H           -5.06385924028745        1.46660910063024       -0.98721581000019
H           -4.99009827762538        0.29728381162818       -2.32676644486088
H           -3.44465728376163       -0.79978772785774        3.15989329608930
H           -2.97933261980781       -2.49071349298108        2.72826312474578
H           -1.78806919502154       -1.18671204000725        2.69621247164076
H           -0.65477878062530        0.44248475788257        1.24387357497745
H            2.37202066840563       -1.53200739620089        3.64361669846142

          :  Hamiltonian                  GFN1-xTB          :
         :: total energy             -83.136527822202 Eh    ::
         :: gradient norm              0.000441096005 Eh/a0 ::
         :: HOMO-LUMO gap              0.625910778349 eV    ::
         :: SCC energy               -83.931474724317 Eh    ::
         :: -> Gsolv                  -0.121052158101 Eh    ::
         :: repulsion energy           0.823520374176 Eh    ::

    * Orbital Energies and Occupations

         #    Occupation            Energy/Eh            Energy/eV
      -------------------------------------------------------------
         1        2.0000           -0.9333229             -25.3970
       ...           ...                  ...                  ...
        55        2.0000           -0.5365899             -14.6014
        56        2.0000           -0.5306198             -14.4389
        57        2.0000           -0.5238304             -14.2542
        58        2.0000           -0.5201431             -14.1538
        59        2.0000           -0.5158614             -14.0373
        60        2.0000           -0.5077056             -13.8154
        61        2.0000           -0.5070476             -13.7975
        62        2.0000           -0.5011236             -13.6363
        63        2.0000           -0.5001208             -13.6090
        64        2.0000           -0.4972843             -13.5318
        65        2.0000           -0.4791648             -13.0387
        66        2.0000           -0.4651934             -12.6586
        67        2.0000           -0.4486066             -12.2072 (HOMO)
        68        0.0000           -0.4256048             -11.5813 (LUMO)
        69                         -0.3398021              -9.2465
        70                         -0.3323079              -9.0426
        71                         -0.3070641              -8.3556
        72                         -0.3025365              -8.2324
        73                         -0.2536898              -6.9033
        74                         -0.1745913              -4.7509
        75                         -0.1664512              -4.5294
        76                         -0.1561885              -4.2501
        77                         -0.1438623              -3.9147
        78                         -0.1420086              -3.8643
       ...                                ...                  ...
       136                          0.7449119              20.2701
      -------------------------------------------------------------
                  HL-Gap            0.0230018 Eh            0.6259 eV

Wiberg/Mayer (AO) data.
largest (>0.10) Wiberg bond orders for each atom

     #   Z sym  total        # sym  WBO       # sym  WBO       # sym  WBO
 ---------------------------------------------------------------------------
     1   6 C    3.868 --    26 H    0.986    28 H    0.979    27 H    0.979
                             2 O    0.894
     2   8 O    2.203 --     3 C    1.117     1 C    0.894     4 O    0.137
     3   6 C    3.855 --     4 O    1.667     2 O    1.117     5 C    0.993
     4   8 O    1.932 --     3 C    1.667     2 O    0.137
     5   6 C    3.960 --    24 C    1.499     6 N    1.174     3 C    0.993
     6   7 N    3.031 --     7 C    1.611     5 C    1.174
     7   6 C    3.935 --     6 N    1.611    21 N    1.148     8 C    0.977
     8   6 C    3.905 --     9 C    0.989    10 C    0.983     7 C    0.977
                            11 N    0.877
     9   6 C    3.985 --     8 C    0.989    30 H    0.984    29 H    0.983
                            31 H    0.979
    10   6 C    3.982 --    33 H    0.983     8 C    0.983    34 H    0.981
                            32 H    0.976
    11   7 N    3.380 --    12 C    1.351    35 H    0.884     8 C    0.877
                            13 O    0.181
    12   6 C    3.907 --    13 O    1.691    11 N    1.351    14 C    0.709
    13   8 O    2.084 --    12 C    1.691    11 N    0.181
    14   6 C    3.833 --    16 N    1.116    15 C    0.937    20 O    0.904
                            12 C    0.709
    15   6 C    3.950 --    38 H    0.976    36 H    0.975    37 H    0.974
                            14 C    0.937
    16   7 N    3.009 --    17 N    1.631    14 C    1.116
    17   7 N    3.016 --    16 N    1.631    18 C    1.199
    18   6 C    3.808 --    20 O    1.276    17 N    1.199    19 C    1.090
    19   6 C    3.960 --    18 C    1.090    40 H    0.957    39 H    0.954
                            41 H    0.877
    20   8 O    2.372 --    18 C    1.276    14 C    0.904
    21   7 N    3.458 --     7 C    1.148    22 C    1.138    42 H    0.884
                            23 O    0.131
    22   6 C    3.905 --    23 O    1.565    21 N    1.138    24 C    1.065
    23   8 O    1.930 --    22 C    1.565    21 N    0.131
    24   6 C    3.921 --     5 C    1.499    25 O    1.122    22 C    1.065
    25   8 O    2.100 --    24 C    1.122    43 H    0.804
    26   1 H    1.010 --     1 C    0.986
    27   1 H    1.006 --     1 C    0.979
    28   1 H    1.006 --     1 C    0.979
    29   1 H    0.997 --     9 C    0.983
    30   1 H    1.000 --     9 C    0.984
    31   1 H    1.004 --     9 C    0.979
    32   1 H    1.002 --    10 C    0.976
    33   1 H    0.996 --    10 C    0.983
    34   1 H    0.997 --    10 C    0.981
    35   1 H    0.932 --    11 N    0.884
    36   1 H    0.991 --    15 C    0.975
    37   1 H    0.995 --    15 C    0.974
    38   1 H    0.994 --    15 C    0.976
    39   1 H    0.983 --    19 C    0.954
    40   1 H    0.985 --    19 C    0.957
    41   1 H    0.993 --    19 C    0.877
    42   1 H    0.930 --    21 N    0.884
    43   1 H    0.837 --    25 O    0.804
 ---------------------------------------------------------------------------

           -------------------------------------------------
          | TOTAL ENERGY              -83.136527822202 Eh   |
          | GRADIENT NORM               0.000441096005 Eh/α |
          | HOMO-LUMO GAP               0.625910778349 eV   |
           -------------------------------------------------

 * finished run on 2023/06/20 at 15:34:42.629
