   * xtb version 6.5.1 (579679a) compiled by 'ehlert@majestix' on 2022-07-11
          program call               : /lustre/hpc/kemi/ree/PhD/git/ReactivityQM/dep/xtb-6.5.1/bin/xtb --gfn 1 /lustre/hpc/kemi/ree/PhD/git/ReactivityQM/calculations/R02methylcation/reac01prodN05/conf01/R02methylcation_reac01prodN05_conf01_gfn1.xyz --opt --vfukui --chrg 0 --uhf 0 --alpb DMSO

   ID    Z sym.   atoms
    1    6 C      1, 3, 5, 6, 8, 11-14, 16, 18, 21, 22, 25
    2    8 O      2, 4, 7, 9, 17, 23
    3    7 N      10, 15, 19, 20, 24
    4    1 H      26-42

      * Solvation model:               ALPB
        Solvent                        DMSO
        Solvent mass                       7.8130E+01 g/mol
          :  Hamiltonian                  GFN1-xTB          :
 * total energy  :   -82.9680383 Eh     change       -0.5002221E-10 Eh
 * total energy  :   -82.9803395 Eh     change       -0.1230121E-01 Eh
 * total energy  :   -82.9851196 Eh     change       -0.4780174E-02 Eh
 * total energy  :   -82.9859357 Eh     change       -0.8160803E-03 Eh
 * total energy  :   -82.9862643 Eh     change       -0.3286163E-03 Eh
 * total energy  :   -82.9864603 Eh     change       -0.1959581E-03 Eh
 * total energy  :   -82.9866525 Eh     change       -0.1921855E-03 Eh
 * total energy  :   -82.9868470 Eh     change       -0.1944760E-03 Eh
 * total energy  :   -82.9870586 Eh     change       -0.2116090E-03 Eh
 * total energy  :   -82.9872989 Eh     change       -0.2402843E-03 Eh
 * total energy  :   -82.9885517 Eh     change       -0.2390927E-04 Eh
 * total energy  :   -82.9885739 Eh     change       -0.2219468E-04 Eh
 * total energy  :   -82.9885921 Eh     change       -0.1818150E-04 Eh
 * total energy  :   -82.9886101 Eh     change       -0.1800416E-04 Eh
 * total energy  :   -82.9886260 Eh     change       -0.1596937E-04 Eh
 * total energy  :   -82.9886359 Eh     change       -0.9910404E-05 Eh
 * total energy  :   -82.9886426 Eh     change       -0.6659801E-05 Eh
 * total energy  :   -82.9886480 Eh     change       -0.5383079E-05 Eh
 * total energy  :   -82.9886524 Eh     change       -0.4404125E-05 Eh
   *** GEOMETRY OPTIMIZATION CONVERGED AFTER 39 ITERATIONS ***

 final structure:
================
42
 xtb: 6.5.1 (579679a)
C           -2.96818574270423        3.76490633045681        0.41367976097068
O           -2.57097804351495        2.39696200337434        0.27578760501241
C           -3.56522728813192        1.48531833894148        0.36433409613386
O           -4.71635803128689        1.82000337575772        0.53193761508017
C           -3.12101415550820        0.09592651609659        0.15579203181412
C           -4.04059912794587       -0.80205866860501       -0.45481682874134
O           -5.22378656444087       -0.56479039459889       -0.69703467333759
C           -3.46412201251170       -2.12967084660078       -0.87489700684207
O           -4.08117879316131       -3.03434220780204       -1.39694556644702
N           -2.09879200884687       -2.27158034696985       -0.66286152734616
C           -1.28643242119077       -1.42096485595049        0.00483331007771
C            0.14594272325318       -1.89516577608917        0.23008334499053
C            0.23315388595266       -2.59736057592967        1.59494199068538
C            0.59465878493668       -2.86912692440672       -0.87252998253362
N            1.02342795886064       -0.72591941240823        0.13706646587841
C            2.31227643394850       -0.71871259008959        0.57763188837618
O            2.81833610149903       -1.53775044765354        1.31579132905925
C            3.02443302281681        0.47223940324508        0.05545094625621
N            2.53051045553742        1.37451838063164       -0.73915704242521
N            3.52661070670797        2.26877228133637       -0.98415323605310
C            4.56775768276657        1.85343058366337       -0.32563638764097
C            5.91073514229413        2.47049411662724       -0.26766547780826
O            4.31157666128370        0.72411830199838        0.34982547462384
N           -1.80238321455669       -0.28969295916835        0.44193767172287
C           -1.04820825719393        0.55626039621852        1.37726566876308
H           -3.40810488788665        3.93133078411352        1.40008405550224
H           -3.69748691027904        4.02676062045003       -0.35755300021508
H           -2.06621008630224        4.36212907185545        0.29869120277238
H           -1.72294880676027       -3.14998192888036       -0.98486347949717
H           -0.62485101423747       -3.25876701834843        1.70563949785324
H            1.14223272370644       -3.19210287080339        1.64844320564229
H            0.23905651664709       -1.88299870599150        2.41468271297017
H            0.10268817696925       -3.83423619180628       -0.77038607887678
H            1.66731513813575       -3.02626305473360       -0.77045925176358
H            0.39416433434161       -2.45544411871189       -1.85886263019314
H            0.81863018399556       -0.09048336040334       -0.62244833386201
H            6.65507624835937        1.77321037290018       -0.65275893578143
H            6.16913467377059        2.70142622301827        0.76568282922304
H            5.92345688339637        3.38147515372991       -0.86077398718669
H           -1.74873148987431        1.02807069978094        2.06122271815185
H           -0.36082932611508       -0.05536572372538        1.94916294412775
H           -0.49474625673296        1.31542702547765        0.82966106085650

          :  Hamiltonian                  GFN1-xTB          :
         :: total energy             -82.988652383435 Eh    ::
         :: gradient norm              0.000356093658 Eh/a0 ::
         :: HOMO-LUMO gap              2.484932273579 eV    ::
         :: SCC energy               -83.770449183636 Eh    ::
         :: -> Gsolv                  -0.073658803239 Eh    ::
         :: repulsion energy           0.808969569097 Eh    ::

    * Orbital Energies and Occupations

         #    Occupation            Energy/Eh            Energy/eV
      -------------------------------------------------------------
         1        2.0000           -0.8685260             -23.6338
       ...           ...                  ...                  ...
        55        2.0000           -0.5125097             -13.9461
        56        2.0000           -0.5109909             -13.9048
        57        2.0000           -0.4947461             -13.4627
        58        2.0000           -0.4936189             -13.4321
        59        2.0000           -0.4917137             -13.3802
        60        2.0000           -0.4880160             -13.2796
        61        2.0000           -0.4777985             -13.0016
        62        2.0000           -0.4745543             -12.9133
        63        2.0000           -0.4678902             -12.7319
        64        2.0000           -0.4582482             -12.4696
        65        2.0000           -0.4552377             -12.3876
        66        2.0000           -0.4252258             -11.5710
        67        2.0000           -0.4147263             -11.2853 (HOMO)
        68                         -0.3234067              -8.8003 (LUMO)
        69                         -0.3195590              -8.6956
        70                         -0.3045936              -8.2884
        71                         -0.2611676              -7.1067
        72                         -0.2415624              -6.5732
        73                         -0.2072570              -5.6397
        74                         -0.1704265              -4.6375
        75                         -0.1500801              -4.0839
        76                         -0.1436337              -3.9085
        77                         -0.1425028              -3.8777
        78                         -0.1368529              -3.7240
       ...                                ...                  ...
       134                          0.7563331              20.5809
      -------------------------------------------------------------
                  HL-Gap            0.0913196 Eh            2.4849 eV

Wiberg/Mayer (AO) data.
largest (>0.10) Wiberg bond orders for each atom

     #   Z sym  total        # sym  WBO       # sym  WBO       # sym  WBO
 ---------------------------------------------------------------------------
     1   6 C    3.872 --    28 H    0.986    26 H    0.980    27 H    0.980
                             2 O    0.898
     2   8 O    2.170 --     3 C    1.060     1 C    0.898     4 O    0.121
     3   6 C    3.862 --     4 O    1.646     5 C    1.064     2 O    1.060
     4   8 O    1.922 --     3 C    1.646     2 O    0.121
     5   6 C    3.853 --     6 C    1.257     3 C    1.064    24 N    1.064
                             7 O    0.142
     6   6 C    3.945 --     7 O    1.573     5 C    1.257     8 C    0.955
     7   8 O    1.883 --     6 C    1.573     5 C    0.142
     8   6 C    3.866 --     9 O    1.660    10 N    1.086     6 C    0.955
     9   8 O    1.936 --     8 C    1.660    10 N    0.117
    10   7 N    3.453 --    11 C    1.208     8 C    1.086    29 H    0.877
                             9 O    0.117
    11   6 C    3.914 --    24 N    1.425    10 N    1.208    12 C    0.978
    12   6 C    3.934 --    14 C    0.985    11 C    0.978    13 C    0.976
                            15 N    0.933
    13   6 C    3.981 --    30 H    0.984    12 C    0.976    32 H    0.976
                            31 H    0.975
    14   6 C    3.986 --    12 C    0.985    35 H    0.984    34 H    0.978
                            33 H    0.978
    15   7 N    3.309 --    16 C    1.207    12 C    0.933    36 H    0.895
                            17 O    0.166
    16   6 C    3.911 --    17 O    1.623    15 N    1.207    18 C    0.994
    17   8 O    1.933 --    16 C    1.623    15 N    0.166
    18   6 C    3.878 --    19 N    1.604    23 O    1.066    16 C    0.994
    19   7 N    3.021 --    18 C    1.604    20 N    1.205
    20   7 N    2.981 --    21 C    1.598    19 N    1.205
    21   6 C    3.869 --    20 N    1.598    23 O    1.085    22 C    1.032
    22   6 C    3.985 --    21 C    1.032    39 H    0.982    38 H    0.963
                            37 H    0.962
    23   8 O    2.334 --    21 C    1.085    18 C    1.066
    24   7 N    3.588 --    11 C    1.425     5 C    1.064    25 C    0.919
    25   6 C    3.914 --    40 H    0.978    41 H    0.975    42 H    0.972
                            24 N    0.919
    26   1 H    1.008 --     1 C    0.980
    27   1 H    1.009 --     1 C    0.980
    28   1 H    1.011 --     1 C    0.986
    29   1 H    0.932 --    10 N    0.877
    30   1 H    1.000 --    13 C    0.984
    31   1 H    1.009 --    13 C    0.975
    32   1 H    1.002 --    13 C    0.976
    33   1 H    0.996 --    14 C    0.978
    34   1 H    0.998 --    14 C    0.978
    35   1 H    0.997 --    14 C    0.984
    36   1 H    0.952 --    15 N    0.895
    37   1 H    0.996 --    22 C    0.962
    38   1 H    0.996 --    22 C    0.963
    39   1 H    0.998 --    22 C    0.982
    40   1 H    1.003 --    25 C    0.978
    41   1 H    1.009 --    25 C    0.975
    42   1 H    1.012 --    25 C    0.972
 ---------------------------------------------------------------------------

           -------------------------------------------------
          | TOTAL ENERGY              -82.988652383435 Eh   |
          | GRADIENT NORM               0.000356093658 Eh/α |
          | HOMO-LUMO GAP               2.484932273579 eV   |
           -------------------------------------------------

 * finished run on 2023/06/21 at 17:35:08.511
