   * xtb version 6.5.1 (579679a) compiled by 'ehlert@majestix' on 2022-07-11
          program call               : /lustre/hpc/kemi/ree/PhD/git/ReactivityQM/dep/xtb-6.5.1/bin/xtb --gfn 1 /lustre/hpc/kemi/ree/PhD/git/ReactivityQM/calculations/R02methylcation/reac01prodN13/conf07/R02methylcation_reac01prodN13_conf07_gfn1.xyz --opt --vfukui --chrg 0 --uhf 0 --alpb DMSO

   ID    Z sym.   atoms
    1    6 C      1, 3, 5, 7-10, 12, 14, 17-19, 22, 24
    2    8 O      2, 4, 13, 20, 23, 25
    3    7 N      6, 11, 15, 16, 21
    4    1 H      26-42

      * Solvation model:               ALPB
        Solvent                        DMSO
        Solvent mass                       7.8130E+01 g/mol
          :  Hamiltonian                  GFN1-xTB          :
 * total energy  :   -82.9266758 Eh     change       -0.1747196E-08 Eh
 * total energy  :   -82.9354355 Eh     change       -0.8759704E-02 Eh
 * total energy  :   -82.9386145 Eh     change       -0.3178959E-02 Eh
 * total energy  :   -82.9392281 Eh     change       -0.6136114E-03 Eh
 * total energy  :   -82.9397532 Eh     change       -0.5250634E-03 Eh
 * total energy  :   -82.9400595 Eh     change       -0.3063283E-03 Eh
 * total energy  :   -82.9402549 Eh     change       -0.1953938E-03 Eh
 * total energy  :   -82.9403464 Eh     change       -0.9151535E-04 Eh
 * total energy  :   -82.9403857 Eh     change       -0.3926483E-04 Eh
 * total energy  :   -82.9404132 Eh     change       -0.2755609E-04 Eh
 * total energy  :   -82.9404357 Eh     change       -0.2251405E-04 Eh
 * total energy  :   -82.9404508 Eh     change       -0.1506560E-04 Eh
 * total energy  :   -82.9404645 Eh     change       -0.1371753E-04 Eh
 * total energy  :   -82.9404741 Eh     change       -0.9558072E-05 Eh
 * total energy  :   -82.9404865 Eh     change       -0.1240697E-04 Eh
 * total energy  :   -82.9404954 Eh     change       -0.8963179E-05 Eh
 * total energy  :   -82.9405023 Eh     change       -0.6841352E-05 Eh
 * total energy  :   -82.9405081 Eh     change       -0.5804898E-05 Eh
 * total energy  :   -82.9405123 Eh     change       -0.4228200E-05 Eh
   *** GEOMETRY OPTIMIZATION CONVERGED AFTER 19 ITERATIONS ***

 final structure:
================
42
 xtb: 6.5.1 (579679a)
C            6.28118639886605        1.11912168377293       -0.35086307928919
O            4.97245436359704        0.55354357722679       -0.26618826729663
C            4.72094519303896       -0.47836396067331       -1.08794692955761
O            5.55010653215193       -0.91438704453321       -1.85501629728927
C            3.33646473373208       -0.98752816138467       -0.92990927591097
N            2.57568888377269       -0.34952696589175       -0.01577039403879
C            1.34475194259991       -0.71232638385460        0.19912140880806
C            0.54535346460466       -0.01486630321324        1.27275262767760
C            1.13329504651095        1.37050744163341        1.55908903054565
C            0.57981392681194       -0.90499872839276        2.52733958830271
N           -0.83567648766721        0.12493911311146        0.79656781535405
C           -1.82468149827744        0.64176116314773        1.55737657206665
O           -1.73417091217311        0.97831925784960        2.72475414316960
C           -3.09955075531122        0.76894635807278        0.80665872149917
N           -4.23338012572864        1.29515357518399        1.29626030367152
N           -5.12609190708757        1.26895736613209        0.37660304127829
C           -4.56590642912783        0.68758074999648       -0.81410187508571
C           -4.57365042434054        1.69925236097525       -1.96240383359761
C           -5.30199767745393       -0.60702970554986       -1.16814904721271
O           -3.21570413831222        0.38748365344251       -0.44447846310766
N            0.77637606237036       -1.75980849190182       -0.45426038314323
C            1.42071055597364       -2.51167140757415       -1.42602075772152
O            0.83954286125530       -3.42779911858847       -1.97099979807973
C            2.85068735845940       -2.09645581867188       -1.71210099383883
O            3.49871937345806       -2.70672837410842       -2.55760910572293
H            7.03451691209496        0.37182151607634       -0.08807801210132
H            6.31030111141925        1.94638924505041        0.35519891324384
H            6.47165303284552        1.48089346136000       -1.36476221385398
H            2.17622562907922        1.26373522111744        1.85292471480685
H            1.07904903128258        1.98811653714908        0.66439025156316
H            0.57939642176132        1.85111548812530        2.36282147393870
H            0.07696221340918       -1.84844473603024        2.32440780865876
H            0.08608813747163       -0.40559085673980        3.35789606110155
H            1.61631374568061       -1.10229287392192        2.79640982873309
H           -1.02570269019291       -0.02321510811527       -0.18077829217832
H           -4.04303617931279        2.59822354078569       -1.65601050539347
H           -5.60234935373109        1.94761511581600       -2.21122111556627
H           -4.08014912619207        1.26265231205026       -2.82733896839664
H           -5.24042421993447       -1.29622815638542       -0.32863468995937
H           -6.34354778138922       -0.37769046739769       -1.37941457470853
H           -4.83792631226047       -1.05524922238742       -2.04305127386358
H           -0.17265591375515       -2.02592685275928       -0.24730115750405

          :  Hamiltonian                  GFN1-xTB          :
         :: total energy             -82.940512320733 Eh    ::
         :: gradient norm              0.000597175088 Eh/a0 ::
         :: HOMO-LUMO gap              0.044211673074 eV    ::
         :: SCC energy               -83.707446424466 Eh    ::
         :: -> Gsolv                  -0.073683331947 Eh    ::
         :: repulsion energy           0.792440509037 Eh    ::

    * Orbital Energies and Occupations

         #    Occupation            Energy/Eh            Energy/eV
      -------------------------------------------------------------
         1        2.0000           -0.8816678             -23.9914
       ...           ...                  ...                  ...
        55        2.0000           -0.5128282             -13.9548
        56        2.0000           -0.5097373             -13.8707
        57        2.0000           -0.5080418             -13.8245
        58        2.0000           -0.5039437             -13.7130
        59        2.0000           -0.4920458             -13.3892
        60        2.0000           -0.4862308             -13.2310
        61        2.0000           -0.4822740             -13.1233
        62        2.0000           -0.4751538             -12.9296
        63        2.0000           -0.4680307             -12.7358
        64        2.0000           -0.4668915             -12.7048
        65        2.0000           -0.4607023             -12.5363
        66        2.0000           -0.4225127             -11.4972
        67        1.4033           -0.4072035             -11.0806 (HOMO)
        68        0.5967           -0.4055787             -11.0364 (LUMO)
        69                         -0.3218088              -8.7569
        70                         -0.3102413              -8.4421
        71                         -0.2850977              -7.7579
        72                         -0.2348796              -6.3914
        73                         -0.2222393              -6.0474
        74                         -0.1566956              -4.2639
        75                         -0.1428397              -3.8869
        76                         -0.1373483              -3.7374
        77                         -0.1344641              -3.6590
        78                         -0.1334040              -3.6301
       ...                                ...                  ...
       134                          0.7543640              20.5273
      -------------------------------------------------------------
                  HL-Gap            0.0016247 Eh            0.0442 eV

Wiberg/Mayer (AO) data.
largest (>0.10) Wiberg bond orders for each atom

     #   Z sym  total        # sym  WBO       # sym  WBO       # sym  WBO
 ---------------------------------------------------------------------------
     1   6 C    3.876 --    27 H    0.986    28 H    0.979    26 H    0.979
                             2 O    0.904
     2   8 O    2.176 --     3 C    1.089     1 C    0.904     4 O    0.130
     3   6 C    3.841 --     4 O    1.648     2 O    1.089     5 C    1.026
     4   8 O    1.890 --     3 C    1.648     2 O    0.130
     5   6 C    3.711 --     6 N    1.296    24 C    1.160     3 C    1.026
     6   7 N    2.985 --     7 C    1.477     5 C    1.296
     7   6 C    3.791 --     6 N    1.477    21 N    1.189     8 C    0.988
     8   6 C    3.924 --     7 C    0.988     9 C    0.985    10 C    0.966
                            11 N    0.920
     9   6 C    3.983 --     8 C    0.985    30 H    0.985    31 H    0.982
                            29 H    0.982
    10   6 C    3.973 --    32 H    0.985    34 H    0.984    33 H    0.976
                             8 C    0.966
    11   7 N    3.329 --    12 C    1.249     8 C    0.920    35 H    0.889
                            13 O    0.187
    12   6 C    3.909 --    13 O    1.585    11 N    1.249    14 C    0.992
    13   8 O    1.891 --    12 C    1.585    11 N    0.187
    14   6 C    3.624 --    15 N    1.315    20 O    1.174    12 C    0.992
    15   7 N    2.998 --    16 N    1.542    14 C    1.315
    16   7 N    2.687 --    15 N    1.542    17 C    1.024
    17   6 C    3.833 --    16 N    1.024    18 C    0.939    19 C    0.938
                            20 O    0.869
    18   6 C    3.938 --    36 H    0.982    37 H    0.982    38 H    0.980
                            17 C    0.939
    19   6 C    3.937 --    39 H    0.982    40 H    0.982    41 H    0.980
                            17 C    0.938
    20   8 O    2.198 --    14 C    1.174    17 C    0.869
    21   7 N    3.421 --     7 C    1.189    22 C    1.101    42 H    0.882
                            23 O    0.112
    22   6 C    3.837 --    23 O    1.658    21 N    1.101    24 C    0.948
    23   8 O    1.879 --    22 C    1.658    21 N    0.112
    24   6 C    3.866 --    25 O    1.620     5 C    1.160    22 C    0.948
    25   8 O    1.797 --    24 C    1.620
    26   1 H    1.007 --     1 C    0.979
    27   1 H    1.012 --     1 C    0.986
    28   1 H    1.007 --     1 C    0.979
    29   1 H    1.010 --     9 C    0.982
    30   1 H    1.002 --     9 C    0.985
    31   1 H    1.005 --     9 C    0.982
    32   1 H    1.000 --    10 C    0.985
    33   1 H    1.007 --    10 C    0.976
    34   1 H    1.000 --    10 C    0.984
    35   1 H    0.932 --    11 N    0.889
    36   1 H    0.996 --    18 C    0.982
    37   1 H    0.997 --    18 C    0.982
    38   1 H    0.996 --    18 C    0.980
    39   1 H    0.996 --    19 C    0.982
    40   1 H    0.997 --    19 C    0.982
    41   1 H    0.996 --    19 C    0.980
    42   1 H    0.927 --    21 N    0.882
 ---------------------------------------------------------------------------

           -------------------------------------------------
          | TOTAL ENERGY              -82.940512320733 Eh   |
          | GRADIENT NORM               0.000597175088 Eh/α |
          | HOMO-LUMO GAP               0.044211673074 eV   |
           -------------------------------------------------

 * finished run on 2023/06/21 at 17:46:55.849
