   * xtb version 6.5.1 (579679a) compiled by 'ehlert@majestix' on 2022-07-11
          program call               : /lustre/hpc/kemi/ree/PhD/git/ReactivityQM/dep/xtb-6.5.1/bin/xtb --gfn 1 /lustre/hpc/kemi/ree/PhD/git/ReactivityQM/calculations/R02methylcation/reac01prodN08/conf08/R02methylcation_reac01prodN08_conf08_gfn1.xyz --opt --vfukui --chrg 0 --uhf 0 --alpb DMSO

   ID    Z sym.   atoms
    1    6 C      1, 3, 5, 7-10, 12, 14, 17, 18, 21, 23, 25
    2    8 O      2, 4, 13, 19, 22, 24
    3    7 N      6, 11, 15, 16, 20
    4    1 H      26-42

      * Solvation model:               ALPB
        Solvent                        DMSO
        Solvent mass                       7.8130E+01 g/mol
          :  Hamiltonian                  GFN1-xTB          :
 * total energy  :   -82.9946042 Eh     change       -0.1517719E-10 Eh
 * total energy  :   -83.0101535 Eh     change       -0.1554938E-01 Eh
 * total energy  :   -83.0154239 Eh     change       -0.5270311E-02 Eh
 * total energy  :   -83.0164706 Eh     change       -0.1046706E-02 Eh
 * total energy  :   -83.0168925 Eh     change       -0.4218969E-03 Eh
 * total energy  :   -83.0170364 Eh     change       -0.1439612E-03 Eh
 * total energy  :   -83.0171171 Eh     change       -0.8071247E-04 Eh
 * total energy  :   -83.0171662 Eh     change       -0.4908433E-04 Eh
 * total energy  :   -83.0172045 Eh     change       -0.3824641E-04 Eh
 * total energy  :   -83.0172413 Eh     change       -0.3679190E-04 Eh
 * total energy  :   -83.0174647 Eh     change       -0.1590379E-04 Eh
 * total energy  :   -83.0174757 Eh     change       -0.1101998E-04 Eh
 * total energy  :   -83.0174854 Eh     change       -0.9761107E-05 Eh
 * total energy  :   -83.0174989 Eh     change       -0.1350718E-04 Eh
 * total energy  :   -83.0175062 Eh     change       -0.7253478E-05 Eh
 * total energy  :   -83.0175121 Eh     change       -0.5933914E-05 Eh
 * total energy  :   -83.0175250 Eh     change       -0.1285995E-04 Eh
 * total energy  :   -83.0175297 Eh     change       -0.4666634E-05 Eh
 * total energy  :   -83.0175330 Eh     change       -0.3396077E-05 Eh
   *** GEOMETRY OPTIMIZATION CONVERGED AFTER 26 ITERATIONS ***

 final structure:
================
42
 xtb: 6.5.1 (579679a)
C           -6.11004711775484       -1.96748829072501        0.40824078851480
O           -5.03393487419002       -1.09364910181937        0.05497700392248
C           -3.86191975596739       -1.33301133950287        0.63782418974291
O           -3.69187583166546       -2.23286142416451        1.43007034158764
C           -2.77037043965493       -0.39187362333671        0.23768163154761
N           -1.60738394981958       -0.63263798981747        0.92321128214902
C           -0.57000649792277        0.09415892440931        0.69561178652721
C            0.70537068197255       -0.11988778339734        1.47998005343946
C            0.78471918733454        0.97559033570895        2.55465671252037
C            0.71461312712072       -1.51665751202791        2.10782491358883
N            1.82410963629914        0.01389110837551        0.54057211980123
C            3.12140288941277       -0.04101597546180        0.92154801027602
O            3.52269737252402       -0.10722558388388        2.06808005325966
C            4.01722117035905        0.00664277031756       -0.26219387683950
N            3.64326720045319        0.00301685716313       -1.50666741967878
N            4.77852970625679        0.05028088631017       -2.25786098441561
C            5.77340667165903        0.08112388927559       -1.42300007427262
C            7.21722032285523        0.14694050412927       -1.73830799135867
O            5.35659737417432        0.05357689068531       -0.14860707830002
N           -0.59659067722322        1.11520227547459       -0.20702041217621
C           -1.69434276209328        1.45195641883626       -0.97135136697305
O           -1.62034219867689        2.37941672454045       -1.76429700833502
C           -2.86422211270317        0.60831142205794       -0.70609740480319
O           -4.01899735156218        0.79213488694521       -1.35942195598581
C           -4.19912072000791        1.79347591686266       -2.36130285708987
H           -6.99136864317459       -1.60356143971665       -0.11580927647197
H           -6.27422140985930       -1.94520206385835        1.48829534985274
H           -5.87976025603483       -2.98972196351447        0.09846835859365
H           -0.11167813578244        0.93864362615199        3.17156677939791
H            1.65703833574881        0.82348661491205        3.18646894175248
H            0.85243612997531        1.95398693062875        2.08315495243939
H            1.61741577028499       -1.65024972610068        2.70060513026265
H            0.68080970646744       -2.27496591163313        1.32696485865860
H           -0.15776686387666       -1.63082097661250        2.74962347725827
H            1.62792085073819       -0.05106110459343       -0.44668716994499
H            7.74859216500518       -0.65316082227486       -1.22358594441778
H            7.62738712867162        1.09810912252273       -1.39742174941953
H            7.36256593652515        0.05514528752595       -2.81196689768351
H            0.22349372336417        1.68605697820926       -0.34715879326478
H           -3.51465762360874        1.64093581231915       -3.19873193158293
H           -5.22821930250421        1.67834181856435       -2.70387429281919
H           -4.05998556312083        2.79462763051738       -1.94745824926154

          :  Hamiltonian                  GFN1-xTB          :
         :: total energy             -83.017533048385 Eh    ::
         :: gradient norm              0.000513826358 Eh/a0 ::
         :: HOMO-LUMO gap              2.767741023681 eV    ::
         :: SCC energy               -83.801369409569 Eh    ::
         :: -> Gsolv                  -0.051997610968 Eh    ::
         :: repulsion energy           0.808751468078 Eh    ::

    * Orbital Energies and Occupations

         #    Occupation            Energy/Eh            Energy/eV
      -------------------------------------------------------------
         1        2.0000           -0.8647916             -23.5322
       ...           ...                  ...                  ...
        55        2.0000           -0.5069154             -13.7939
        56        2.0000           -0.5024893             -13.6734
        57        2.0000           -0.4971014             -13.5268
        58        2.0000           -0.4870873             -13.2543
        59        2.0000           -0.4840704             -13.1722
        60        2.0000           -0.4825294             -13.1303
        61        2.0000           -0.4682118             -12.7407
        62        2.0000           -0.4631649             -12.6034
        63        2.0000           -0.4584578             -12.4753
        64        2.0000           -0.4535274             -12.3411
        65        2.0000           -0.4524731             -12.3124
        66        2.0000           -0.4491229             -12.2213
        67        2.0000           -0.4290330             -11.6746 (HOMO)
        68                         -0.3273204              -8.9068 (LUMO)
        69                         -0.3128379              -8.5128
        70                         -0.2863730              -7.7926
        71                         -0.2578969              -7.0177
        72                         -0.2426235              -6.6021
        73                         -0.2011005              -5.4722
        74                         -0.1634246              -4.4470
        75                         -0.1424317              -3.8758
        76                         -0.1383980              -3.7660
        77                         -0.1333450              -3.6285
        78                         -0.1295535              -3.5253
       ...                                ...                  ...
       134                          0.7258612              19.7517
      -------------------------------------------------------------
                  HL-Gap            0.1017126 Eh            2.7677 eV

Wiberg/Mayer (AO) data.
largest (>0.10) Wiberg bond orders for each atom

     #   Z sym  total        # sym  WBO       # sym  WBO       # sym  WBO
 ---------------------------------------------------------------------------
     1   6 C    3.872 --    26 H    0.986    27 H    0.979    28 H    0.979
                             2 O    0.896
     2   8 O    2.206 --     3 C    1.117     1 C    0.896     4 O    0.134
     3   6 C    3.852 --     4 O    1.654     2 O    1.117     5 C    0.999
     4   8 O    1.916 --     3 C    1.654     2 O    0.134
     5   6 C    3.962 --    23 C    1.483     6 N    1.185     3 C    0.999
     6   7 N    3.028 --     7 C    1.589     5 C    1.185
     7   6 C    3.930 --     6 N    1.589    20 N    1.166     8 C    0.981
     8   6 C    3.933 --    10 C    0.990     7 C    0.981     9 C    0.975
                            11 N    0.922
     9   6 C    3.987 --    29 H    0.985    31 H    0.985    30 H    0.977
                             8 C    0.975
    10   6 C    3.989 --     8 C    0.990    33 H    0.985    34 H    0.983
                            32 H    0.982
    11   7 N    3.330 --    12 C    1.239     8 C    0.922    35 H    0.894
                            13 O    0.174
    12   6 C    3.915 --    13 O    1.603    11 N    1.239    14 C    0.989
    13   8 O    1.918 --    12 C    1.603    11 N    0.174
    14   6 C    3.876 --    15 N    1.609    19 O    1.065    12 C    0.989
    15   7 N    3.018 --    14 C    1.609    16 N    1.201
    16   7 N    2.981 --    17 C    1.603    15 N    1.201
    17   6 C    3.870 --    16 N    1.603    19 O    1.083    18 C    1.032
    18   6 C    3.986 --    17 C    1.032    38 H    0.982    36 H    0.966
                            37 H    0.960
    19   8 O    2.331 --    17 C    1.083    14 C    1.065
    20   7 N    3.465 --     7 C    1.166    21 C    1.129    39 H    0.883
                            22 O    0.132
    21   6 C    3.909 --    22 O    1.576    20 N    1.129    23 C    1.066
    22   8 O    1.904 --    21 C    1.576    20 N    0.132
    23   6 C    3.918 --     5 C    1.483    24 O    1.098    21 C    1.066
    24   8 O    2.194 --    23 C    1.098    25 C    0.895
    25   6 C    3.870 --    41 H    0.984    40 H    0.979    42 H    0.978
                            24 O    0.895
    26   1 H    1.011 --     1 C    0.986
    27   1 H    1.008 --     1 C    0.979
    28   1 H    1.007 --     1 C    0.979
    29   1 H    1.001 --     9 C    0.985
    30   1 H    1.009 --     9 C    0.977
    31   1 H    1.001 --     9 C    0.985
    32   1 H    1.006 --    10 C    0.982
    33   1 H    1.004 --    10 C    0.985
    34   1 H    1.010 --    10 C    0.983
    35   1 H    0.951 --    11 N    0.894
    36   1 H    0.996 --    18 C    0.966
    37   1 H    0.996 --    18 C    0.960
    38   1 H    0.998 --    18 C    0.982
    39   1 H    0.929 --    20 N    0.883
    40   1 H    1.014 --    25 C    0.979
    41   1 H    1.012 --    25 C    0.984
    42   1 H    1.014 --    25 C    0.978
 ---------------------------------------------------------------------------

           -------------------------------------------------
          | TOTAL ENERGY              -83.017533048385 Eh   |
          | GRADIENT NORM               0.000513826358 Eh/α |
          | HOMO-LUMO GAP               2.767741023681 eV   |
           -------------------------------------------------

 * finished run on 2023/06/21 at 17:39:17.107
