   * xtb version 6.5.1 (579679a) compiled by 'ehlert@majestix' on 2022-07-11
          program call               : /lustre/hpc/kemi/ree/PhD/git/ReactivityQM/dep/xtb-6.5.1/bin/xtb --gfn 1 /lustre/hpc/kemi/ree/PhD/git/ReactivityQM/calculations/R02deprot/reac01prodN15/conf07/R02deprot_reac01prodN15_conf07_gfn1.xyz --opt --vfukui --chrg 0 --uhf 0 --alpb DMSO

   ID    Z sym.   atoms
    1    6 C      1, 3, 5, 6, 8, 9, 12-15, 17, 19, 22, 23
    2    8 O      2, 4, 7, 10, 18, 24
    3    7 N      11, 16, 20, 21, 25
    4    1 H      26-42

      * Solvation model:               ALPB
        Solvent                        DMSO
        Solvent mass                       7.8130E+01 g/mol
          :  Hamiltonian                  GFN1-xTB          :
 * total energy  :   -82.8635344 Eh     change       -0.1705303E-12 Eh
 * total energy  :   -82.8784831 Eh     change       -0.1494867E-01 Eh
 * total energy  :   -82.8925472 Eh     change       -0.1406409E-01 Eh
 * total energy  :   -82.9006802 Eh     change       -0.8133068E-02 Eh
 * total energy  :   -82.9263678 Eh     change       -0.2568759E-01 Eh
 * total energy  :   -82.9258250 Eh     change        0.5427937E-03 Eh
 * total energy  :   -82.9481749 Eh     change       -0.2234987E-01 Eh
 * total energy  :   -82.9535142 Eh     change       -0.5339307E-02 Eh
 * total energy  :   -82.9379464 Eh     change        0.1556776E-01 Eh
 * total energy  :   -82.9622182 Eh     change       -0.2427178E-01 Eh
 * total energy  :   -82.9849819 Eh     change       -0.8539429E-05 Eh
 * total energy  :   -82.9849892 Eh     change       -0.7267764E-05 Eh
 * total energy  :   -82.9849958 Eh     change       -0.6655840E-05 Eh
 * total energy  :   -82.9850022 Eh     change       -0.6398735E-05 Eh
 * total energy  :   -82.9850085 Eh     change       -0.6253216E-05 Eh
 * total energy  :   -82.9850144 Eh     change       -0.5949006E-05 Eh
 * total energy  :   -82.9850199 Eh     change       -0.5491812E-05 Eh
 * total energy  :   -82.9850250 Eh     change       -0.5061025E-05 Eh
 * total energy  :   -82.9850281 Eh     change       -0.3073108E-05 Eh
   *** GEOMETRY OPTIMIZATION CONVERGED AFTER 94 ITERATIONS ***

 final structure:
================
42
 xtb: 6.5.1 (579679a)
C           -4.85600266586704       -2.97898867911778       -0.83690586523535
O           -3.74240897756961       -2.10437638508720       -0.63011179510063
C           -3.67224488881491       -1.50768421458423        0.55362523684061
O           -4.52494816855851       -1.66942853650952        1.42425366840642
C           -2.50677859114939       -0.64432273657857        0.73710236056407
C           -2.30426031473712       -0.08448448520211        1.97196021278386
O           -3.14378275834270       -0.21440496444683        2.97661476699439
C           -1.00254214556377        1.73363171230800        1.42248302295026
C           -1.07898402494258        3.05055704334672        2.10725757187173
O           -1.18984285790192        0.63880009142735        2.27744572870042
N           -0.76644336996862        1.60355925027776        0.19376574111996
C           -0.77827080248560        0.38438909856960       -0.48880664109044
C            0.21094515932140        0.32207893955495       -1.64214282532619
C            0.08582800297630        1.58853683975360       -2.49830533446630
C           -0.01560206733893       -0.94121087418851       -2.47583583699380
N            1.54170641453847        0.27345765124155       -1.01546617520028
C            2.69381595766537        0.21305407194420       -1.70637650091468
O            2.79839676804573        0.24761015640582       -2.92246623050395
C            3.88230805365077        0.08890852654684       -0.82033404301759
N            5.12874590410822        0.01595030602683       -1.16984049236389
N            5.85280246414353       -0.11833050846489       -0.02201196806036
C            5.00352230310076       -0.12100162632151        0.95710015189563
C            5.28514478218024       -0.25211867531490        2.40315949439561
O            3.73905591098199        0.00795081542250        0.52111907299690
N           -1.59001190981469       -0.58255722221154       -0.31381831042739
H           -4.75176205141893       -3.38306896921958       -1.84183258004707
H           -4.84028963360213       -3.78474860309192       -0.09942682188918
H           -5.79162576136950       -2.42285393818848       -0.74508915329456
H           -3.91456055785075       -0.78418176406455        2.66532514170444
H           -0.94001701235681        3.85467337322159        1.38955724468178
H           -0.31133687165498        3.10398346490567        2.87906488385120
H           -2.04751475734503        3.15037264764424        2.59671638444166
H            0.77748812889840        1.54788645886914       -3.33795677522670
H            0.30572275579632        2.46614429273196       -1.89250709187218
H           -0.93128856479425        1.66789625727417       -2.87919992818289
H           -1.02742310300967       -0.92892774433466       -2.87784849710169
H            0.69553968708695       -0.98448960604941       -3.29877902165691
H            0.10167957058607       -1.82518865145832       -1.85087258971179
H            1.57885337474505        0.22739437297098       -0.01004044086781
H            6.35451479768833       -0.37177876528967        2.55907018983815
H            4.93515979160395        0.63307393536701        2.93385297668764
H            4.75671102935946       -1.11576435608439        2.80650106782500

          :  Hamiltonian                  GFN1-xTB          :
         :: total energy             -82.985028072658 Eh    ::
         :: gradient norm              0.000201824936 Eh/a0 ::
         :: HOMO-LUMO gap              2.702142895859 eV    ::
         :: SCC energy               -83.763441962327 Eh    ::
         :: -> Gsolv                  -0.049275562523 Eh    ::
         :: repulsion energy           0.803656815030 Eh    ::

    * Orbital Energies and Occupations

         #    Occupation            Energy/Eh            Energy/eV
      -------------------------------------------------------------
         1        2.0000           -0.8651152             -23.5410
       ...           ...                  ...                  ...
        55        2.0000           -0.4984200             -13.5627
        56        2.0000           -0.4975707             -13.5396
        57        2.0000           -0.4964877             -13.5101
        58        2.0000           -0.4861892             -13.2299
        59        2.0000           -0.4814752             -13.1016
        60        2.0000           -0.4793415             -13.0435
        61        2.0000           -0.4737199             -12.8906
        62        2.0000           -0.4608276             -12.5398
        63        2.0000           -0.4587745             -12.4839
        64        2.0000           -0.4500265             -12.2458
        65        2.0000           -0.4452829             -12.1168
        66        2.0000           -0.4341572             -11.8140
        67        2.0000           -0.4152777             -11.3003 (HOMO)
        68                         -0.3159758              -8.5981 (LUMO)
        69                         -0.3085356              -8.3957
        70                         -0.2942002              -8.0056
        71                         -0.2565550              -6.9812
        72                         -0.2452416              -6.6734
        73                         -0.1966451              -5.3510
        74                         -0.1833653              -4.9896
        75                         -0.1428760              -3.8879
        76                         -0.1412257              -3.8429
        77                         -0.1359875              -3.7004
        78                         -0.1184181              -3.2223
       ...                                ...                  ...
       134                          0.7292959              19.8452
      -------------------------------------------------------------
                  HL-Gap            0.0993019 Eh            2.7021 eV

Wiberg/Mayer (AO) data.
largest (>0.10) Wiberg bond orders for each atom

     #   Z sym  total        # sym  WBO       # sym  WBO       # sym  WBO
 ---------------------------------------------------------------------------
     1   6 C    3.869 --    26 H    0.986    27 H    0.980    28 H    0.979
                             2 O    0.895
     2   8 O    2.210 --     3 C    1.126     1 C    0.895     4 O    0.116
     3   6 C    3.853 --     4 O    1.546     2 O    1.126     5 C    1.077
     4   8 O    1.943 --     3 C    1.546     2 O    0.116    29 H    0.109
     5   6 C    3.929 --     6 C    1.479    25 N    1.084     3 C    1.077
     6   6 C    3.850 --     5 C    1.479     7 O    1.167    10 O    0.989
     7   8 O    2.109 --     6 C    1.167    29 H    0.720
     8   6 C    3.877 --    11 N    1.780     9 C    1.027    10 O    0.906
     9   6 C    3.987 --     8 C    1.027    30 H    0.982    32 H    0.959
                            31 H    0.957
    10   8 O    2.115 --     6 C    0.989     8 C    0.906
    11   7 N    3.109 --     8 C    1.780    12 C    1.063
    12   6 C    3.940 --    25 N    1.718    11 N    1.063    13 C    0.971
    13   6 C    3.930 --    15 C    0.995    14 C    0.985    12 C    0.971
                            16 N    0.911
    14   6 C    3.988 --    35 H    0.986    13 C    0.985    34 H    0.984
                            33 H    0.981
    15   6 C    3.991 --    13 C    0.995    36 H    0.985    38 H    0.984
                            37 H    0.982
    16   7 N    3.359 --    17 C    1.271    13 C    0.911    39 H    0.896
                            18 O    0.180
    17   6 C    3.919 --    18 O    1.578    16 N    1.271    19 C    0.988
    18   8 O    1.896 --    17 C    1.578    16 N    0.180
    19   6 C    3.870 --    20 N    1.626    24 O    1.046    17 C    0.988
    20   7 N    2.998 --    19 C    1.626    21 N    1.195
    21   7 N    2.981 --    22 C    1.614    20 N    1.195
    22   6 C    3.869 --    21 N    1.614    24 O    1.071    23 C    1.031
    23   6 C    3.987 --    22 C    1.031    40 H    0.982    42 H    0.964
                            41 H    0.963
    24   8 O    2.314 --    22 C    1.071    19 C    1.046
    25   7 N    3.058 --    12 C    1.718     5 C    1.084
    26   1 H    1.011 --     1 C    0.986
    27   1 H    1.007 --     1 C    0.980
    28   1 H    1.007 --     1 C    0.979
    29   1 H    0.841 --     7 O    0.720     4 O    0.109
    30   1 H    1.001 --     9 C    0.982
    31   1 H    0.997 --     9 C    0.957
    32   1 H    0.997 --     9 C    0.959
    33   1 H    1.010 --    14 C    0.981
    34   1 H    1.013 --    14 C    0.984
    35   1 H    1.002 --    14 C    0.986
    36   1 H    1.008 --    15 C    0.985
    37   1 H    1.009 --    15 C    0.982
    38   1 H    1.010 --    15 C    0.984
    39   1 H    0.943 --    16 N    0.896
    40   1 H    0.998 --    23 C    0.982
    41   1 H    0.997 --    23 C    0.963
    42   1 H    0.997 --    23 C    0.964
 ---------------------------------------------------------------------------

           -------------------------------------------------
          | TOTAL ENERGY              -82.985028072658 Eh   |
          | GRADIENT NORM               0.000201824936 Eh/α |
          | HOMO-LUMO GAP               2.702142895859 eV   |
           -------------------------------------------------

 * finished run on 2023/06/20 at 18:24:18.132
