   * xtb version 6.5.1 (579679a) compiled by 'ehlert@majestix' on 2022-07-11
          program call               : /lustre/hpc/kemi/ree/PhD/git/ReactivityQM/dep/xtb-6.5.1/bin/xtb --gfn 1 /lustre/hpc/kemi/ree/PhD/git/ReactivityQM/calculations/R01/reac01prodE01/conf07/R01_reac01prodE01_conf07_gfn1.xyz --opt --vfukui --chrg -1 --uhf 0 --alpb DMSO

   ID    Z sym.   atoms
    1    6 C      1, 3, 4, 6, 9, 10
    2    8 O      2, 5, 11
    3    7 N      7, 8
    4    1 H      12-20

      * Solvation model:               ALPB
        Solvent                        DMSO
        Solvent mass                       7.8130E+01 g/mol
          :  Hamiltonian                  GFN1-xTB          :
 * total energy  :   -38.3303549 Eh     change       -0.3616663E-11 Eh
 * total energy  :   -38.3385756 Eh     change       -0.8220671E-02 Eh
 * total energy  :   -38.3419812 Eh     change       -0.3405574E-02 Eh
 * total energy  :   -38.3426827 Eh     change       -0.7015066E-03 Eh
 * total energy  :   -38.3429432 Eh     change       -0.2605647E-03 Eh
 * total energy  :   -38.3430428 Eh     change       -0.9952115E-04 Eh
 * total energy  :   -38.3431194 Eh     change       -0.7660812E-04 Eh
 * total energy  :   -38.3431589 Eh     change       -0.3956984E-04 Eh
 * total energy  :   -38.3431892 Eh     change       -0.3024323E-04 Eh
 * total energy  :   -38.3432262 Eh     change       -0.3697940E-04 Eh
 * total energy  :   -38.3434526 Eh     change       -0.2672207E-04 Eh
 * total energy  :   -38.3434585 Eh     change       -0.5852425E-05 Eh
 * total energy  :   -38.3435126 Eh     change       -0.5410606E-04 Eh
 * total energy  :   -38.3435420 Eh     change       -0.2944937E-04 Eh
 * total energy  :   -38.3435924 Eh     change       -0.5031331E-04 Eh
 * total energy  :   -38.3436179 Eh     change       -0.2555636E-04 Eh
 * total energy  :   -38.3436475 Eh     change       -0.2956667E-04 Eh
 * total energy  :   -38.3436558 Eh     change       -0.8367838E-05 Eh
 * total energy  :   -38.3436592 Eh     change       -0.3323419E-05 Eh
   *** GEOMETRY OPTIMIZATION CONVERGED AFTER 23 ITERATIONS ***

 final structure:
================
20
 xtb: 6.5.1 (579679a)
C            2.10110533936020        1.38404168326834       -0.46082810215378
O            1.89688958144232       -0.00050420590095       -0.60465522063186
C            1.30706029141069       -0.66891603026484        0.61100438072399
C            1.66587990031762       -2.17020034178630        0.37127883977663
O            1.66662124582347       -0.17421103892229        1.74193455047181
C           -0.25224849677646       -0.56796261092998        0.38244008162572
N           -1.11297360342134       -1.52968044725959        0.51310416956356
N           -2.36875619141506       -0.97492901716036        0.34905063075374
C           -2.17982347081115        0.28337683740689        0.13648721117814
C           -3.21061454140880        1.32100681683010       -0.10954644660248
O           -0.87328565283849        0.61035604407226        0.14774403168416
H            2.79815496170991        1.70575696691189       -1.24037360220042
H            1.16454579908436        1.95215818590839       -0.57595176499444
H            2.53548609062830        1.63039957802200        0.52033320805265
H            2.74309264041197       -2.28407953456691        0.47298854476388
H            1.16599427920147       -2.77761155081064        1.12352121404898
H            1.35648870341615       -2.48934368316057       -0.62216236743099
H           -3.10983385335161        1.72227357241775       -1.11804631363869
H           -4.19973698654796        0.88389290577293        0.00333291893526
H           -3.09404603623558        2.14417487015200        0.59474103607407

          :  Hamiltonian                  GFN1-xTB          :
         :: total energy             -38.343659164798 Eh    ::
         :: gradient norm              0.000925530065 Eh/a0 ::
         :: HOMO-LUMO gap              3.317480754091 eV    ::
         :: SCC energy               -38.653469249918 Eh    ::
         :: -> Gsolv                  -0.102847966666 Eh    ::
         :: repulsion energy           0.318324988847 Eh    ::

    * Orbital Energies and Occupations

         #    Occupation            Energy/Eh            Energy/eV
      -------------------------------------------------------------
         1        2.0000           -0.8204176             -22.3247
       ...           ...                  ...                  ...
        19        2.0000           -0.5074215             -13.8076
        20        2.0000           -0.5025399             -13.6748
        21        2.0000           -0.4801788             -13.0663
        22        2.0000           -0.4727491             -12.8642
        23        2.0000           -0.4628140             -12.5938
        24        2.0000           -0.4615764             -12.5601
        25        2.0000           -0.4457787             -12.1303
        26        2.0000           -0.4390214             -11.9464
        27        2.0000           -0.4177226             -11.3668
        28        2.0000           -0.4146851             -11.2842
        29        2.0000           -0.4040566             -10.9949
        30        2.0000           -0.3681806             -10.0187
        31        2.0000           -0.3498550              -9.5200 (HOMO)
        32                         -0.2279398              -6.2026 (LUMO)
        33                         -0.2133307              -5.8050
        34                         -0.1302097              -3.5432
        35                         -0.0992065              -2.6995
        36                         -0.0843744              -2.2959
        37                         -0.0631016              -1.7171
        38                         -0.0620575              -1.6887
        39                         -0.0360383              -0.9807
        40                         -0.0326371              -0.8881
        41                         -0.0282125              -0.7677
        42                         -0.0258072              -0.7023
       ...                                ...                  ...
        62                          0.6075308              16.5318
      -------------------------------------------------------------
                  HL-Gap            0.1219152 Eh            3.3175 eV

Wiberg/Mayer (AO) data.
largest (>0.10) Wiberg bond orders for each atom

     #   Z sym  total        # sym  WBO       # sym  WBO       # sym  WBO
 ---------------------------------------------------------------------------
     1   6 C    3.931 --    12 H    0.985    13 H    0.980    14 H    0.975
                             2 O    0.970
     2   8 O    1.945 --     1 C    0.970     3 C    0.794
     3   6 C    3.901 --     5 O    1.253     4 C    0.939     6 C    0.866
                             2 O    0.794
     4   6 C    3.993 --    17 H    0.990    16 H    0.988    15 H    0.987
                             3 C    0.939
     5   8 O    1.553 --     3 C    1.253
     6   6 C    3.805 --     7 N    1.652    11 O    1.053     3 C    0.866
     7   7 N    2.966 --     6 C    1.652     8 N    1.148
     8   7 N    2.976 --     9 C    1.655     7 N    1.148
     9   6 C    3.888 --     8 N    1.655    11 O    1.065    10 C    1.024
    10   6 C    3.993 --     9 C    1.024    19 H    0.985    20 H    0.972
                            18 H    0.968
    11   8 O    2.307 --     9 C    1.065     6 C    1.053
    12   1 H    1.022 --     1 C    0.985
    13   1 H    1.024 --     1 C    0.980
    14   1 H    1.032 --     1 C    0.975
    15   1 H    1.017 --     4 C    0.987
    16   1 H    1.020 --     4 C    0.988
    17   1 H    1.015 --     4 C    0.990
    18   1 H    1.002 --    10 C    0.968
    19   1 H    1.003 --    10 C    0.985
    20   1 H    1.001 --    10 C    0.972
 ---------------------------------------------------------------------------

           -------------------------------------------------
          | TOTAL ENERGY              -38.343659164798 Eh   |
          | GRADIENT NORM               0.000925530065 Eh/α |
          | HOMO-LUMO GAP               3.317480754091 eV   |
           -------------------------------------------------

 * finished run on 2023/06/20 at 14:52:37.529
