   * xtb version 6.5.1 (579679a) compiled by 'ehlert@majestix' on 2022-07-11
          program call               : /lustre/hpc/kemi/ree/PhD/git/ReactivityQM/dep/xtb-6.5.1/bin/xtb --gfn 1 /lustre/hpc/kemi/ree/PhD/git/ReactivityQM/calculations/R02deprot/reac01prodN06/conf01/R02deprot_reac01prodN06_conf01_gfn1.xyz --opt --vfukui --chrg 0 --uhf 0 --alpb DMSO

   ID    Z sym.   atoms
    1    6 C      1, 3, 5, 6, 8, 11-14, 16, 18, 21, 22, 25
    2    8 O      2, 4, 7, 9, 17, 23
    3    7 N      10, 15, 19, 20, 24
    4    1 H      26-42

      * Solvation model:               ALPB
        Solvent                        DMSO
        Solvent mass                       7.8130E+01 g/mol
          :  Hamiltonian                  GFN1-xTB          :
 * total energy  :   -82.9749695 Eh     change       -0.1999467E-10 Eh
 * total energy  :   -82.9879933 Eh     change       -0.1302376E-01 Eh
 * total energy  :   -82.9928026 Eh     change       -0.4809357E-02 Eh
 * total energy  :   -82.9936471 Eh     change       -0.8444551E-03 Eh
 * total energy  :   -82.9939809 Eh     change       -0.3338210E-03 Eh
 * total energy  :   -82.9941392 Eh     change       -0.1583238E-03 Eh
 * total energy  :   -82.9942824 Eh     change       -0.1431667E-03 Eh
 * total energy  :   -82.9943940 Eh     change       -0.1116405E-03 Eh
 * total energy  :   -82.9944806 Eh     change       -0.8656215E-04 Eh
 * total energy  :   -82.9945466 Eh     change       -0.6600472E-04 Eh
 * total energy  :   -82.9956388 Eh     change       -0.2664217E-04 Eh
 * total energy  :   -82.9956588 Eh     change       -0.2002144E-04 Eh
 * total energy  :   -82.9956808 Eh     change       -0.2198992E-04 Eh
 * total energy  :   -82.9957356 Eh     change       -0.5478514E-04 Eh
 * total energy  :   -82.9957529 Eh     change       -0.1734058E-04 Eh
 * total energy  :   -82.9957730 Eh     change       -0.2005782E-04 Eh
 * total energy  :   -82.9957897 Eh     change       -0.1670422E-04 Eh
 * total energy  :   -82.9957999 Eh     change       -0.1022395E-04 Eh
 * total energy  :   -82.9958048 Eh     change       -0.4898558E-05 Eh
   *** GEOMETRY OPTIMIZATION CONVERGED AFTER 40 ITERATIONS ***

 final structure:
================
42
 xtb: 6.5.1 (579679a)
C           -2.81860155527652        3.79970490358849        0.81129149229825
O           -2.45863335720968        2.44972282868134        0.48678957642383
C           -3.39706951343640        1.52268019640196        0.67873119688654
O           -4.50135695791844        1.77142906565812        1.09224822385490
C           -2.95588154883406        0.15192421944794        0.25777602917348
C           -3.79622342604483       -0.65975101757659       -0.43909601531646
O           -5.05274025131228       -0.32349698305858       -0.75270371979764
C           -3.33633872916679       -1.96324396998143       -0.94006848946768
O           -4.11402225642489       -2.69844035525003       -1.53819667679549
N           -2.02017221149112       -2.25732296361267       -0.71604375425101
C           -1.24190199870924       -1.46991460705082       -0.02758270698975
C            0.18404628101932       -1.99026771067169        0.13758610494109
C            0.29669459793253       -2.73403789163400        1.47741358869046
C            0.51070021965938       -2.95881385309387       -1.01047348508847
N            1.11271032332036       -0.86090722013370        0.04933680715895
C            2.44245168654981       -0.95547664150942        0.29122384548341
O            3.01729845136609       -1.91657076225243        0.76435512207475
C            3.11926852157572        0.31421289847535       -0.07863354405284
N            2.54214335093100        1.36775576463289       -0.57536034825859
N            3.52035847914287        2.29369079557432       -0.77556162348679
C            4.63332920155943        1.74515374393675       -0.38992207360493
C            5.98904351720616        2.33685296713608       -0.41209247874558
O            4.44422610500041        0.49574887050027        0.05999682234265
N           -1.66259622806340       -0.30200415453775        0.51759820981026
C           -0.86081554296082        0.47603349912103        1.46584271637539
H           -3.09351924211754        3.86800826726759        1.86587514248583
H           -3.65992794037609        4.12049473777192        0.19300288690330
H           -1.94157322596683        4.40938012335618        0.60693719109696
H           -5.43984670789675       -1.05988878939304       -1.26648662601977
H           -0.52342550398933       -3.44706716906882        1.55052932145693
H            1.23886323294071       -3.27583005944244        1.52735373854815
H            0.24405191080996       -2.05127543184061        2.32193179239638
H           -0.15912384994438       -3.81590313911588       -0.97677268921736
H            1.53828024326666       -3.30276147014656       -0.90686496716348
H            0.39578831944484       -2.45597002550143       -1.96897760714265
H            0.81346045059432       -0.06903807874748       -0.50104622761563
H            5.92946589423192        3.37834225190456       -0.71908320291496
H            6.44137548249908        2.26944864555113        0.57715078066883
H            6.62154632411979        1.78810681905416       -1.11126920143489
H           -0.12604700566656       -0.16219251362043        1.94257115953274
H           -0.35366716510720        1.28873577268257        0.94810795185628
H           -1.52161537525921        0.88274943650530        2.22841373690429

          :  Hamiltonian                  GFN1-xTB          :
         :: total energy             -82.995804796833 Eh    ::
         :: gradient norm              0.000865567009 Eh/a0 ::
         :: HOMO-LUMO gap              3.007358039933 eV    ::
         :: SCC energy               -83.776612067366 Eh    ::
         :: -> Gsolv                  -0.054472506625 Eh    ::
         :: repulsion energy           0.807778752395 Eh    ::

    * Orbital Energies and Occupations

         #    Occupation            Energy/Eh            Energy/eV
      -------------------------------------------------------------
         1        2.0000           -0.8660423             -23.5662
       ...           ...                  ...                  ...
        55        2.0000           -0.5062257             -13.7751
        56        2.0000           -0.5048502             -13.7377
        57        2.0000           -0.5005336             -13.6202
        58        2.0000           -0.4905300             -13.3480
        59        2.0000           -0.4853426             -13.2068
        60        2.0000           -0.4779364             -13.0053
        61        2.0000           -0.4761570             -12.9569
        62        2.0000           -0.4685835             -12.7508
        63        2.0000           -0.4628514             -12.5948
        64        2.0000           -0.4551049             -12.3840
        65        2.0000           -0.4496653             -12.2360
        66        2.0000           -0.4289006             -11.6710
        67        2.0000           -0.4281769             -11.6513 (HOMO)
        68                         -0.3176586              -8.6439 (LUMO)
        69                         -0.3145403              -8.5591
        70                         -0.2954087              -8.0385
        71                         -0.2591067              -7.0507
        72                         -0.2498689              -6.7993
        73                         -0.2025547              -5.5118
        74                         -0.1681458              -4.5755
        75                         -0.1444564              -3.9309
        76                         -0.1429435              -3.8897
        77                         -0.1424590              -3.8765
        78                         -0.1296051              -3.5267
       ...                                ...                  ...
       134                          0.7291088              19.8401
      -------------------------------------------------------------
                  HL-Gap            0.1105184 Eh            3.0074 eV

Wiberg/Mayer (AO) data.
largest (>0.10) Wiberg bond orders for each atom

     #   Z sym  total        # sym  WBO       # sym  WBO       # sym  WBO
 ---------------------------------------------------------------------------
     1   6 C    3.861 --    28 H    0.986    26 H    0.980    27 H    0.980
                             2 O    0.886
     2   8 O    2.205 --     3 C    1.111     1 C    0.886     4 O    0.136
     3   6 C    3.853 --     4 O    1.684     2 O    1.111     5 C    0.980
     4   8 O    1.944 --     3 C    1.684     2 O    0.136
     5   6 C    3.927 --     6 C    1.542    24 N    1.088     3 C    0.980
     6   6 C    3.915 --     5 C    1.542     7 O    1.106     8 C    1.036
     7   8 O    2.077 --     6 C    1.106    29 H    0.805
     8   6 C    3.918 --     9 O    1.577    10 N    1.167     6 C    1.036
     9   8 O    1.895 --     8 C    1.577
    10   7 N    3.015 --    11 C    1.507     8 C    1.167
    11   6 C    3.930 --    10 N    1.507    24 N    1.251    12 C    0.976
    12   6 C    3.932 --    14 C    0.986    13 C    0.979    11 C    0.976
                            15 N    0.925
    13   6 C    3.987 --    30 H    0.984    12 C    0.979    32 H    0.977
                            31 H    0.977
    14   6 C    3.989 --    12 C    0.986    35 H    0.985    34 H    0.983
                            33 H    0.982
    15   7 N    3.331 --    16 C    1.232    12 C    0.925    36 H    0.896
                            17 O    0.172
    16   6 C    3.915 --    17 O    1.608    15 N    1.232    18 C    0.989
    17   8 O    1.922 --    16 C    1.608    15 N    0.172
    18   6 C    3.876 --    19 N    1.607    23 O    1.066    16 C    0.989
    19   7 N    3.020 --    18 C    1.607    20 N    1.202
    20   7 N    2.981 --    21 C    1.603    19 N    1.202
    21   6 C    3.870 --    20 N    1.603    23 O    1.083    22 C    1.032
    22   6 C    3.986 --    21 C    1.032    37 H    0.982    38 H    0.965
                            39 H    0.961
    23   8 O    2.332 --    21 C    1.083    18 C    1.066
    24   7 N    3.519 --    11 C    1.251     5 C    1.088    25 C    0.925
    25   6 C    3.923 --    42 H    0.979    40 H    0.975    41 H    0.975
                            24 N    0.925
    26   1 H    1.005 --     1 C    0.980
    27   1 H    1.006 --     1 C    0.980
    28   1 H    1.009 --     1 C    0.986
    29   1 H    0.850 --     7 O    0.805
    30   1 H    1.002 --    13 C    0.984
    31   1 H    1.011 --    13 C    0.977
    32   1 H    1.002 --    13 C    0.977
    33   1 H    1.014 --    14 C    0.982
    34   1 H    1.004 --    14 C    0.983
    35   1 H    1.005 --    14 C    0.985
    36   1 H    0.955 --    15 N    0.896
    37   1 H    0.998 --    22 C    0.982
    38   1 H    0.996 --    22 C    0.965
    39   1 H    0.996 --    22 C    0.961
    40   1 H    1.010 --    25 C    0.975
    41   1 H    1.011 --    25 C    0.975
    42   1 H    1.000 --    25 C    0.979
 ---------------------------------------------------------------------------

           -------------------------------------------------
          | TOTAL ENERGY              -82.995804796833 Eh   |
          | GRADIENT NORM               0.000865567009 Eh/α |
          | HOMO-LUMO GAP               3.007358039933 eV   |
           -------------------------------------------------

 * finished run on 2023/06/20 at 18:12:24.205
