   * xtb version 6.5.1 (579679a) compiled by 'ehlert@majestix' on 2022-07-11
          program call               : /lustre/hpc/kemi/ree/PhD/git/ReactivityQM/dep/xtb-6.5.1/bin/xtb --gfn 1 /lustre/hpc/kemi/ree/PhD/git/ReactivityQM/calculations/R02methylcation/reac01prodE05/conf10/R02methylcation_reac01prodE05_conf10_gfn1.xyz --opt --vfukui --chrg -2 --uhf 0 --alpb DMSO

   ID    Z sym.   atoms
    1    6 C      1, 3, 5, 6, 8, 11-14, 16, 18, 21, 22, 25
    2    8 O      2, 4, 7, 9, 17, 23
    3    7 N      10, 15, 19, 20, 24
    4    1 H      26-42

      * Solvation model:               ALPB
        Solvent                        DMSO
        Solvent mass                       7.8130E+01 g/mol
          :  Hamiltonian                  GFN1-xTB          :
 * total energy  :   -83.5583145 Eh     change       -0.3936407E-11 Eh
 * total energy  :   -83.5700264 Eh     change       -0.1171190E-01 Eh
 * total energy  :   -83.5746027 Eh     change       -0.4576236E-02 Eh
 * total energy  :   -83.5757959 Eh     change       -0.1193258E-02 Eh
 * total energy  :   -83.5769972 Eh     change       -0.1201293E-02 Eh
 * total energy  :   -83.5775356 Eh     change       -0.5383994E-03 Eh
 * total energy  :   -83.5778661 Eh     change       -0.3304631E-03 Eh
 * total energy  :   -83.5780655 Eh     change       -0.1994222E-03 Eh
 * total energy  :   -83.5782043 Eh     change       -0.1388145E-03 Eh
 * total energy  :   -83.5783138 Eh     change       -0.1094619E-03 Eh
 * total energy  :   -83.5855487 Eh     change       -0.1528467E-04 Eh
 * total energy  :   -83.5855693 Eh     change       -0.2054884E-04 Eh
 * total energy  :   -83.5855839 Eh     change       -0.1464249E-04 Eh
 * total energy  :   -83.5856015 Eh     change       -0.1756649E-04 Eh
 * total energy  :   -83.5856291 Eh     change       -0.2766100E-04 Eh
 * total energy  :   -83.5856502 Eh     change       -0.2112301E-04 Eh
 * total energy  :   -83.5856645 Eh     change       -0.1423144E-04 Eh
 * total energy  :   -83.5856708 Eh     change       -0.6327347E-05 Eh
 * total energy  :   -83.5856748 Eh     change       -0.4002084E-05 Eh
   *** GEOMETRY OPTIMIZATION CONVERGED AFTER 90 ITERATIONS ***

 final structure:
================
42
 xtb: 6.5.1 (579679a)
C           -5.45219499851515        1.84102720026081        0.99805657586228
O           -4.74167897491324        0.84692862748037        0.28903525473380
C           -3.38724111991322        1.08579660961864        0.12895749276685
O           -2.90539884785554        2.12524527641262        0.60460919307043
C           -2.67782902570347        0.08809719741773       -0.59515467146031
C           -3.21182868587176       -1.11783118110006       -1.09538909534659
O           -4.39693420621120       -1.51611385087762       -0.97911049739233
C           -2.20467763209444       -2.03349467770519       -1.77504677972467
O           -2.51963222186573       -2.91271526758442       -2.60499719008655
N           -0.92435513692487       -1.89562562823614       -1.37081762237690
C           -0.37151154239253       -0.72940074477125       -0.74570108491706
C            0.20817189191505       -0.96339379300413        0.65730537357469
C           -0.63065522523953       -0.35654328237151        1.79757639316502
C            0.45605721611086       -2.45454635222679        0.92611608543026
N            1.53212753097827       -0.26703287000012        0.63378777741599
C            2.46307537454073       -0.32697057737910        1.60708187836791
O            2.27205478192483       -0.73726734878274        2.75972591635619
C            3.77895602172904        0.18853097523780        1.19699287909561
N            4.83819366619832        0.35389822261539        1.95369550573401
N            5.82280544607533        0.85478210706477        1.14722512138369
C            5.31896441370347        0.96592728085350       -0.03926882248172
C            5.99518021205750        1.45362577154918       -1.26373868371523
O            4.03168244910547        0.56942923338664       -0.08876825903126
N           -1.27106473694617        0.40416299292848       -0.81499646326972
C           -1.08259687582350        1.14553566772211       -2.07453673757017
H           -5.06135380577197        1.96215685287479        2.01565599487854
H           -5.39484438364194        2.81081581172962        0.48927085954363
H           -6.49431797302565        1.52295580380879        1.04877992410045
H           -0.26716547794167       -2.52395156794309       -1.80631769147565
H           -0.13849593287102       -0.49456410356137        2.76022225116507
H           -0.77764519762871        0.71057903120098        1.62356144448310
H           -1.60449961051584       -0.84682685007092        1.83001573375150
H           -0.48556293122781       -3.00134993809766        0.86874660513718
H            1.14407870738627       -2.86356232615270        0.18750384292301
H            0.88343372968014       -2.60335811068645        1.91769439076489
H            1.84936800133768       -0.03220156175202       -0.29645106174263
H            5.96536354776724        0.68810025318348       -2.03818657502578
H            7.02973473630985        1.69674453982723       -1.03550687067954
H            5.49130621246150        2.34056378796982       -1.64708139400327
H           -1.62633833150240        2.09216005234630       -2.02498916264784
H           -0.01812936650749        1.35049209389548       -2.19603140437946
H           -1.43459869840419        0.57919564288934       -2.94952642638403

          :  Hamiltonian                  GFN1-xTB          :
         :: total energy             -83.585674804140 Eh    ::
         :: gradient norm              0.000754715844 Eh/a0 ::
         :: HOMO-LUMO gap              0.132037680183 eV    ::
         :: SCC energy               -84.306207928087 Eh    ::
         :: -> Gsolv                  -0.274550067339 Eh    ::
         :: repulsion energy           0.747618555960 Eh    ::

    * Orbital Energies and Occupations

         #    Occupation            Energy/Eh            Energy/eV
      -------------------------------------------------------------
         1        2.0000           -0.8311035             -22.6155
       ...           ...                  ...                  ...
        56        2.0000           -0.4376517             -11.9091
        57        2.0000           -0.4344171             -11.8211
        58        2.0000           -0.4279297             -11.6446
        59        2.0000           -0.4263122             -11.6005
        60        2.0000           -0.4146560             -11.2834
        61        2.0000           -0.4130406             -11.2394
        62        2.0000           -0.4031442             -10.9701
        63        2.0000           -0.4000758             -10.8866
        64        2.0000           -0.3858023             -10.4982
        65        2.0000           -0.3557276              -9.6798
        66        2.0000           -0.3386653              -9.2156
        67        2.0000           -0.3192664              -8.6877
        68        1.8556           -0.2815911              -7.6625 (HOMO)
        69        0.1444           -0.2767388              -7.5304 (LUMO)
        70                         -0.2303723              -6.2687
        71                         -0.2265133              -6.1637
        72                         -0.1618963              -4.4054
        73                         -0.1604446              -4.3659
        74                         -0.1312708              -3.5721
        75                         -0.1093811              -2.9764
        76                         -0.1004521              -2.7334
        77                         -0.0906930              -2.4679
        78                         -0.0789852              -2.1493
        79                         -0.0772210              -2.1013
       ...                                ...                  ...
       134                          0.7478958              20.3513
      -------------------------------------------------------------
                  HL-Gap            0.0048523 Eh            0.1320 eV

Wiberg/Mayer (AO) data.
largest (>0.10) Wiberg bond orders for each atom

     #   Z sym  total        # sym  WBO       # sym  WBO       # sym  WBO
 ---------------------------------------------------------------------------
     1   6 C    3.916 --    28 H    0.987    26 H    0.980    27 H    0.980
                             2 O    0.946
     2   8 O    2.112 --     3 C    0.982     1 C    0.946
     3   6 C    3.851 --     4 O    1.496     5 C    1.241     2 O    0.982
     4   8 O    1.808 --     3 C    1.496
     5   6 C    3.888 --     6 C    1.318     3 C    1.241    24 N    0.966
                             7 O    0.129
     6   6 C    3.935 --     7 O    1.479     5 C    1.318     8 C    0.952
     7   8 O    1.779 --     6 C    1.479     5 C    0.129
     8   6 C    3.876 --     9 O    1.479    10 N    1.262     6 C    0.952
     9   8 O    1.749 --     8 C    1.479    10 N    0.151
    10   7 N    3.379 --     8 C    1.262    11 C    0.960    29 H    0.915
                             9 O    0.151
    11   6 C    3.307 --    24 N    0.974    12 C    0.971    10 N    0.960
    12   6 C    3.902 --    14 C    0.993    13 C    0.988    11 C    0.971
                            15 N    0.880
    13   6 C    3.990 --    12 C    0.988    32 H    0.986    30 H    0.983
                            31 H    0.983
    14   6 C    3.993 --    12 C    0.993    34 H    0.986    33 H    0.985
                            35 H    0.984
    15   7 N    3.316 --    16 C    1.262    36 H    0.907    12 C    0.880
                            17 O    0.165
    16   6 C    3.882 --    17 O    1.496    15 N    1.262    18 C    1.031
    17   8 O    1.800 --    16 C    1.496    15 N    0.165
    18   6 C    3.794 --    19 N    1.540    16 C    1.031    23 O    1.015
    19   7 N    2.879 --    18 C    1.540    20 N    1.186
    20   7 N    2.979 --    21 C    1.626    19 N    1.186
    21   6 C    3.848 --    20 N    1.626    23 O    1.061    22 C    1.027
    22   6 C    3.991 --    21 C    1.027    38 H    0.984    37 H    0.968
                            39 H    0.967
    23   8 O    2.264 --    21 C    1.061    18 C    1.015
    24   7 N    3.053 --    11 C    0.974    25 C    0.970     5 C    0.966
    25   6 C    3.981 --    41 H    0.988    40 H    0.988    42 H    0.982
                            24 N    0.970
    26   1 H    1.020 --     1 C    0.980
    27   1 H    1.020 --     1 C    0.980
    28   1 H    1.019 --     1 C    0.987
    29   1 H    0.979 --    10 N    0.915
    30   1 H    1.019 --    13 C    0.983
    31   1 H    1.030 --    13 C    0.983
    32   1 H    1.015 --    13 C    0.986
    33   1 H    1.014 --    14 C    0.985
    34   1 H    1.008 --    14 C    0.986
    35   1 H    1.015 --    14 C    0.984
    36   1 H    0.988 --    15 N    0.907
    37   1 H    0.999 --    22 C    0.968
    38   1 H    1.002 --    22 C    0.984
    39   1 H    0.999 --    22 C    0.967
    40   1 H    1.024 --    25 C    0.988
    41   1 H    1.036 --    25 C    0.988
    42   1 H    1.012 --    25 C    0.982
 ---------------------------------------------------------------------------

           -------------------------------------------------
          | TOTAL ENERGY              -83.585674804140 Eh   |
          | GRADIENT NORM               0.000754715844 Eh/α |
          | HOMO-LUMO GAP               0.132037680183 eV   |
           -------------------------------------------------

 * finished run on 2023/06/21 at 17:12:40.386
