                         Program Version 5.0.1 -  RELEASE  -
|  1> # ORCA input file
|  2> ! SP r2SCAN-3c CPCM
|  3>
|  4> %maxcore 1875.0
|  5> %pal nprocs 4 end
|  6> %cpcm smd true SMDsolvent "DMSO" end
|  7>
|  8> *xyz 1 1
|  9> C      -3.042216   -2.633536   -0.544590
| 10> O      -3.962987   -1.594704   -0.911467
| 11> C      -3.788224   -0.321764   -0.810332
| 12> O      -4.773678    0.415846   -1.188163
| 13> C      -5.985059   -0.189792   -1.674807
| 14> C      -2.606522    0.348596   -0.312723
| 15> N      -1.532605   -0.443892    0.030632
| 16> C      -0.445928    0.098653    0.466628
| 17> C       0.733622   -0.751171    0.880034
| 18> C       0.778764   -0.820211    2.410217
| 19> C       0.647888   -2.150212    0.265988
| 20> N       1.950734   -0.084824    0.421375
| 21> C       2.073844    0.298525   -0.873545
| 22> O       1.150248    0.303136   -1.670299
| 23> C       3.438408    0.754774   -1.212159
| 24> N       3.867726    1.235486   -2.337245
| 25> N       5.191936    1.501675   -2.170942
| 26> C       5.492254    1.166112   -0.953961
| 27> C       6.805789    1.256844   -0.281255
| 28> O       4.426135    0.686696   -0.293467
| 29> N      -0.316031    1.445833    0.647690
| 30> C      -1.299511    2.342312    0.340080
| 31> O      -1.197039    3.545669    0.479909
| 32> C      -2.528141    1.721723   -0.184847
| 33> O      -3.499851    2.556926   -0.491189
| 34> H      -2.139764   -2.561022   -1.150398
| 35> H      -2.789263   -2.550171    0.511540
| 36> H      -3.568139   -3.566212   -0.744316
| 37> H      -6.643607    0.634003   -1.939361
| 38> H      -5.760517   -0.807448   -2.544715
| 39> H      -6.422940   -0.804738   -0.888315
| 40> H       1.628337   -1.423672    2.723723
| 41> H       0.878041    0.179128    2.829520
| 42> H      -0.136606   -1.274499    2.784791
| 43> H       1.548379   -2.710555    0.508750
| 44> H       0.548064   -2.077398   -0.816292
| 45> H      -0.216031   -2.673716    0.669938
| 46> H       2.774160   -0.165801    0.995083
| 47> H       7.114625    0.268702    0.059354
| 48> H       6.729062    1.902849    0.593189
| 49> H       7.546905    1.656804   -0.969512
| 50> H       0.552611    1.809942    1.015764
| 51> H      -3.222870    3.475101   -0.290003
| 52> **                         ****END OF INPUT****

CARTESIAN COORDINATES (ANGSTROEM)
---------------------------------
  C     -3.042216   -2.633536   -0.544590
  O     -3.962987   -1.594704   -0.911467
  C     -3.788224   -0.321764   -0.810332
  O     -4.773678    0.415846   -1.188163
  C     -5.985059   -0.189792   -1.674807
  C     -2.606522    0.348596   -0.312723
  N     -1.532605   -0.443892    0.030632
  C     -0.445928    0.098653    0.466628
  C      0.733622   -0.751171    0.880034
  C      0.778764   -0.820211    2.410217
  C      0.647888   -2.150212    0.265988
  N      1.950734   -0.084824    0.421375
  C      2.073844    0.298525   -0.873545
  O      1.150248    0.303136   -1.670299
  C      3.438408    0.754774   -1.212159
  N      3.867726    1.235486   -2.337245
  N      5.191936    1.501675   -2.170942
  C      5.492254    1.166112   -0.953961
  C      6.805789    1.256844   -0.281255
  O      4.426135    0.686696   -0.293467
  N     -0.316031    1.445833    0.647690
  C     -1.299511    2.342312    0.340080
  O     -1.197039    3.545669    0.479909
  C     -2.528141    1.721723   -0.184847
  O     -3.499851    2.556926   -0.491189
  H     -2.139764   -2.561022   -1.150398
  H     -2.789263   -2.550171    0.511540
  H     -3.568139   -3.566212   -0.744316
  H     -6.643607    0.634003   -1.939361
  H     -5.760517   -0.807448   -2.544715
  H     -6.422940   -0.804738   -0.888315
  H      1.628337   -1.423672    2.723723
  H      0.878041    0.179128    2.829520
  H     -0.136606   -1.274499    2.784791
  H      1.548379   -2.710555    0.508750
  H      0.548064   -2.077398   -0.816292
  H     -0.216031   -2.673716    0.669938
  H      2.774160   -0.165801    0.995083
  H      7.114625    0.268702    0.059354
  H      6.729062    1.902849    0.593189
  H      7.546905    1.656804   -0.969512
  H      0.552611    1.809942    1.015764
  H     -3.222870    3.475101   -0.290003

 Total Charge           Charge          ....    1
 Multiplicity           Mult            ....    1
 Number of Electrons    NEL             ....  184
 Basis Dimension        Dim             ....  620

ORBITAL ENERGIES
----------------

  NO   OCC          E(Eh)            E(eV)
   0   2.0000     -19.070394      -518.9318
   1   2.0000     -19.066126      -518.8157
   2   2.0000     -19.062481      -518.7165
   3   2.0000     -19.032648      -517.9047
   4   2.0000     -18.958891      -515.8977
   5   2.0000     -18.947048      -515.5754
   6   2.0000     -14.243943      -387.5974
   7   2.0000     -14.210541      -386.6885
   8   2.0000     -14.210539      -386.6884
   9   2.0000     -14.201474      -386.4417
  10   2.0000     -14.182873      -385.9356
  11   2.0000     -10.239013      -278.6177
  12   2.0000     -10.172790      -276.8157
  13   2.0000     -10.166457      -276.6434
  14   2.0000     -10.156974      -276.3853
  15   2.0000     -10.151877      -276.2466
  16   2.0000     -10.148313      -276.1496
  17   2.0000     -10.144253      -276.0392
  18   2.0000     -10.126477      -275.5554
  19   2.0000     -10.112185      -275.1665
  20   2.0000     -10.103114      -274.9197
  21   2.0000     -10.100481      -274.8481
  22   2.0000     -10.047697      -273.4117
  23   2.0000     -10.033732      -273.0317
  24   2.0000     -10.024874      -272.7907
  25   2.0000      -1.160550       -31.5802
  26   2.0000      -1.160450       -31.5774
  27   2.0000      -1.093004       -29.7422
  28   2.0000      -1.080303       -29.3965
  29   2.0000      -1.045032       -28.4368
  30   2.0000      -1.035981       -28.1905
  31   2.0000      -0.988367       -26.8948
  32   2.0000      -0.980810       -26.6892
  33   2.0000      -0.923907       -25.1408
  34   2.0000      -0.903517       -24.5859
  35   2.0000      -0.837428       -22.7876
  36   2.0000      -0.812498       -22.1092
  37   2.0000      -0.776660       -21.1340
  38   2.0000      -0.752428       -20.4746
  39   2.0000      -0.725120       -19.7315
  40   2.0000      -0.717308       -19.5190
  41   2.0000      -0.689857       -18.7720
  42   2.0000      -0.674320       -18.3492
  43   2.0000      -0.671258       -18.2659
  44   2.0000      -0.663602       -18.0575
  45   2.0000      -0.607696       -16.5362
  46   2.0000      -0.599961       -16.3258
  47   2.0000      -0.590491       -16.0681
  48   2.0000      -0.582626       -15.8541
  49   2.0000      -0.570316       -15.5191
  50   2.0000      -0.560556       -15.2535
  51   2.0000      -0.548772       -14.9329
  52   2.0000      -0.538742       -14.6599
  53   2.0000      -0.529211       -14.4006
  54   2.0000      -0.517114       -14.0714
  55   2.0000      -0.512560       -13.9475
  56   2.0000      -0.499446       -13.5906
  57   2.0000      -0.472016       -12.8442
  58   2.0000      -0.463358       -12.6086
  59   2.0000      -0.461548       -12.5594
  60   2.0000      -0.448749       -12.2111
  61   2.0000      -0.443167       -12.0592
  62   2.0000      -0.439631       -11.9630
  63   2.0000      -0.432423       -11.7668
  64   2.0000      -0.425864       -11.5883
  65   2.0000      -0.423107       -11.5133
  66   2.0000      -0.417998       -11.3743
  67   2.0000      -0.409970       -11.1559
  68   2.0000      -0.400776       -10.9057
  69   2.0000      -0.393288       -10.7019
  70   2.0000      -0.388114       -10.5611
  71   2.0000      -0.384114       -10.4523
  72   2.0000      -0.382775       -10.4158
  73   2.0000      -0.375266       -10.2115
  74   2.0000      -0.366791        -9.9809
  75   2.0000      -0.365541        -9.9469
  76   2.0000      -0.358809        -9.7637
  77   2.0000      -0.356073        -9.6892
  78   2.0000      -0.349263        -9.5039
  79   2.0000      -0.348686        -9.4882
  80   2.0000      -0.344498        -9.3743
  81   2.0000      -0.331716        -9.0264
  82   2.0000      -0.322896        -8.7865
  83   2.0000      -0.319137        -8.6842
  84   2.0000      -0.305856        -8.3228
  85   2.0000      -0.276834        -7.5330
  86   2.0000      -0.273081        -7.4309
  87   2.0000      -0.271680        -7.3928
  88   2.0000      -0.267624        -7.2824
  89   2.0000      -0.260856        -7.0982
  90   2.0000      -0.255195        -6.9442
  91   2.0000      -0.232811        -6.3351
  92   0.0000      -0.139471        -3.7952
  93   0.0000      -0.095309        -2.5935
  94   0.0000      -0.056574        -1.5394
  95   0.0000      -0.031064        -0.8453
  96   0.0000      -0.024604        -0.6695

MULLIKEN ATOMIC CHARGES
-----------------------
   0 C :   -0.312090
   1 O :   -0.139827
   2 C :    0.267835
   3 O :   -0.138255
   4 C :   -0.294886
   5 C :    0.145113
   6 N :   -0.093328
   7 C :    0.151194
   8 C :    0.088161
   9 C :   -0.520181
  10 C :   -0.604933
  11 N :   -0.206324
  12 C :   -0.102808
  13 O :   -0.413813
  14 C :    0.423448
  15 N :   -0.164279
  16 N :   -0.281319
  17 C :    0.400993
  18 C :   -0.630773
  19 O :   -0.055789
  20 N :   -0.023880
  21 C :    0.111859
  22 O :   -0.429851
  23 C :    0.156277
  24 O :   -0.339935
  25 H :    0.202977
  26 H :    0.200494
  27 H :    0.188973
  28 H :    0.200215
  29 H :    0.199306
  30 H :    0.199586
  31 H :    0.193885
  32 H :    0.191092
  33 H :    0.199377
  34 H :    0.189445
  35 H :    0.199732
  36 H :    0.189824
  37 H :    0.324299
  38 H :    0.202292
  39 H :    0.202558
  40 H :    0.206233
  41 H :    0.340678
  42 H :    0.376429
Sum of atomic charges:    1.0000000

LOEWDIN ATOMIC CHARGES
----------------------
   0 C :    0.009053
   1 O :   -0.499697
   2 C :    0.513198
   3 O :   -0.495779
   4 C :    0.003496
   5 C :    0.205185
   6 N :   -0.558290
   7 C :    0.370141
   8 C :    0.104751
   9 C :   -0.333092
  10 C :   -0.338577
  11 N :   -0.575382
  12 C :    0.385751
  13 O :   -0.429171
  14 C :    0.413351
  15 N :   -0.329117
  16 N :   -0.355763
  17 C :    0.382620
  18 C :   -0.316164
  19 O :   -0.389795
  20 N :   -0.418488
  21 C :    0.377964
  22 O :   -0.438488
  23 C :    0.324945
  24 O :   -0.393716
  25 H :    0.200845
  26 H :    0.199957
  27 H :    0.193057
  28 H :    0.200362
  29 H :    0.198417
  30 H :    0.198308
  31 H :    0.178007
  32 H :    0.176694
  33 H :    0.180238
  34 H :    0.173447
  35 H :    0.180955
  36 H :    0.177417
  37 H :    0.303547
  38 H :    0.192857
  39 H :    0.192932
  40 H :    0.191874
  41 H :    0.318151
  42 H :    0.324000

  Mayer bond orders larger than 0.100000
B(  0-C ,  1-O ) :   0.8294 B(  0-C , 25-H ) :   0.9313 B(  0-C , 26-H ) :   0.9347
B(  0-C , 27-H ) :   0.9492 B(  1-O ,  2-C ) :   1.3413 B(  2-C ,  3-O ) :   1.3725
B(  2-C ,  5-C ) :   1.0504 B(  3-O ,  4-C ) :   0.7983 B(  4-C , 28-H ) :   0.9522
B(  4-C , 29-H ) :   0.9387 B(  4-C , 30-H ) :   0.9389 B(  5-C ,  6-N ) :   0.9827
B(  5-C , 23-C ) :   1.3958 B(  6-N ,  7-C ) :   1.6404 B(  7-C ,  8-C ) :   0.7927
B(  7-C , 13-O ) :   0.1364 B(  7-C , 20-N ) :   1.0290 B(  7-C , 23-C ) :   0.1049
B(  8-C ,  9-C ) :   0.9581 B(  8-C , 10-C ) :   0.9115 B(  8-C , 11-N ) :   0.7491
B(  9-C , 31-H ) :   0.9581 B(  9-C , 32-H ) :   0.9469 B(  9-C , 33-H ) :   0.9635
B( 10-C , 34-H ) :   0.9691 B( 10-C , 35-H ) :   0.9591 B( 10-C , 36-H ) :   0.9540
B( 11-N , 12-C ) :   1.1639 B( 11-N , 37-H ) :   0.8909 B( 12-C , 13-O ) :   1.8436
B( 12-C , 14-C ) :   0.8004 B( 12-C , 16-N ) :   0.1083 B( 13-O , 14-C ) :  -0.1017
B( 14-C , 15-N ) :   1.7269 B( 14-C , 17-C ) :   0.1247 B( 14-C , 19-O ) :   1.0764
B( 15-N , 16-N ) :   1.2698 B( 16-N , 17-C ) :   1.6119 B( 17-C , 18-C ) :   0.8262
B( 17-C , 19-O ) :   1.0665 B( 18-C , 38-H ) :   0.9423 B( 18-C , 39-H ) :   0.9411
B( 18-C , 40-H ) :   0.9888 B( 20-N , 21-C ) :   1.0770 B( 20-N , 41-H ) :   0.8741
B( 21-C , 22-O ) :   1.9915 B( 21-C , 23-C ) :   0.8961 B( 23-C , 24-O ) :   1.1289
B( 24-O , 42-H ) :   0.8105

Dispersion correction           -0.019296671
FINAL SINGLE POINT ENERGY     -1269.065610950266

DIPOLE MOMENT
-------------
                                X             Y             Z
Electronic contribution:     -1.70867      13.93294      -6.35344
Nuclear contribution   :     -1.75673     -17.08626       9.79059
                        -----------------------------------------
Total Dipole Moment    :     -3.46540      -3.15332       3.43715
                        -----------------------------------------
Magnitude (a.u.)       :      5.81089
Magnitude (Debye)      :     14.77010

Rotational constants in cm-1:     0.015098     0.003651     0.003402
Rotational constants in MHz :   452.640294   109.445458   102.004103

                             ****ORCA TERMINATED NORMALLY****
TOTAL RUN TIME: 0 days 0 hours 2 minutes 11 seconds 349 msec
