   * xtb version 6.5.1 (579679a) compiled by 'ehlert@majestix' on 2022-07-11
          program call               : /lustre/hpc/kemi/ree/PhD/git/ReactivityQM/dep/xtb-6.5.1/bin/xtb --gfn 1 /lustre/hpc/kemi/ree/PhD/git/ReactivityQM/calculations/R02/reac01prodN03/conf05/R02_reac01prodN03_conf05_gfn1.xyz --opt --vfukui --chrg 1 --uhf 0 --alpb DMSO

   ID    Z sym.   atoms
    1    6 C      1, 3, 5, 6, 8-11, 13, 15, 18, 19, 22, 24
    2    8 O      2, 4, 14, 20, 23, 25
    3    7 N      7, 12, 16, 17, 21
    4    1 H      26-43

      * Solvation model:               ALPB
        Solvent                        DMSO
        Solvent mass                       7.8130E+01 g/mol
          :  Hamiltonian                  GFN1-xTB          :
 * total energy  :   -83.1233693 Eh     change       -0.4865797E-10 Eh
 * total energy  :   -83.1497206 Eh     change       -0.2635126E-01 Eh
 * total energy  :   -83.1583048 Eh     change       -0.8584183E-02 Eh
 * total energy  :   -83.1608602 Eh     change       -0.2555471E-02 Eh
 * total energy  :   -83.1625357 Eh     change       -0.1675501E-02 Eh
 * total energy  :   -83.1633395 Eh     change       -0.8037725E-03 Eh
 * total energy  :   -83.1640219 Eh     change       -0.6823843E-03 Eh
 * total energy  :   -83.1646359 Eh     change       -0.6139864E-03 Eh
 * total energy  :   -83.1650484 Eh     change       -0.4125473E-03 Eh
 * total energy  :   -83.1653097 Eh     change       -0.2612457E-03 Eh
 * total energy  :   -83.1713920 Eh     change       -0.1028046E-04 Eh
 * total energy  :   -83.1714048 Eh     change       -0.1285592E-04 Eh
 * total energy  :   -83.1714174 Eh     change       -0.1257252E-04 Eh
 * total energy  :   -83.1714278 Eh     change       -0.1036449E-04 Eh
 * total energy  :   -83.1714371 Eh     change       -0.9287293E-05 Eh
 * total energy  :   -83.1714427 Eh     change       -0.5590276E-05 Eh
 * total energy  :   -83.1714480 Eh     change       -0.5367143E-05 Eh
 * total energy  :   -83.1714532 Eh     change       -0.5228575E-05 Eh
 * total energy  :   -83.1714569 Eh     change       -0.3636242E-05 Eh
   *** GEOMETRY OPTIMIZATION CONVERGED AFTER 122 ITERATIONS ***

 final structure:
================
43
 xtb: 6.5.1 (579679a)
C           -3.04221643696313       -2.63353582859563       -0.54458962868881
O           -3.96298705057286       -1.59470361374988       -0.91146728963830
C           -3.78822388661841       -0.32176437132064       -0.81033232085278
O           -4.77367758801560        0.41584631942580       -1.18816340672845
C           -5.98505922224643       -0.18979156401117       -1.67480745056212
C           -2.60652221957068        0.34859570458800       -0.31272279344025
N           -1.53260516214952       -0.44389231891994        0.03063158961060
C           -0.44592838104676        0.09865339751757        0.46662806916774
C            0.73362247793408       -0.75117131103522        0.88003413073260
C            0.77876390741714       -0.82021066944315        2.41021740639721
C            0.64788792100498       -2.15021187818356        0.26598798971666
N            1.95073443867896       -0.08482371537002        0.42137533436686
C            2.07384415857725        0.29852468650557       -0.87354458011631
O            1.15024768814570        0.30313585310949       -1.67029859430472
C            3.43840752428566        0.75477423989354       -1.21215872932251
N            3.86772558371410        1.23548618594499       -2.33724512731141
N            5.19193575193472        1.50167488793688       -2.17094211523127
C            5.49225378493263        1.16611174839854       -0.95396121745372
C            6.80578942264013        1.25684386892042       -0.28125535386883
O            4.42613491173186        0.68669560468271       -0.29346667785744
N           -0.31603054636356        1.44583323412849        0.64768958162324
C           -1.29951129239270        2.34231168659387        0.34008005117012
O           -1.19703923353268        3.54566938370846        0.47990929875919
C           -2.52814080836300        1.72172294225786       -0.18484729501724
O           -3.49985075459594        2.55692563426491       -0.49118874057887
H           -2.13976432707549       -2.56102199478977       -1.15039807712848
H           -2.78926342540081       -2.55017078865741        0.51153984870887
H           -3.56813864047031       -3.56621166512682       -0.74431639697504
H           -6.64360731878295        0.63400339084744       -1.93936067133955
H           -5.76051689682030       -0.80744781387846       -2.54471545842139
H           -6.42293969572614       -0.80473831817689       -0.88831505591566
H            1.62833684565175       -1.42367171237853        2.72372261140735
H            0.87804135404236        0.17912848856078        2.82952048649326
H           -0.13660609028985       -1.27449892377426        2.78479056713329
H            1.54837925653109       -2.71055512769206        0.50874989972094
H            0.54806367082056       -2.07739802973058       -0.81629229805255
H           -0.21603129554159       -2.67371555805708        0.66993782279963
H            2.77416005895991       -0.16580130620681        0.99508307596618
H            7.11462479247809        0.26870170902523        0.05935421989382
H            6.72906197915328        1.90284869547557        0.59318868334576
H            7.54690517440620        1.65680358228657       -0.96951197639042
H            0.55261053822904        1.80994162704539        1.01576417316623
H           -3.22286996873697        3.47510063798223       -0.29000258498371

          :  Hamiltonian                  GFN1-xTB          :
         :: total energy             -83.171456883687 Eh    ::
         :: gradient norm              0.000459766599 Eh/a0 ::
         :: HOMO-LUMO gap              1.996802149378 eV    ::
         :: SCC energy               -83.967866430618 Eh    ::
         :: -> Gsolv                  -0.111414676010 Eh    ::
         :: repulsion energy           0.823361952048 Eh    ::

    * Orbital Energies and Occupations

         #    Occupation            Energy/Eh            Energy/eV
      -------------------------------------------------------------
         1        2.0000           -0.9127422             -24.8370
       ...           ...                  ...                  ...
        55        2.0000           -0.5307442             -14.4423
        56        2.0000           -0.5234778             -14.2446
        57        2.0000           -0.5202886             -14.1578
        58        2.0000           -0.5132199             -13.9654
        59        2.0000           -0.5099876             -13.8775
        60        2.0000           -0.4934553             -13.4276
        61        2.0000           -0.4863492             -13.2342
        62        2.0000           -0.4831721             -13.1478
        63        2.0000           -0.4775144             -12.9938
        64        2.0000           -0.4690878             -12.7645
        65        2.0000           -0.4634478             -12.6111
        66        2.0000           -0.4577270             -12.4554
        67        2.0000           -0.4550349             -12.3821 (HOMO)
        68                         -0.3816538             -10.3853 (LUMO)
        69                         -0.3201228              -8.7110
        70                         -0.3141580              -8.5487
        71                         -0.2907240              -7.9110
        72                         -0.2606080              -7.0915
        73                         -0.2065177              -5.6196
        74                         -0.1981512              -5.3920
        75                         -0.1715130              -4.6671
        76                         -0.1625899              -4.4243
        77                         -0.1428211              -3.8864
        78                         -0.1422886              -3.8719
       ...                                ...                  ...
       136                          0.7132974              19.4098
      -------------------------------------------------------------
                  HL-Gap            0.0733811 Eh            1.9968 eV

Wiberg/Mayer (AO) data.
largest (>0.10) Wiberg bond orders for each atom

     #   Z sym  total        # sym  WBO       # sym  WBO       # sym  WBO
 ---------------------------------------------------------------------------
     1   6 C    3.815 --    28 H    0.979    27 H    0.972    26 H    0.971
                             2 O    0.850
     2   8 O    2.307 --     3 C    1.250     1 C    0.850
     3   6 C    3.816 --     4 O    1.260     2 O    1.250     6 C    1.119
     4   8 O    2.309 --     3 C    1.260     5 C    0.855
     5   6 C    3.824 --    29 H    0.982    30 H    0.973    31 H    0.972
                             4 O    0.855
     6   6 C    3.957 --    24 C    1.426     7 N    1.152     3 C    1.119
     7   7 N    3.036 --     8 C    1.584     6 C    1.152
     8   6 C    3.920 --     7 N    1.584    21 N    1.165     9 C    0.980
     9   6 C    3.938 --    11 C    0.988     8 C    0.980    10 C    0.978
                            12 N    0.932
    10   6 C    3.985 --    34 H    0.983    33 H    0.983    32 H    0.980
                             9 C    0.978
    11   6 C    3.987 --     9 C    0.988    35 H    0.983    37 H    0.983
                            36 H    0.981
    12   7 N    3.327 --    13 C    1.233     9 C    0.932    38 H    0.886
                            14 O    0.169
    13   6 C    3.913 --    14 O    1.590    12 N    1.233    15 C    1.002
    14   8 O    1.896 --    13 C    1.590    12 N    0.169
    15   6 C    3.876 --    16 N    1.616    20 O    1.047    13 C    1.002
    16   7 N    3.003 --    15 C    1.616    17 N    1.205
    17   7 N    2.982 --    18 C    1.603    16 N    1.205
    18   6 C    3.866 --    17 N    1.603    20 O    1.075    19 C    1.033
    19   6 C    3.985 --    18 C    1.033    41 H    0.982    39 H    0.962
                            40 H    0.961
    20   8 O    2.318 --    18 C    1.075    15 C    1.047
    21   7 N    3.485 --     8 C    1.165    22 C    1.158    42 H    0.872
                            23 O    0.143
    22   6 C    3.914 --    23 O    1.607    21 N    1.158    24 C    1.028
    23   8 O    1.933 --    22 C    1.607    21 N    0.143
    24   6 C    3.910 --     6 C    1.426    25 O    1.174    22 C    1.028
    25   8 O    2.146 --    24 C    1.174    43 H    0.783
    26   1 H    1.013 --     1 C    0.971
    27   1 H    1.012 --     1 C    0.972
    28   1 H    1.002 --     1 C    0.979
    29   1 H    1.002 --     5 C    0.982
    30   1 H    0.999 --     5 C    0.973
    31   1 H    0.998 --     5 C    0.972
    32   1 H    0.994 --    10 C    0.980
    33   1 H    0.997 --    10 C    0.983
    34   1 H    0.998 --    10 C    0.983
    35   1 H    0.998 --    11 C    0.983
    36   1 H    1.006 --    11 C    0.981
    37   1 H    1.004 --    11 C    0.983
    38   1 H    0.927 --    12 N    0.886
    39   1 H    0.996 --    19 C    0.962
    40   1 H    0.996 --    19 C    0.961
    41   1 H    0.998 --    19 C    0.982
    42   1 H    0.920 --    21 N    0.872
    43   1 H    0.824 --    25 O    0.783
 ---------------------------------------------------------------------------

           -------------------------------------------------
          | TOTAL ENERGY              -83.171456883687 Eh   |
          | GRADIENT NORM               0.000459766599 Eh/α |
          | HOMO-LUMO GAP               1.996802149378 eV   |
           -------------------------------------------------

 * finished run on 2023/06/20 at 15:21:23.161
