   * xtb version 6.5.1 (579679a) compiled by 'ehlert@majestix' on 2022-07-11
          program call               : /lustre/hpc/kemi/ree/PhD/git/ReactivityQM/dep/xtb-6.5.1/bin/xtb --gfn 1 /lustre/hpc/kemi/ree/PhD/git/ReactivityQM/calculations/R03/reac02prodN05/conf12/R03_reac02prodN05_conf12_gfn1.xyz --opt --vfukui --chrg 1 --uhf 0 --alpb DMSO

   ID    Z sym.   atoms
    1    6 C      1, 3, 5, 6, 8, 11-15, 17, 19, 22, 23, 26
    2    8 O      2, 4, 7, 9, 18, 24
    3    7 N      10, 16, 20, 21, 25
    4    1 H      27-46

      * Solvation model:               ALPB
        Solvent                        DMSO
        Solvent mass                       7.8130E+01 g/mol
          :  Hamiltonian                  GFN1-xTB          :
 * total energy  :   -86.3096838 Eh     change       -0.4756373E-10 Eh
 * total energy  :   -86.3292936 Eh     change       -0.1960975E-01 Eh
 * total energy  :   -86.3366679 Eh     change       -0.7374371E-02 Eh
 * total energy  :   -86.3387869 Eh     change       -0.2118991E-02 Eh
 * total energy  :   -86.3404552 Eh     change       -0.1668267E-02 Eh
 * total energy  :   -86.3415960 Eh     change       -0.1140761E-02 Eh
 * total energy  :   -86.3427021 Eh     change       -0.1106138E-02 Eh
 * total energy  :   -86.3437094 Eh     change       -0.1007260E-02 Eh
 * total energy  :   -86.3444949 Eh     change       -0.7855792E-03 Eh
 * total energy  :   -86.3450702 Eh     change       -0.5752213E-03 Eh
 * total energy  :   -86.3497577 Eh     change       -0.6604928E-05 Eh
 * total energy  :   -86.3497746 Eh     change       -0.1687084E-04 Eh
 * total energy  :   -86.3497810 Eh     change       -0.6395047E-05 Eh
 * total energy  :   -86.3497898 Eh     change       -0.8826643E-05 Eh
 * total energy  :   -86.3497959 Eh     change       -0.6110547E-05 Eh
 * total energy  :   -86.3498040 Eh     change       -0.8045438E-05 Eh
 * total energy  :   -86.3498124 Eh     change       -0.8399126E-05 Eh
 * total energy  :   -86.3498178 Eh     change       -0.5445390E-05 Eh
 * total energy  :   -86.3498225 Eh     change       -0.4699913E-05 Eh
   *** GEOMETRY OPTIMIZATION CONVERGED AFTER 54 ITERATIONS ***

 final structure:
================
46
 xtb: 6.5.1 (579679a)
C           -6.00791423059479        0.15435072955843       -2.07192934549723
O           -4.91736507390428       -0.32512790222103       -1.26939873407856
C           -3.86410136548965        0.45774948464480       -1.17006257330849
O           -3.75590458628186        1.53015037128029       -1.71386557789021
C           -2.81382813593101       -0.11241385263105       -0.25505129420116
C           -3.09522624265224       -0.95251023163445        0.77562367991494
O           -4.29987888579784       -1.44967953618886        1.02710579826007
C           -2.03245370621377       -1.36104929898646        1.68339423318251
O           -2.19061509285183       -2.20817071213894        2.53806261175033
N           -0.82680949060185       -0.66847605343543        1.54846359367684
C            0.15076537149451       -1.14689046757723        2.54117830035297
C           -0.56960456787646        0.20894236508347        0.54855291260893
C            0.59211622972607        1.19786859115529        0.74397586399935
C            0.37101043483361        1.89738042185738        2.09873482000749
C            0.76373804245584        2.32602418906240       -0.28324822809961
N            1.84203609875490        0.44283917755857        0.74917344095720
C            1.94406766083214       -0.62573422876028       -0.07401113941367
O            0.96553092567816       -1.10078148540324       -0.64018079022606
C            3.29610905897423       -1.18598930922145       -0.16913486374981
N            3.69904055166441       -2.21039934338035       -0.85662849556596
N            5.02748514996655       -2.34375614079122       -0.61689207087040
C            5.36127276705522       -1.39337345700784        0.20438046124664
C            6.69470347622189       -1.11149549326654        0.77497362059029
O            4.30923244300497       -0.62469302164929        0.52497088719648
N           -1.51056785419942        0.37322023387396       -0.39235004950793
C           -1.14588750896554        0.79375325087956       -1.75923662740211
H           -6.42516855104249        1.05747098518333       -1.62293186970246
H           -6.74838793706150       -0.64203195254519       -2.08931663526418
H           -5.65510225397488        0.37632074933081       -3.08051536696447
H           -4.26622752826952       -2.02745120452888        1.81204562781358
H            1.10480492375153       -0.65204103471920        2.43335173610162
H            0.26895103635384       -2.21981793059801        2.38280718351418
H           -0.26023587413968       -0.97951526012956        3.53547052721070
H            0.19471602163965        1.20883773915539        2.91753252587059
H            1.25281822607550        2.49069010220301        2.33113419476217
H           -0.48654878974655        2.56329885268519        2.01465836297750
H            1.13336167816640        1.96068822637488       -1.23696380954739
H            1.51242440767433        3.01072131454336        0.11392393117651
H           -0.16215694305539        2.87949859935398       -0.41806089216764
H            2.66894426271923        0.89653255507335        1.10218531119803
H            7.00596482901267       -0.10242024726624        0.50541132224497
H            6.64869182632356       -1.16791432546016        1.86257451629065
H            7.41700379800416       -1.83259726485611        0.39938252890567
H           -1.33359123438466        1.85376269671161       -1.90625455384044
H           -0.10357257858870        0.54486360723889       -1.92673855529987
H           -1.75364378875431        0.21936651158850       -2.45491251921382

          :  Hamiltonian                  GFN1-xTB          :
         :: total energy             -86.349822515060 Eh    ::
         :: gradient norm              0.000521183021 Eh/a0 ::
         :: HOMO-LUMO gap              2.845961896218 eV    ::
         :: SCC energy               -87.183051437540 Eh    ::
         :: -> Gsolv                  -0.109551798209 Eh    ::
         :: repulsion energy           0.864388242376 Eh    ::

    * Orbital Energies and Occupations

         #    Occupation            Energy/Eh            Energy/eV
      -------------------------------------------------------------
         1        2.0000           -0.8812652             -23.9804
       ...           ...                  ...                  ...
        58        2.0000           -0.5316011             -14.4656
        59        2.0000           -0.5255522             -14.3010
        60        2.0000           -0.5197178             -14.1422
        61        2.0000           -0.5187936             -14.1171
        62        2.0000           -0.5167263             -14.0608
        63        2.0000           -0.5128574             -13.9556
        64        2.0000           -0.4991578             -13.5828
        65        2.0000           -0.4942679             -13.4497
        66        2.0000           -0.4907503             -13.3540
        67        2.0000           -0.4828431             -13.1388
        68        2.0000           -0.4706772             -12.8078
        69        2.0000           -0.4666509             -12.6982
        70        2.0000           -0.4649298             -12.6514 (HOMO)
        71                         -0.3603426              -9.8054 (LUMO)
        72                         -0.3529125              -9.6032
        73                         -0.3356510              -9.1335
        74                         -0.2786132              -7.5815
        75                         -0.2686379              -7.3100
        76                         -0.2200007              -5.9865
        77                         -0.2139770              -5.8226
        78                         -0.1572932              -4.2802
        79                         -0.1560128              -4.2453
        80                         -0.1495622              -4.0698
        81                         -0.1487434              -4.0475
       ...                                ...                  ...
       144                          0.7105361              19.3347
      -------------------------------------------------------------
                  HL-Gap            0.1045872 Eh            2.8460 eV

Wiberg/Mayer (AO) data.
largest (>0.10) Wiberg bond orders for each atom

     #   Z sym  total        # sym  WBO       # sym  WBO       # sym  WBO
 ---------------------------------------------------------------------------
     1   6 C    3.851 --    28 H    0.985    29 H    0.978    27 H    0.978
                             2 O    0.878
     2   8 O    2.233 --     3 C    1.158     1 C    0.878     4 O    0.143
     3   6 C    3.865 --     4 O    1.655     2 O    1.158     5 C    0.976
     4   8 O    1.948 --     3 C    1.655     2 O    0.143
     5   6 C    3.925 --     6 C    1.533    25 N    1.080     3 C    0.976
     6   6 C    3.929 --     5 C    1.533     7 O    1.134     8 C    1.049
     7   8 O    2.105 --     6 C    1.134    30 H    0.793
     8   6 C    3.907 --     9 O    1.631    10 N    1.082     6 C    1.049
     9   8 O    1.956 --     8 C    1.631    10 N    0.119
    10   7 N    3.526 --    12 C    1.268     8 C    1.082    11 C    0.907
                             9 O    0.119
    11   6 C    3.894 --    31 H    0.975    33 H    0.973    32 H    0.966
                            10 N    0.907
    12   6 C    3.897 --    25 N    1.340    10 N    1.268    13 C    0.970
    13   6 C    3.931 --    15 C    0.990    14 C    0.972    12 C    0.970
                            16 N    0.936
    14   6 C    3.980 --    36 H    0.982    34 H    0.978    35 H    0.976
                            13 C    0.972
    15   6 C    3.982 --    13 C    0.990    39 H    0.980    37 H    0.978
                            38 H    0.975
    16   7 N    3.343 --    17 C    1.241    13 C    0.936    40 H    0.879
                            18 O    0.157
    17   6 C    3.908 --    18 O    1.548    16 N    1.241    19 C    1.019
    18   8 O    1.953 --    17 C    1.548    16 N    0.157
    19   6 C    3.880 --    20 N    1.602    24 O    1.047    17 C    1.019
    20   7 N    3.007 --    19 C    1.602    21 N    1.218
    21   7 N    2.983 --    22 C    1.590    20 N    1.218
    22   6 C    3.862 --    21 N    1.590    24 O    1.078    23 C    1.035
    23   6 C    3.983 --    22 C    1.035    43 H    0.982    41 H    0.960
                            42 H    0.960
    24   8 O    2.321 --    22 C    1.078    19 C    1.047
    25   7 N    3.539 --    12 C    1.340     5 C    1.080    26 C    0.898
    26   6 C    3.891 --    46 H    0.975    45 H    0.973    44 H    0.971
                            25 N    0.898
    27   1 H    1.003 --     1 C    0.978
    28   1 H    1.007 --     1 C    0.985
    29   1 H    1.004 --     1 C    0.978
    30   1 H    0.828 --     7 O    0.793
    31   1 H    1.003 --    11 C    0.975
    32   1 H    0.997 --    11 C    0.966
    33   1 H    0.999 --    11 C    0.973
    34   1 H    0.997 --    14 C    0.978
    35   1 H    0.992 --    14 C    0.976
    36   1 H    0.996 --    14 C    0.982
    37   1 H    0.999 --    15 C    0.978
    38   1 H    0.996 --    15 C    0.975
    39   1 H    0.996 --    15 C    0.980
    40   1 H    0.919 --    16 N    0.879
    41   1 H    0.995 --    23 C    0.960
    42   1 H    0.995 --    23 C    0.960
    43   1 H    0.997 --    23 C    0.982
    44   1 H    1.009 --    26 C    0.971
    45   1 H    1.010 --    26 C    0.973
    46   1 H    0.998 --    26 C    0.975
 ---------------------------------------------------------------------------

           -------------------------------------------------
          | TOTAL ENERGY              -86.349822515060 Eh   |
          | GRADIENT NORM               0.000521183021 Eh/α |
          | HOMO-LUMO GAP               2.845961896218 eV   |
           -------------------------------------------------

 * finished run on 2023/06/20 at 15:40:22.028
