   * xtb version 6.5.1 (579679a) compiled by 'ehlert@majestix' on 2022-07-11
          program call               : /lustre/hpc/kemi/ree/PhD/git/ReactivityQM/dep/xtb-6.5.1/bin/xtb --gfn 1 /lustre/hpc/kemi/ree/PhD/git/ReactivityQM/calculations/R03/reac01prodN05/conf03/R03_reac01prodN05_conf03_gfn1.xyz --opt --vfukui --chrg 1 --uhf 0 --alpb DMSO

   ID    Z sym.   atoms
    1    6 C      1, 2, 4-7, 9, 10
    2    9 F      3
    3    7 N      8
    4    1 H      11-21

      * Solvation model:               ALPB
        Solvent                        DMSO
        Solvent mass                       7.8130E+01 g/mol
          :  Hamiltonian                  GFN1-xTB          :
 * total energy  :   -30.7502419 Eh     change       -0.2818012E-10 Eh
 * total energy  :   -30.7541036 Eh     change       -0.3861611E-02 Eh
 * total energy  :   -30.7559629 Eh     change       -0.1859318E-02 Eh
 * total energy  :   -30.7568961 Eh     change       -0.9332307E-03 Eh
 * total energy  :   -30.7579830 Eh     change       -0.1086871E-02 Eh
 * total energy  :   -30.7590281 Eh     change       -0.1045147E-02 Eh
 * total energy  :   -30.7598708 Eh     change       -0.8426642E-03 Eh
 * total energy  :   -30.7605442 Eh     change       -0.6734329E-03 Eh
 * total energy  :   -30.7610555 Eh     change       -0.5112755E-03 Eh
 * total energy  :   -30.7614028 Eh     change       -0.3473236E-03 Eh
 * total energy  :   -30.7627607 Eh     change       -0.3178858E-04 Eh
 * total energy  :   -30.7627770 Eh     change       -0.1624739E-04 Eh
 * total energy  :   -30.7627982 Eh     change       -0.2123144E-04 Eh
 * total energy  :   -30.7628147 Eh     change       -0.1650026E-04 Eh
 * total energy  :   -30.7628261 Eh     change       -0.1138082E-04 Eh
 * total energy  :   -30.7628361 Eh     change       -0.1005379E-04 Eh
 * total energy  :   -30.7628453 Eh     change       -0.9120232E-05 Eh
 * total energy  :   -30.7628514 Eh     change       -0.6140824E-05 Eh
 * total energy  :   -30.7628541 Eh     change       -0.2720486E-05 Eh
   *** GEOMETRY OPTIMIZATION CONVERGED AFTER 31 ITERATIONS ***

 final structure:
================
21
 xtb: 6.5.1 (579679a)
C            2.55846979437726        0.42106856528832       -0.53017913728671
C            1.83137974176698       -0.14543178606589        0.72836228121145
F            2.82130670149680       -0.54023600746970        1.58637281848010
C            1.03816936747081        0.97299087600120        1.29076421337527
C           -0.28085625592185        1.08833937420225        1.00339427025789
C           -0.96917367801803        0.06263581715146        0.29789558898467
C           -2.39328814442065        0.25211354859059       -0.03347067240592
N           -2.98802263840419       -0.82555191790907       -0.77399359705042
C           -0.29002051263905       -1.14063139307739       -0.02283533822284
C            1.02567893344137       -1.29805807511699        0.26778500122573
H            1.83638897170417        0.75252603927174       -1.27049520192514
H            3.18044874657709        1.25586808162819       -0.21542154748376
H            3.18269359243893       -0.36747774434550       -0.94419018177855
H            1.57211216329919        1.72783412009737        1.85546448189562
H           -0.84321810185754        1.95098676847377        1.34181622039118
H           -2.95641330198110        0.41668169165336        0.89396506312356
H           -2.47330633095453        1.20039139517651       -0.59143159129721
H           -2.55502384600870       -0.93463014295008       -1.67829816166715
H           -3.97496693241823       -0.65602474441477       -0.89464428687575
H           -0.86669755277432       -1.95889782028218       -0.43841896228746
H            1.54434028282590       -2.23449764590330        0.09877673933564

          :  Hamiltonian                  GFN1-xTB          :
         :: total energy             -30.762854124576 Eh    ::
         :: gradient norm              0.000389618232 Eh/a0 ::
         :: HOMO-LUMO gap              0.786996507615 eV    ::
         :: SCC energy               -31.154858204760 Eh    ::
         :: -> Gsolv                  -0.086520056773 Eh    ::
         :: repulsion energy           0.402060223700 Eh    ::

    * Orbital Energies and Occupations

         #    Occupation            Energy/Eh            Energy/eV
      -------------------------------------------------------------
         1        2.0000           -0.8927382             -24.2926
       ...           ...                  ...                  ...
        15        2.0000           -0.5962173             -16.2239
        16        2.0000           -0.5918552             -16.1052
        17        2.0000           -0.5789136             -15.7530
        18        2.0000           -0.5710700             -15.5396
        19        2.0000           -0.5674145             -15.4401
        20        2.0000           -0.5583705             -15.1940
        21        2.0000           -0.5531974             -15.0533
        22        2.0000           -0.5461131             -14.8605
        23        2.0000           -0.5379543             -14.6385
        24        2.0000           -0.5204158             -14.1612
        25        2.0000           -0.5175113             -14.0822
        26        2.0000           -0.5082978             -13.8315
        27        2.0000           -0.4478626             -12.1870 (HOMO)
        28        0.0000           -0.4189410             -11.4000 (LUMO)
        29                         -0.3239503              -8.8151
        30                         -0.2513463              -6.8395
        31                         -0.1599006              -4.3511
        32                         -0.1546419              -4.2080
        33                         -0.1415791              -3.8526
        34                         -0.1351194              -3.6768
        35                         -0.1307804              -3.5587
        36                         -0.1159075              -3.1540
        37                         -0.1081671              -2.9434
        38                         -0.1012794              -2.7560
       ...                                ...                  ...
        62                          0.5477327              14.9046
      -------------------------------------------------------------
                  HL-Gap            0.0289216 Eh            0.7870 eV

Wiberg/Mayer (AO) data.
largest (>0.10) Wiberg bond orders for each atom

     #   Z sym  total        # sym  WBO       # sym  WBO       # sym  WBO
 ---------------------------------------------------------------------------
     1   6 C    3.948 --    11 H    0.982    12 H    0.975    13 H    0.975
                             2 C    0.865
     2   6 C    3.886 --    10 C    1.038     4 C    1.031     3 F    0.897
                             1 C    0.865
     3   9 F    1.005 --     2 C    0.897
     4   6 C    3.957 --     5 C    1.670     2 C    1.031    14 H    0.961
     5   6 C    3.988 --     4 C    1.670     6 C    1.255    15 H    0.961
     6   6 C    3.929 --     9 C    1.267     5 C    1.255     7 C    1.084
     7   6 C    3.981 --     6 C    1.084     8 N    1.025    16 H    0.912
                            17 H    0.887
     8   7 N    3.056 --     7 C    1.025    18 H    0.924    19 H    0.919
     9   6 C    3.986 --    10 C    1.655     6 C    1.267    20 H    0.957
    10   6 C    3.954 --     9 C    1.655     2 C    1.038    21 H    0.961
    11   1 H    0.995 --     1 C    0.982
    12   1 H    0.993 --     1 C    0.975
    13   1 H    0.993 --     1 C    0.975
    14   1 H    0.989 --     4 C    0.961
    15   1 H    0.989 --     5 C    0.961
    16   1 H    0.988 --     7 C    0.912
    17   1 H    0.985 --     7 C    0.887
    18   1 H    0.941 --     8 N    0.924
    19   1 H    0.935 --     8 N    0.919
    20   1 H    0.999 --     9 C    0.957
    21   1 H    0.989 --    10 C    0.961
 ---------------------------------------------------------------------------

           -------------------------------------------------
          | TOTAL ENERGY              -30.762854124576 Eh   |
          | GRADIENT NORM               0.000389618232 Eh/α |
          | HOMO-LUMO GAP               0.786996507615 eV   |
           -------------------------------------------------

 * finished run on 2023/06/20 at 15:14:35.506
