   * xtb version 6.5.1 (579679a) compiled by 'ehlert@majestix' on 2022-07-11
          program call               : /lustre/hpc/kemi/ree/PhD/git/ReactivityQM/dep/xtb-6.5.1/bin/xtb --gfn 1 /lustre/hpc/kemi/ree/PhD/git/ReactivityQM/calculations/R03/reac02prodE14/conf18/R03_reac02prodE14_conf18_gfn1.xyz --opt --vfukui --chrg -1 --uhf 0 --alpb DMSO

   ID    Z sym.   atoms
    1    6 C      1, 3, 5, 7-10, 12, 14, 17, 18, 21, 22, 24, 25
    2    8 O      2, 4, 13, 19, 23, 26
    3    7 N      6, 11, 15, 16, 20
    4    1 H      27-46

      * Solvation model:               ALPB
        Solvent                        DMSO
        Solvent mass                       7.8130E+01 g/mol
          :  Hamiltonian                  GFN1-xTB          :
 * total energy  :   -87.0490087 Eh     change       -0.1704166E-09 Eh
 * total energy  :   -87.0635528 Eh     change       -0.1454411E-01 Eh
 * total energy  :   -87.0686648 Eh     change       -0.5112017E-02 Eh
 * total energy  :   -87.0694090 Eh     change       -0.7442257E-03 Eh
 * total energy  :   -87.0698969 Eh     change       -0.4878489E-03 Eh
 * total energy  :   -87.0700569 Eh     change       -0.1600261E-03 Eh
 * total energy  :   -87.0701944 Eh     change       -0.1374735E-03 Eh
 * total energy  :   -87.0702841 Eh     change       -0.8971057E-04 Eh
 * total energy  :   -87.0703437 Eh     change       -0.5961960E-04 Eh
 * total energy  :   -87.0703882 Eh     change       -0.4452135E-04 Eh
 * total energy  :   -87.0707083 Eh     change       -0.1217978E-04 Eh
 * total energy  :   -87.0707180 Eh     change       -0.9727378E-05 Eh
 * total energy  :   -87.0707298 Eh     change       -0.1176482E-04 Eh
 * total energy  :   -87.0707381 Eh     change       -0.8309233E-05 Eh
 * total energy  :   -87.0707567 Eh     change       -0.1857001E-04 Eh
 * total energy  :   -87.0707617 Eh     change       -0.5034139E-05 Eh
 * total energy  :   -87.0707681 Eh     change       -0.6392809E-05 Eh
 * total energy  :   -87.0707732 Eh     change       -0.5063974E-05 Eh
 * total energy  :   -87.0707774 Eh     change       -0.4245839E-05 Eh
   *** GEOMETRY OPTIMIZATION CONVERGED AFTER 29 ITERATIONS ***

 final structure:
================
46
 xtb: 6.5.1 (579679a)
C           -4.76432037386727       -2.86000109428073        1.11877203005919
O           -3.70560401915816       -2.01069617339187        0.71325168902723
C           -3.81658652712411       -0.69312981870102        1.13481649369362
O           -4.79570051674015       -0.35246821633858        1.82815362029178
C           -2.76873691112041        0.14907957948069        0.73190249466992
N           -1.73054300812067       -0.34539374222360        0.01167372987196
C           -0.70592333940117        0.34905010973145       -0.33317154361530
C            0.35119898193199       -0.34322628136304       -1.17946521134588
C           -0.04956499393486       -1.81563495671191       -1.36525457756747
C            0.49792986956058        0.30868213560556       -2.56250190703752
N            1.63128623132056       -0.32048862187926       -0.44031504534226
C            2.80554913960627       -0.75634903150389       -0.92893149552960
O            3.02660409632878       -1.11269458561317       -2.07436593872664
C            3.85353208798246       -0.73002956826995        0.13108603160452
N            3.67081614299311       -0.40970618430839        1.37650194668885
N            4.88112038110125       -0.52383397370071        1.99439639774142
C            5.72400514567986       -0.90777869595334        1.08563531676476
C            7.17088742337875       -1.16860109486013        1.25007283031079
O            5.13639011940045       -1.05717381933698       -0.11110926864374
N           -0.57112831787559        1.71212082077623        0.07128167482785
C            0.59188474201706        2.52828892385172       -0.27465218969824
C           -1.52772738784099        2.35285239153799        0.79607303228244
O           -1.37252200546178        3.52402417247538        1.14736827081229
C           -2.83426429397736        1.61063725013463        1.12353726568377
C           -3.96157602398820        2.34956723034632        0.36394055355680
O           -3.05436978647641        1.76100333606902        2.52824804432853
H           -5.72411748932477       -2.51231137111300        0.71905427749494
H           -4.83813867907042       -2.90610056104779        2.21174941126179
H           -4.54801029237535       -3.85494474681155        0.72765474641503
H           -0.16003204770877       -2.30148193624208       -0.39676755939610
H            0.71342961175406       -2.33582046447945       -1.94182673847838
H           -0.99912094588366       -1.87234998323700       -1.89497517968323
H            1.06448691827557       -0.33752696712318       -3.23071734448950
H            1.00534764819799        1.26781704744643       -2.50579280280196
H           -0.49489611326311        0.45966057921049       -2.98456656914415
H            1.57719400898216       -0.17811035463086        0.55913286047594
H            7.40256358380349       -2.19199800603521        0.95723491946856
H            7.45408735284748       -1.01317840321758        2.28784792449150
H            7.74543229401698       -0.49773216464390        0.61192530587613
H            0.78831208790737        3.22323060852557        0.54347629464023
H            0.39101500380243        3.10376999500787       -1.18042803731782
H            1.47093953179645        1.91024422960796       -0.42331261995413
H           -3.79628764838247        2.27550273073180       -0.70976943053390
H           -4.92094770526786        1.89836521859980        0.61072229788519
H           -3.97392565174873        3.39907554571541        0.65697654403366
H           -3.83996832457382        1.22578891216471        2.74489645505163

          :  Hamiltonian                  GFN1-xTB          :
         :: total energy             -87.070777430172 Eh    ::
         :: gradient norm              0.000685469541 Eh/a0 ::
         :: HOMO-LUMO gap              0.754224603510 eV    ::
         :: SCC energy               -87.867793206337 Eh    ::
         :: -> Gsolv                  -0.111873539235 Eh    ::
         :: repulsion energy           0.826279370487 Eh    ::

    * Orbital Energies and Occupations

         #    Occupation            Energy/Eh            Energy/eV
      -------------------------------------------------------------
         1        2.0000           -0.8601371             -23.4055
       ...           ...                  ...                  ...
        59        2.0000           -0.4723644             -12.8537
        60        2.0000           -0.4700824             -12.7916
        61        2.0000           -0.4578996             -12.4601
        62        2.0000           -0.4550503             -12.3825
        63        2.0000           -0.4468312             -12.1589
        64        2.0000           -0.4464769             -12.1493
        65        2.0000           -0.4419307             -12.0255
        66        2.0000           -0.4356054             -11.8534
        67        2.0000           -0.4254184             -11.5762
        68        2.0000           -0.4190154             -11.4020
        69        2.0000           -0.4051835             -11.0256
        70        2.0000           -0.3850984             -10.4791
        71        2.0000           -0.3317550              -9.0275 (HOMO)
        72        0.0000           -0.3040377              -8.2733 (LUMO)
        73                         -0.2539455              -6.9102
        74                         -0.2467984              -6.7157
        75                         -0.2040498              -5.5525
        76                         -0.1927686              -5.2455
        77                         -0.1445878              -3.9344
        78                         -0.1414780              -3.8498
        79                         -0.1258042              -3.4233
        80                         -0.1136491              -3.0925
        81                         -0.1109786              -3.0199
        82                         -0.1048760              -2.8538
       ...                                ...                  ...
       144                          0.7324162              19.9301
      -------------------------------------------------------------
                  HL-Gap            0.0277172 Eh            0.7542 eV

Wiberg/Mayer (AO) data.
largest (>0.10) Wiberg bond orders for each atom

     #   Z sym  total        # sym  WBO       # sym  WBO       # sym  WBO
 ---------------------------------------------------------------------------
     1   6 C    3.910 --    29 H    0.987    27 H    0.981    28 H    0.981
                             2 O    0.939
     2   8 O    2.095 --     3 C    0.974     1 C    0.939
     3   6 C    3.866 --     4 O    1.449     5 C    1.306     2 O    0.974
     4   8 O    1.812 --     3 C    1.449     5 C    0.105
     5   6 C    3.865 --     3 C    1.306     6 N    1.221    24 C    0.971
                             7 C    0.111     4 O    0.105
     6   7 N    3.063 --     7 C    1.605     5 C    1.221
     7   6 C    3.899 --     6 N    1.605     8 C    0.981    20 N    0.980
                             5 C    0.111
     8   6 C    3.924 --     9 C    0.991    10 C    0.990     7 C    0.981
                            11 N    0.900
     9   6 C    3.994 --     8 C    0.991    31 H    0.985    30 H    0.985
                            32 H    0.985
    10   6 C    3.990 --     8 C    0.990    35 H    0.986    34 H    0.981
                            33 H    0.980
    11   7 N    3.363 --    12 C    1.271     8 C    0.900    36 H    0.900
                            13 O    0.181
    12   6 C    3.921 --    13 O    1.584    11 N    1.271    14 C    0.982
    13   8 O    1.902 --    12 C    1.584    11 N    0.181
    14   6 C    3.871 --    15 N    1.615    19 O    1.064    12 C    0.982
    15   7 N    3.015 --    14 C    1.615    16 N    1.195
    16   7 N    2.980 --    17 C    1.610    15 N    1.195
    17   6 C    3.872 --    16 N    1.610    19 O    1.081    18 C    1.031
    18   6 C    3.987 --    17 C    1.031    38 H    0.983    37 H    0.965
                            39 H    0.963
    19   8 O    2.328 --    17 C    1.081    14 C    1.064
    20   7 N    3.426 --    22 C    1.235     7 C    0.980    21 C    0.946
                            23 O    0.146
    21   6 C    3.950 --    41 H    0.981    42 H    0.980    40 H    0.978
                            20 N    0.946
    22   6 C    3.888 --    23 O    1.567    20 N    1.235    24 C    0.938
    23   8 O    1.865 --    22 C    1.567    20 N    0.146
    24   6 C    3.915 --     5 C    0.971    25 C    0.966    26 O    0.938
                            22 C    0.938
    25   6 C    3.995 --    43 H    0.988    45 H    0.986    44 H    0.983
                            24 C    0.966
    26   8 O    1.879 --    24 C    0.938    46 H    0.846
    27   1 H    1.017 --     1 C    0.981
    28   1 H    1.018 --     1 C    0.981
    29   1 H    1.018 --     1 C    0.987
    30   1 H    1.017 --     9 C    0.985
    31   1 H    1.008 --     9 C    0.985
    32   1 H    1.015 --     9 C    0.985
    33   1 H    1.014 --    10 C    0.980
    34   1 H    1.005 --    10 C    0.981
    35   1 H    1.007 --    10 C    0.986
    36   1 H    0.962 --    11 N    0.900
    37   1 H    0.997 --    18 C    0.965
    38   1 H    0.999 --    18 C    0.983
    39   1 H    0.997 --    18 C    0.963
    40   1 H    1.016 --    21 C    0.978
    41   1 H    1.007 --    21 C    0.981
    42   1 H    1.013 --    21 C    0.980
    43   1 H    1.010 --    25 C    0.988
    44   1 H    1.017 --    25 C    0.983
    45   1 H    1.013 --    25 C    0.986
    46   1 H    0.902 --    26 O    0.846
 ---------------------------------------------------------------------------

           -------------------------------------------------
          | TOTAL ENERGY              -87.070777430172 Eh   |
          | GRADIENT NORM               0.000685469541 Eh/α |
          | HOMO-LUMO GAP               0.754224603510 eV   |
           -------------------------------------------------

 * finished run on 2023/06/20 at 15:34:51.741
