   * xtb version 6.5.1 (579679a) compiled by 'ehlert@majestix' on 2022-07-11
          program call               : /lustre/hpc/kemi/ree/PhD/git/ReactivityQM/dep/xtb-6.5.1/bin/xtb --gfn 1 /lustre/hpc/kemi/ree/PhD/git/ReactivityQM/calculations/R02oxygendeprot/reac01prodN13/conf08/R02oxygendeprot_reac01prodN13_conf08_gfn1.xyz --opt --vfukui --chrg 0 --uhf 0 --alpb DMSO

   ID    Z sym.   atoms
    1    6 C      1, 3, 5, 7-10, 12, 14, 17-19, 22, 24
    2    8 O      2, 4, 13, 20, 23, 25
    3    7 N      6, 11, 15, 16, 21
    4    1 H      26-42

      * Solvation model:               ALPB
        Solvent                        DMSO
        Solvent mass                       7.8130E+01 g/mol
          :  Hamiltonian                  GFN1-xTB          :
 * total energy  :   -82.9220937 Eh     change       -0.7240430E-10 Eh
 * total energy  :   -82.9322761 Eh     change       -0.1018241E-01 Eh
 * total energy  :   -82.9359450 Eh     change       -0.3668865E-02 Eh
 * total energy  :   -82.9365940 Eh     change       -0.6490723E-03 Eh
 * total energy  :   -82.9371172 Eh     change       -0.5232198E-03 Eh
 * total energy  :   -82.9373902 Eh     change       -0.2730004E-03 Eh
 * total energy  :   -82.9375459 Eh     change       -0.1556912E-03 Eh
 * total energy  :   -82.9376090 Eh     change       -0.6305806E-04 Eh
 * total energy  :   -82.9376367 Eh     change       -0.2769061E-04 Eh
 * total energy  :   -82.9376607 Eh     change       -0.2404657E-04 Eh
 * total energy  :   -82.9377500 Eh     change       -0.1058230E-04 Eh
 * total energy  :   -82.9377717 Eh     change       -0.2169929E-04 Eh
 * total energy  :   -82.9377965 Eh     change       -0.2479124E-04 Eh
 * total energy  :   -82.9378295 Eh     change       -0.3300410E-04 Eh
 * total energy  :   -82.9378412 Eh     change       -0.1163354E-04 Eh
 * total energy  :   -82.9378531 Eh     change       -0.1196437E-04 Eh
 * total energy  :   -82.9378597 Eh     change       -0.6591621E-05 Eh
 * total energy  :   -82.9378671 Eh     change       -0.7371847E-05 Eh
 * total energy  :   -82.9378699 Eh     change       -0.2760981E-05 Eh
   *** GEOMETRY OPTIMIZATION CONVERGED AFTER 26 ITERATIONS ***

 final structure:
================
42
 xtb: 6.5.1 (579679a)
C           -6.23632624064070       -1.97064282982037        0.70927725035435
O           -5.04956714628834       -1.20974716585188        0.48029994293804
C           -5.09084166963445       -0.34357961451329       -0.54505463327699
O           -6.07231510720433       -0.20705412338218       -1.24109343752994
C           -3.81292759698951        0.39375156799307       -0.69796668779465
N           -2.83404161976686        0.06048861876963        0.17114672784331
C           -1.67628618957184        0.65017656740219        0.12891214686211
C           -0.61396359988770        0.28611632600608        1.13772569148201
C           -0.57456403046037        1.39295891071036        2.20478224220681
C           -0.91919313119595       -1.07699413074372        1.76529522438985
N            0.67051638357002        0.22757774831740        0.42811236869383
C            1.84959622884177        0.00332803802866        1.05029855286609
O            2.02110521657859       -0.10925022163222        2.24838680336360
C            2.95822299062354       -0.08632614540760        0.06128911438093
N            2.79916172910682        0.01578911293300       -1.27057401672379
N            3.94535599246897       -0.11762319548277       -1.83020963656725
C            4.94379658476806       -0.32661844493223       -0.81333130448046
C            5.96747738072760        0.81204466415028       -0.82422194447939
C            5.59669893334026       -1.70130052506196       -0.98197375962600
O            4.20131874748582       -0.29240552672294        0.40653087611409
N           -1.40200212774296        1.64223121017387       -0.76018914951774
C           -2.29578440171362        2.09437388805812       -1.71887141595226
O           -1.97277485488933        2.98340536652622       -2.48103320652761
C           -3.64458147738145        1.40208466321601       -1.71302863087733
O           -4.49393318400967        1.73043208020947       -2.53718166555956
H           -7.07867447984309       -1.30513899816203        0.91689922223906
H           -6.03832429031459       -2.60633855853732        1.57003347442904
H           -6.46844542880068       -2.58269136094254       -0.16641671403883
H            0.13827416076273        1.13767864154848        2.98575748955647
H           -0.28424826618925        2.33755778573269        1.74918827586210
H           -1.56424667877336        1.49840845566421        2.64668228793488
H           -1.89771014761893       -1.04106675389725        2.24208039725400
H           -0.92905583452100       -1.84602055566577        0.99456770865586
H           -0.16445499348877       -1.32039894586511        2.50999529878200
H            0.66125053837350        0.20632399777037       -0.58037329640852
H            6.49726589013241        0.80648178441879       -1.77329372443137
H            5.45201568442011        1.76154682398173       -0.69708011239344
H            6.67112384861688        0.66709088666400       -0.00795737328840
H            6.30620382896355       -1.86201340905189       -0.17390123269291
H            4.82818176198462       -2.47064369839474       -0.95165833098865
H            6.11241760257943       -1.73577389414038       -1.93823307821254
H           -0.50572400641799        2.10177995993344       -0.73701174483764

          :  Hamiltonian                  GFN1-xTB          :
         :: total energy             -82.937869851482 Eh    ::
         :: gradient norm              0.000542907602 Eh/a0 ::
         :: HOMO-LUMO gap              0.045298072190 eV    ::
         :: SCC energy               -83.704750056580 Eh    ::
         :: -> Gsolv                  -0.071837200288 Eh    ::
         :: repulsion energy           0.792270860248 Eh    ::

    * Orbital Energies and Occupations

         #    Occupation            Energy/Eh            Energy/eV
      -------------------------------------------------------------
         1        2.0000           -0.8824594             -24.0129
       ...           ...                  ...                  ...
        55        2.0000           -0.5150507             -14.0152
        56        2.0000           -0.5105031             -13.8915
        57        2.0000           -0.5092992             -13.8587
        58        2.0000           -0.5047909             -13.7361
        59        2.0000           -0.4928025             -13.4098
        60        2.0000           -0.4870408             -13.2531
        61        2.0000           -0.4839503             -13.1690
        62        2.0000           -0.4758807             -12.9494
        63        2.0000           -0.4698688             -12.7858
        64        2.0000           -0.4696633             -12.7802
        65        2.0000           -0.4618865             -12.5686
        66        2.0000           -0.4234378             -11.5223
        67        1.4120           -0.4082972             -11.1103 (HOMO)
        68        0.5880           -0.4066325             -11.0650 (LUMO)
        69                         -0.3253281              -8.8526
        70                         -0.3111931              -8.4680
        71                         -0.2860107              -7.7827
        72                         -0.2358011              -6.4165
        73                         -0.2244287              -6.1070
        74                         -0.1575687              -4.2877
        75                         -0.1440230              -3.9191
        76                         -0.1384972              -3.7687
        77                         -0.1352721              -3.6809
        78                         -0.1351811              -3.6785
       ...                                ...                  ...
       134                          0.7521389              20.4667
      -------------------------------------------------------------
                  HL-Gap            0.0016647 Eh            0.0453 eV

Wiberg/Mayer (AO) data.
largest (>0.10) Wiberg bond orders for each atom

     #   Z sym  total        # sym  WBO       # sym  WBO       # sym  WBO
 ---------------------------------------------------------------------------
     1   6 C    3.876 --    27 H    0.986    28 H    0.979    26 H    0.979
                             2 O    0.904
     2   8 O    2.176 --     3 C    1.089     1 C    0.904     4 O    0.130
     3   6 C    3.841 --     4 O    1.647     2 O    1.089     5 C    1.027
     4   8 O    1.890 --     3 C    1.647     2 O    0.130
     5   6 C    3.712 --     6 N    1.291    24 C    1.163     3 C    1.027
     6   7 N    2.987 --     7 C    1.484     5 C    1.291
     7   6 C    3.792 --     6 N    1.484    21 N    1.184     8 C    0.987
     8   6 C    3.923 --     7 C    0.987    10 C    0.986     9 C    0.967
                            11 N    0.917
     9   6 C    3.973 --    30 H    0.984    31 H    0.984    29 H    0.976
                             8 C    0.967
    10   6 C    3.982 --     8 C    0.986    33 H    0.985    32 H    0.982
                            34 H    0.982
    11   7 N    3.321 --    12 C    1.242     8 C    0.917    35 H    0.890
                            13 O    0.188
    12   6 C    3.909 --    13 O    1.599    11 N    1.242    14 C    0.985
    13   8 O    1.909 --    12 C    1.599    11 N    0.188
    14   6 C    3.636 --    15 N    1.306    20 O    1.199    12 C    0.985
    15   7 N    3.013 --    16 N    1.541    14 C    1.306
    16   7 N    2.688 --    15 N    1.541    17 C    1.023
    17   6 C    3.835 --    16 N    1.023    19 C    0.937    18 C    0.937
                            20 O    0.877
    18   6 C    3.936 --    37 H    0.982    36 H    0.982    38 H    0.980
                            17 C    0.937
    19   6 C    3.936 --    40 H    0.982    41 H    0.982    39 H    0.980
                            17 C    0.937
    20   8 O    2.217 --    14 C    1.199    17 C    0.877
    21   7 N    3.420 --     7 C    1.184    22 C    1.104    42 H    0.883
                            23 O    0.113
    22   6 C    3.838 --    23 O    1.655    21 N    1.104    24 C    0.948
    23   8 O    1.876 --    22 C    1.655    21 N    0.113
    24   6 C    3.868 --    25 O    1.617     5 C    1.163    22 C    0.948
    25   8 O    1.796 --    24 C    1.617
    26   1 H    1.007 --     1 C    0.979
    27   1 H    1.012 --     1 C    0.986
    28   1 H    1.007 --     1 C    0.979
    29   1 H    1.006 --     9 C    0.976
    30   1 H    1.000 --     9 C    0.984
    31   1 H    1.000 --     9 C    0.984
    32   1 H    1.009 --    10 C    0.982
    33   1 H    1.003 --    10 C    0.985
    34   1 H    1.005 --    10 C    0.982
    35   1 H    0.946 --    11 N    0.890
    36   1 H    0.997 --    18 C    0.982
    37   1 H    0.996 --    18 C    0.982
    38   1 H    0.996 --    18 C    0.980
    39   1 H    0.996 --    19 C    0.980
    40   1 H    0.996 --    19 C    0.982
    41   1 H    0.997 --    19 C    0.982
    42   1 H    0.928 --    21 N    0.883
 ---------------------------------------------------------------------------

           -------------------------------------------------
          | TOTAL ENERGY              -82.937869851482 Eh   |
          | GRADIENT NORM               0.000542907602 Eh/α |
          | HOMO-LUMO GAP               0.045298072190 eV   |
           -------------------------------------------------

 * finished run on 2023/06/21 at 17:29:03.765
