   * xtb version 6.5.1 (579679a) compiled by 'ehlert@majestix' on 2022-07-11
          program call               : /lustre/hpc/kemi/ree/PhD/git/ReactivityQM/dep/xtb-6.5.1/bin/xtb --gfn 1 /lustre/hpc/kemi/ree/PhD/git/ReactivityQM/calculations/R01/reac02/conf08/R01_reac02_conf08_gfn1.xyz --opt --vfukui --chrg 0 --uhf 0 --alpb DMSO

   ID    Z sym.   atoms
    1    6 C      1, 3, 5, 7-10, 13, 15
    2    8 O      2, 4, 14, 16
    3    7 N      6, 11, 12
    4    1 H      17-29

      * Solvation model:               ALPB
        Solvent                        DMSO
        Solvent mass                       7.8130E+01 g/mol
          :  Hamiltonian                  GFN1-xTB          :
 * total energy  :   -54.5079876 Eh     change       -0.6117773E-11 Eh
 * total energy  :   -54.5146857 Eh     change       -0.6698082E-02 Eh
 * total energy  :   -54.5164399 Eh     change       -0.1754215E-02 Eh
 * total energy  :   -54.5166951 Eh     change       -0.2551521E-03 Eh
 * total energy  :   -54.5169185 Eh     change       -0.2233697E-03 Eh
 * total energy  :   -54.5170207 Eh     change       -0.1022134E-03 Eh
 * total energy  :   -54.5171195 Eh     change       -0.9879860E-04 Eh
 * total energy  :   -54.5171672 Eh     change       -0.4776173E-04 Eh
 * total energy  :   -54.5171818 Eh     change       -0.1452730E-04 Eh
 * total energy  :   -54.5171900 Eh     change       -0.8198730E-05 Eh
 * total energy  :   -54.5171976 Eh     change       -0.7615346E-05 Eh
 * total energy  :   -54.5172051 Eh     change       -0.7495892E-05 Eh
 * total energy  :   -54.5172095 Eh     change       -0.4468182E-05 Eh
   *** GEOMETRY OPTIMIZATION CONVERGED AFTER 13 ITERATIONS ***

 final structure:
================
29
 xtb: 6.5.1 (579679a)
C            4.60685726084581       -0.80315409935812        1.72170658081570
O            3.59594244713495       -0.54250473410429        0.74407977514892
C            2.34832895393261       -0.42526455294758        1.19786285736927
O            2.05955937838559       -0.53231460852591        2.36882706651282
C            1.34741426285186       -0.14907816250152        0.12531020052030
N            0.06094240729971       -0.02602161367004        0.59601525346715
C           -0.89957650901790        0.21940668795679       -0.22995309224676
C           -2.33307332825511        0.31816683259106        0.24568704855688
C           -2.39138857555354        1.06069205580568        1.58711310103566
C           -2.87747517563634       -1.10979478467595        0.39238052040286
N           -3.10130673312053        1.00858161811116       -0.78515725161285
N           -0.69495432478972        0.34493276449429       -1.57115047268274
C            0.53587483586279        0.24339297855266       -2.15767433286804
O            0.71914301693224        0.36224951528272       -3.36298767583429
C            1.61764352966554       -0.02123289989101       -1.21081189341327
O            2.84046908031438       -0.11913231879550       -1.75270505259199
H            4.65257285729030        0.01695486496659        2.44237089972415
H            5.54815622649465       -0.88458541682435        1.18232545710670
H            4.38923721966347       -1.73533286029946        2.24868424791737
H           -1.77462141394197        0.54515151957271        2.32335340374499
H           -2.02184651869578        2.07813635013372        1.46735838060188
H           -3.41928440114812        1.09895134061012        1.94186717008538
H           -2.86077522948818       -1.61462534429279       -0.57280607773289
H           -2.26722026180910       -1.67155550289296        1.09901889495582
H           -3.90295024520376       -1.07732751265097        0.75633786324648
H           -4.08693850302831        0.83305514430620       -0.65364032023280
H           -2.95571912113709        2.00652957399253       -0.71163762194950
H           -1.50455827012138        0.55200953509097       -2.14639769061227
H            2.76954513427249        0.02371362997133       -2.71452123943870

          :  Hamiltonian                  GFN1-xTB          :
         :: total energy             -54.517209544692 Eh    ::
         :: gradient norm              0.000928982291 Eh/a0 ::
         :: HOMO-LUMO gap              2.657016509479 eV    ::
         :: SCC energy               -55.044510582967 Eh    ::
         :: -> Gsolv                  -0.042074419835 Eh    ::
         :: repulsion energy           0.543152547584 Eh    ::

    * Orbital Energies and Occupations

         #    Occupation            Energy/Eh            Energy/eV
      -------------------------------------------------------------
         1        2.0000           -0.8382940             -22.8111
       ...           ...                  ...                  ...
        32        2.0000           -0.5172226             -14.0743
        33        2.0000           -0.5136714             -13.9777
        34        2.0000           -0.5125238             -13.9465
        35        2.0000           -0.5041733             -13.7193
        36        2.0000           -0.4964319             -13.5086
        37        2.0000           -0.4962680             -13.5041
        38        2.0000           -0.4878666             -13.2755
        39        2.0000           -0.4836838             -13.1617
        40        2.0000           -0.4829297             -13.1412
        41        2.0000           -0.4562389             -12.4149
        42        2.0000           -0.4471771             -12.1683
        43        2.0000           -0.4273290             -11.6282
        44        2.0000           -0.4182770             -11.3819 (HOMO)
        45                         -0.3206334              -8.7249 (LUMO)
        46                         -0.2779711              -7.5640
        47                         -0.2374248              -6.4607
        48                         -0.1549245              -4.2157
        49                         -0.1381594              -3.7595
        50                         -0.1255483              -3.4163
        51                         -0.1215725              -3.3082
        52                         -0.1030614              -2.8044
        53                         -0.0972216              -2.6455
        54                         -0.0909924              -2.4760
        55                         -0.0750280              -2.0416
       ...                                ...                  ...
        90                          0.7298690              19.8607
      -------------------------------------------------------------
                  HL-Gap            0.0976436 Eh            2.6570 eV

Wiberg/Mayer (AO) data.
largest (>0.10) Wiberg bond orders for each atom

     #   Z sym  total        # sym  WBO       # sym  WBO       # sym  WBO
 ---------------------------------------------------------------------------
     1   6 C    3.873 --    18 H    0.986    19 H    0.980    17 H    0.980
                             2 O    0.898
     2   8 O    2.202 --     3 C    1.113     1 C    0.898     4 O    0.134
     3   6 C    3.850 --     4 O    1.655     2 O    1.113     5 C    1.000
     4   8 O    1.917 --     3 C    1.655     2 O    0.134
     5   6 C    3.965 --    15 C    1.506     6 N    1.180     3 C    1.000
     6   7 N    3.019 --     7 C    1.581     5 C    1.180
     7   6 C    3.922 --     6 N    1.581    12 N    1.173     8 C    0.979
     8   6 C    3.966 --    11 N    0.988     9 C    0.985     7 C    0.979
                            10 C    0.978
     9   6 C    3.994 --    22 H    0.986     8 C    0.985    21 H    0.985
                            20 H    0.983
    10   6 C    3.993 --    23 H    0.986    24 H    0.986    25 H    0.983
                             8 C    0.978
    11   7 N    2.980 --     8 C    0.988    27 H    0.940    26 H    0.936
    12   7 N    3.478 --     7 C    1.173    13 C    1.153    28 H    0.866
                            14 O    0.134
    13   6 C    3.914 --    14 O    1.561    12 N    1.153    15 C    1.066
    14   8 O    1.886 --    13 C    1.561    12 N    0.134
    15   6 C    3.919 --     5 C    1.506    16 O    1.099    13 C    1.066
    16   8 O    2.077 --    15 C    1.099    29 H    0.809
    17   1 H    1.008 --     1 C    0.980
    18   1 H    1.011 --     1 C    0.986
    19   1 H    1.008 --     1 C    0.980
    20   1 H    1.010 --     9 C    0.983
    21   1 H    1.003 --     9 C    0.985
    22   1 H    1.002 --     9 C    0.986
    23   1 H    1.003 --    10 C    0.986
    24   1 H    1.004 --    10 C    0.986
    25   1 H    1.000 --    10 C    0.983
    26   1 H    0.951 --    11 N    0.936
    27   1 H    0.953 --    11 N    0.940
    28   1 H    0.947 --    12 N    0.866
    29   1 H    0.850 --    16 O    0.809
 ---------------------------------------------------------------------------

           -------------------------------------------------
          | TOTAL ENERGY              -54.517209544692 Eh   |
          | GRADIENT NORM               0.000928982291 Eh/α |
          | HOMO-LUMO GAP               2.657016509479 eV   |
           -------------------------------------------------

 * finished run on 2023/06/20 at 14:51:59.017
