                         Program Version 5.0.1 -  RELEASE  -
|  1> # ORCA input file
|  2> ! SP r2SCAN-3c CPCM
|  3>
|  4> %maxcore 1875.0
|  5> %pal nprocs 4 end
|  6> %cpcm smd true SMDsolvent "DMSO" end
|  7>
|  8> *xyz 1 1
|  9> C       4.282926    1.086022    0.821999
| 10> O       2.928148    0.684643    0.535961
| 11> C       2.773635   -0.421457   -0.159986
| 12> O       3.702020   -1.096166   -0.556593
| 13> C       1.367264   -0.757563   -0.535788
| 14> C       1.176684   -1.554778   -1.638429
| 15> O       2.141110   -2.158235   -2.299574
| 16> C      -0.174156   -1.742135   -2.202349
| 17> O      -0.469648   -2.422733   -3.151970
| 18> N      -1.118634   -0.991016   -1.518721
| 19> C      -0.951384   -0.279379   -0.403052
| 20> C      -2.250618    0.339621    0.119045
| 21> C      -2.090410    1.788918    0.599668
| 22> C      -2.836833   -0.572660    1.206946
| 23> N      -3.175877    0.313120   -1.012784
| 24> N       0.258046   -0.203450    0.127400
| 25> C       0.476326    0.369154    1.460872
| 26> H       4.208518    1.948944    1.479709
| 27> H       4.813070    0.267278    1.312150
| 28> H       4.786652    1.349255   -0.109795
| 29> H       3.022656   -1.989164   -1.878614
| 30> H      -2.086729   -0.960441   -1.867686
| 31> H      -3.070368    2.263046    0.573186
| 32> H      -1.721393    1.845105    1.620614
| 33> H      -1.418507    2.337970   -0.057236
| 34> H      -3.761062   -0.129209    1.573252
| 35> H      -2.154059   -0.692918    2.044642
| 36> H      -3.054094   -1.552907    0.785322
| 37> H      -4.126898    0.276240   -0.673454
| 38> H      -3.071920    1.156232   -1.560452
| 39> H      -0.430531    0.273184    2.045235
| 40> H       1.267434   -0.190010    1.952333
| 41> H       0.758634    1.415492    1.368149
| 42> **                         ****END OF INPUT****

CARTESIAN COORDINATES (ANGSTROEM)
---------------------------------
  C      4.282926    1.086022    0.821999
  O      2.928148    0.684643    0.535961
  C      2.773635   -0.421457   -0.159986
  O      3.702020   -1.096166   -0.556593
  C      1.367264   -0.757563   -0.535788
  C      1.176684   -1.554778   -1.638429
  O      2.141110   -2.158235   -2.299574
  C     -0.174156   -1.742135   -2.202349
  O     -0.469648   -2.422733   -3.151970
  N     -1.118634   -0.991016   -1.518721
  C     -0.951384   -0.279379   -0.403052
  C     -2.250618    0.339621    0.119045
  C     -2.090410    1.788918    0.599668
  C     -2.836833   -0.572660    1.206946
  N     -3.175877    0.313120   -1.012784
  N      0.258046   -0.203450    0.127400
  C      0.476326    0.369154    1.460872
  H      4.208518    1.948944    1.479709
  H      4.813070    0.267278    1.312150
  H      4.786652    1.349255   -0.109795
  H      3.022656   -1.989164   -1.878614
  H     -2.086729   -0.960441   -1.867686
  H     -3.070368    2.263046    0.573186
  H     -1.721393    1.845105    1.620614
  H     -1.418507    2.337970   -0.057236
  H     -3.761062   -0.129209    1.573252
  H     -2.154059   -0.692918    2.044642
  H     -3.054094   -1.552907    0.785322
  H     -4.126898    0.276240   -0.673454
  H     -3.071920    1.156232   -1.560452
  H     -0.430531    0.273184    2.045235
  H      1.267434   -0.190010    1.952333
  H      0.758634    1.415492    1.368149

 Total Charge           Charge          ....    1
 Multiplicity           Mult            ....    1
 Number of Electrons    NEL             ....  128
 Basis Dimension        Dim             ....  438

ORBITAL ENERGIES
----------------

  NO   OCC          E(Eh)            E(eV)
   0   2.0000     -19.031135      -517.8635
   1   2.0000     -19.018382      -517.5165
   2   2.0000     -18.977597      -516.4067
   3   2.0000     -18.961304      -515.9633
   4   2.0000     -14.287154      -388.7732
   5   2.0000     -14.247346      -387.6900
   6   2.0000     -14.160204      -385.3187
   7   2.0000     -10.203475      -277.6507
   8   2.0000     -10.177536      -276.9448
   9   2.0000     -10.176868      -276.9267
  10   2.0000     -10.155964      -276.3578
  11   2.0000     -10.134206      -275.7658
  12   2.0000     -10.114762      -275.2367
  13   2.0000     -10.091282      -274.5977
  14   2.0000     -10.081579      -274.3337
  15   2.0000     -10.034645      -273.0566
  16   2.0000     -10.029640      -272.9204
  17   2.0000      -1.115069       -30.3426
  18   2.0000      -1.081256       -29.4225
  19   2.0000      -1.053470       -28.6664
  20   2.0000      -1.025272       -27.8991
  21   2.0000      -1.021259       -27.7899
  22   2.0000      -0.945355       -25.7244
  23   2.0000      -0.888652       -24.1814
  24   2.0000      -0.810014       -22.0416
  25   2.0000      -0.746664       -20.3178
  26   2.0000      -0.737628       -20.0719
  27   2.0000      -0.724120       -19.7043
  28   2.0000      -0.686529       -18.6814
  29   2.0000      -0.673121       -18.3166
  30   2.0000      -0.662502       -18.0276
  31   2.0000      -0.599541       -16.3143
  32   2.0000      -0.584676       -15.9098
  33   2.0000      -0.574341       -15.6286
  34   2.0000      -0.564194       -15.3525
  35   2.0000      -0.522647       -14.2220
  36   2.0000      -0.502829       -13.6827
  37   2.0000      -0.494181       -13.4474
  38   2.0000      -0.481485       -13.1019
  39   2.0000      -0.478501       -13.0207
  40   2.0000      -0.469677       -12.7806
  41   2.0000      -0.465067       -12.6551
  42   2.0000      -0.447265       -12.1707
  43   2.0000      -0.441267       -12.0075
  44   2.0000      -0.436089       -11.8666
  45   2.0000      -0.429450       -11.6859
  46   2.0000      -0.412466       -11.2238
  47   2.0000      -0.407586       -11.0910
  48   2.0000      -0.396956       -10.8017
  49   2.0000      -0.388996       -10.5851
  50   2.0000      -0.385445       -10.4885
  51   2.0000      -0.375783       -10.2256
  52   2.0000      -0.365780        -9.9534
  53   2.0000      -0.362851        -9.8737
  54   2.0000      -0.353668        -9.6238
  55   2.0000      -0.345672        -9.4062
  56   2.0000      -0.339117        -9.2278
  57   2.0000      -0.328170        -8.9300
  58   2.0000      -0.310187        -8.4406
  59   2.0000      -0.303815        -8.2672
  60   2.0000      -0.290123        -7.8947
  61   2.0000      -0.269121        -7.3232
  62   2.0000      -0.244680        -6.6581
  63   2.0000      -0.243083        -6.6146
  64   0.0000      -0.118749        -3.2313
  65   0.0000      -0.087845        -2.3904
  66   0.0000      -0.023806        -0.6478
  67   0.0000       0.039299         1.0694
  68   0.0000       0.045072         1.2265

MULLIKEN ATOMIC CHARGES
-----------------------
   0 C :   -0.315122
   1 O :   -0.178139
   2 C :    0.251431
   3 O :   -0.469705
   4 C :    0.034173
   5 C :    0.147405
   6 O :   -0.349820
   7 C :    0.053858
   8 O :   -0.360040
   9 N :   -0.012043
  10 C :    0.171475
  11 C :    0.133347
  12 C :   -0.514431
  13 C :   -0.528742
  14 N :   -0.715920
  15 N :    0.393005
  16 C :   -0.430789
  17 H :    0.188276
  18 H :    0.186916
  19 H :    0.189718
  20 H :    0.387471
  21 H :    0.352498
  22 H :    0.191818
  23 H :    0.183739
  24 H :    0.199383
  25 H :    0.194139
  26 H :    0.185296
  27 H :    0.191390
  28 H :    0.315766
  29 H :    0.303575
  30 H :    0.199352
  31 H :    0.199044
  32 H :    0.221676
Sum of atomic charges:    1.0000000

LOEWDIN ATOMIC CHARGES
----------------------
   0 C :   -0.019248
   1 O :   -0.576425
   2 C :    0.415717
   3 O :   -0.442571
   4 C :    0.233239
   5 C :    0.310225
   6 O :   -0.412009
   7 C :    0.396553
   8 O :   -0.375665
   9 N :   -0.437391
  10 C :    0.437871
  11 C :    0.072245
  12 C :   -0.356003
  13 C :   -0.336874
  14 N :   -0.662130
  15 N :   -0.641596
  16 C :   -0.047242
  17 H :    0.193356
  18 H :    0.190994
  19 H :    0.190240
  20 H :    0.323048
  21 H :    0.330219
  22 H :    0.179933
  23 H :    0.171618
  24 H :    0.177290
  25 H :    0.179421
  26 H :    0.172042
  27 H :    0.178428
  28 H :    0.267026
  29 H :    0.262213
  30 H :    0.200668
  31 H :    0.215961
  32 H :    0.208847

  Mayer bond orders larger than 0.100000
B(  0-C ,  1-O ) :   0.8167 B(  0-C , 17-H ) :   0.9561 B(  0-C , 18-H ) :   0.9478
B(  0-C , 19-H ) :   0.9471 B(  1-O ,  2-C ) :   1.1916 B(  2-C ,  3-O ) :   1.7189
B(  2-C ,  4-C ) :   1.0223 B(  4-C ,  5-C ) :   1.3729 B(  4-C , 15-N ) :   1.0743
B(  5-C ,  6-O ) :   1.1533 B(  5-C ,  7-C ) :   0.9641 B(  6-O , 20-H ) :   0.7471
B(  7-C ,  8-O ) :   2.0605 B(  7-C ,  9-N ) :   1.0077 B(  9-N , 10-C ) :   1.2944
B(  9-N , 15-N ) :   0.1184 B(  9-N , 21-H ) :   0.8129 B( 10-C , 11-C ) :   0.8405
B( 10-C , 15-N ) :   1.4865 B( 11-C , 12-C ) :   0.8974 B( 11-C , 13-C ) :   0.9492
B( 11-C , 14-N ) :   0.8868 B( 12-C , 22-H ) :   0.9671 B( 12-C , 23-H ) :   0.9422
B( 12-C , 24-H ) :   0.9638 B( 13-C , 25-H ) :   0.9555 B( 13-C , 26-H ) :   0.9516
B( 13-C , 27-H ) :   0.9528 B( 14-N , 28-H ) :   0.9018 B( 14-N , 29-H ) :   0.9102
B( 15-N , 16-C ) :   0.8466 B( 16-C , 30-H ) :   0.9275 B( 16-C , 31-H ) :   0.9202
B( 16-C , 32-H ) :   0.9176

Dispersion correction           -0.013777200
FINAL SINGLE POINT ENERGY      -855.576254069943

DIPOLE MOMENT
-------------
                                X             Y             Z
Electronic contribution:      9.58667     -10.61342     -12.36607
Nuclear contribution   :    -11.26246      13.63792      15.53681
                        -----------------------------------------
Total Dipole Moment    :     -1.67580       3.02450       3.17074
                        -----------------------------------------
Magnitude (a.u.)       :      4.69143
Magnitude (Debye)      :     11.92466

Rotational constants in cm-1:     0.022412     0.012367     0.008575
Rotational constants in MHz :   671.889372   370.748386   257.062338

                             ****ORCA TERMINATED NORMALLY****
TOTAL RUN TIME: 0 days 0 hours 1 minutes 20 seconds 842 msec
