   * xtb version 6.5.1 (579679a) compiled by 'ehlert@majestix' on 2022-07-11
          program call               : /lustre/hpc/kemi/ree/PhD/git/ReactivityQM/dep/xtb-6.5.1/bin/xtb --gfn 1 /lustre/hpc/kemi/ree/PhD/git/ReactivityQM/calculations/R01/reac02prodN04/conf01/R01_reac02prodN04_conf01_gfn1.xyz --opt --vfukui --chrg 1 --uhf 0 --alpb DMSO

   ID    Z sym.   atoms
    1    6 C      1, 3, 5, 6, 8, 11-14, 17
    2    8 O      2, 4, 7, 9
    3    7 N      10, 15, 16
    4    1 H      18-33

      * Solvation model:               ALPB
        Solvent                        DMSO
        Solvent mass                       7.8130E+01 g/mol
          :  Hamiltonian                  GFN1-xTB          :
 * total energy  :   -57.8385187 Eh     change       -0.1409717E-10 Eh
 * total energy  :   -57.8553243 Eh     change       -0.1680561E-01 Eh
 * total energy  :   -57.8607033 Eh     change       -0.5378984E-02 Eh
 * total energy  :   -57.8616282 Eh     change       -0.9248979E-03 Eh
 * total energy  :   -57.8621951 Eh     change       -0.5669778E-03 Eh
 * total energy  :   -57.8624719 Eh     change       -0.2767316E-03 Eh
 * total energy  :   -57.8626932 Eh     change       -0.2213547E-03 Eh
 * total energy  :   -57.8628506 Eh     change       -0.1573750E-03 Eh
 * total energy  :   -57.8629782 Eh     change       -0.1276319E-03 Eh
 * total energy  :   -57.8630828 Eh     change       -0.1045335E-03 Eh
 * total energy  :   -57.8631796 Eh     change       -0.5387755E-04 Eh
 * total energy  :   -57.8631974 Eh     change       -0.1783586E-04 Eh
 * total energy  :   -57.8632135 Eh     change       -0.1607871E-04 Eh
 * total energy  :   -57.8632236 Eh     change       -0.1006589E-04 Eh
 * total energy  :   -57.8632386 Eh     change       -0.1505571E-04 Eh
 * total energy  :   -57.8632642 Eh     change       -0.2562159E-04 Eh
 * total energy  :   -57.8632774 Eh     change       -0.1319320E-04 Eh
 * total energy  :   -57.8632828 Eh     change       -0.5373431E-05 Eh
 * total energy  :   -57.8632856 Eh     change       -0.2797635E-05 Eh
   *** GEOMETRY OPTIMIZATION CONVERGED AFTER 20 ITERATIONS ***

 final structure:
================
33
 xtb: 6.5.1 (579679a)
C            4.28292562564815        1.08602196448377        0.82199861996865
O            2.92814762205455        0.68464284118922        0.53596101080504
C            2.77363487442416       -0.42145746033315       -0.15998628085660
O            3.70201996061955       -1.09616642595321       -0.55659275943529
C            1.36726377866706       -0.75756346825818       -0.53578818613181
C            1.17668432875595       -1.55477849420927       -1.63842908073293
O            2.14111013149429       -2.15823476110602       -2.29957382180550
C           -0.17415601096067       -1.74213487852647       -2.20234882976818
O           -0.46964817499347       -2.42273255264342       -3.15196968899157
N           -1.11863373480343       -0.99101567048925       -1.51872084776441
C           -0.95138375332541       -0.27937913667450       -0.40305209405728
C           -2.25061761614696        0.33962062641150        0.11904536363546
C           -2.09041035464768        1.78891823436360        0.59966758993436
C           -2.83683275104421       -0.57265972912868        1.20694615512439
N           -3.17587653224064        0.31312031836095       -1.01278372863191
N            0.25804621390158       -0.20345029704172        0.12739954996404
C            0.47632561796882        0.36915391946966        1.46087244788545
H            4.20851834791392        1.94894444189106        1.47970906488217
H            4.81306963128117        0.26727819007778        1.31215001339305
H            4.78665195385294        1.34925466015225       -0.10979459456158
H            3.02265605843922       -1.98916422870687       -1.87861370295655
H           -2.08672861477073       -0.96044087138499       -1.86768582124841
H           -3.07036785228145        2.26304558960567        0.57318566319979
H           -1.72139271812351        1.84510467372818        1.62061422193736
H           -1.41850686697724        2.33796995067222       -0.05723638377195
H           -3.76106164932147       -0.12920910906629        1.57325229817710
H           -2.15405902823181       -0.69291830912928        2.04464244603085
H           -3.05409394739989       -1.55290665479308        0.78532215070988
H           -4.12689817161445        0.27623976914609       -0.67345439519887
H           -3.07191983580845        1.15623195916834       -1.56045236698855
H           -0.43053129537972        0.27318396848150        2.04523469015996
H            1.26743415879423       -0.19001036189006        1.95233330698607
H            0.75863360425709        1.41549230213185        1.36814899010802

          :  Hamiltonian                  GFN1-xTB          :
         :: total energy             -57.863285611142 Eh    ::
         :: gradient norm              0.000894521752 Eh/a0 ::
         :: HOMO-LUMO gap              2.325152536054 eV    ::
         :: SCC energy               -58.439257303175 Eh    ::
         :: -> Gsolv                  -0.104805013774 Eh    ::
         :: repulsion energy           0.595680823441 Eh    ::

    * Orbital Energies and Occupations

         #    Occupation            Energy/Eh            Energy/eV
      -------------------------------------------------------------
         1        2.0000           -0.8862447             -24.1159
       ...           ...                  ...                  ...
        35        2.0000           -0.5633668             -15.3300
        36        2.0000           -0.5446585             -14.8209
        37        2.0000           -0.5389415             -14.6653
        38        2.0000           -0.5352982             -14.5662
        39        2.0000           -0.5303423             -14.4313
        40        2.0000           -0.5281307             -14.3712
        41        2.0000           -0.5250021             -14.2860
        42        2.0000           -0.5209411             -14.1755
        43        2.0000           -0.5201595             -14.1543
        44        2.0000           -0.5155087             -14.0277
        45        2.0000           -0.4933855             -13.4257
        46        2.0000           -0.4757524             -12.9459
        47        2.0000           -0.4488882             -12.2149 (HOMO)
        48                         -0.3634404              -9.8897 (LUMO)
        49                         -0.3479276              -9.4676
        50                         -0.2812584              -7.6534
        51                         -0.2154491              -5.8627
        52                         -0.1683361              -4.5807
        53                         -0.1501743              -4.0864
        54                         -0.1478685              -4.0237
        55                         -0.1407550              -3.8301
        56                         -0.1223051              -3.3281
        57                         -0.1123436              -3.0570
        58                         -0.1072705              -2.9190
       ...                                ...                  ...
       100                          0.7142438              19.4356
      -------------------------------------------------------------
                  HL-Gap            0.0854478 Eh            2.3252 eV

Wiberg/Mayer (AO) data.
largest (>0.10) Wiberg bond orders for each atom

     #   Z sym  total        # sym  WBO       # sym  WBO       # sym  WBO
 ---------------------------------------------------------------------------
     1   6 C    3.839 --    18 H    0.984    19 H    0.978    20 H    0.977
                             2 O    0.865
     2   8 O    2.235 --     3 C    1.156     1 C    0.865     4 O    0.135
     3   6 C    3.864 --     4 O    1.619     2 O    1.156     5 C    1.008
     4   8 O    1.974 --     3 C    1.619     2 O    0.135
     5   6 C    3.917 --     6 C    1.508    16 N    1.060     3 C    1.008
                             7 O    0.110
     6   6 C    3.925 --     5 C    1.508     7 O    1.180     8 C    1.020
     7   8 O    2.134 --     6 C    1.180    21 H    0.744     5 C    0.110
     8   6 C    3.901 --     9 O    1.676    10 N    1.079     6 C    1.020
     9   8 O    1.961 --     8 C    1.676    10 N    0.118
    10   7 N    3.495 --    11 C    1.299     8 C    1.079    22 H    0.819
                             9 O    0.118
    11   6 C    3.887 --    16 N    1.395    10 N    1.299    12 C    0.966
    12   6 C    3.952 --    15 N    0.993    13 C    0.983    14 C    0.972
                            11 C    0.966
    13   6 C    3.987 --    25 H    0.984    12 C    0.983    23 H    0.978
                            24 H    0.978
    14   6 C    3.985 --    28 H    0.983    26 H    0.978    27 H    0.977
                            12 C    0.972
    15   7 N    3.012 --    12 C    0.993    30 H    0.930    29 H    0.924
    16   7 N    3.570 --    11 C    1.395     5 C    1.060    17 C    0.908
    17   6 C    3.896 --    32 H    0.975    31 H    0.973    33 H    0.969
                            16 N    0.908
    18   1 H    1.005 --     1 C    0.984
    19   1 H    1.002 --     1 C    0.978
    20   1 H    1.001 --     1 C    0.977
    21   1 H    0.830 --     7 O    0.744
    22   1 H    0.929 --    10 N    0.819
    23   1 H    0.997 --    13 C    0.978
    24   1 H    0.999 --    13 C    0.978
    25   1 H    0.997 --    13 C    0.984
    26   1 H    0.994 --    14 C    0.978
    27   1 H    0.999 --    14 C    0.977
    28   1 H    0.998 --    14 C    0.983
    29   1 H    0.938 --    15 N    0.924
    30   1 H    0.941 --    15 N    0.930
    31   1 H    1.003 --    17 C    0.973
    32   1 H    0.998 --    17 C    0.975
    33   1 H    1.002 --    17 C    0.969
 ---------------------------------------------------------------------------

           -------------------------------------------------
          | TOTAL ENERGY              -57.863285611142 Eh   |
          | GRADIENT NORM               0.000894521752 Eh/α |
          | HOMO-LUMO GAP               2.325152536054 eV   |
           -------------------------------------------------

 * finished run on 2023/06/20 at 15:05:26.826
