   * xtb version 6.5.1 (579679a) compiled by 'ehlert@majestix' on 2022-07-11
          program call               : /lustre/hpc/kemi/ree/PhD/git/ReactivityQM/dep/xtb-6.5.1/bin/xtb --gfn 1 /lustre/hpc/kemi/ree/PhD/git/ReactivityQM/calculations/RaltegravirCLI/reac01prodN02/conf10/RaltegravirCLI_reac01prodN02_conf10_gfn1.xyz --opt --vfukui --chrg 1 --uhf 0 --alpb DMSO

   ID    Z sym.   atoms
    1    6 C      1, 2, 4, 5, 10
    2    8 O      3, 6
    3   17 Cl     7
    4    7 N      8, 9
    5    1 H      11-16

      * Solvation model:               ALPB
        Solvent                        DMSO
        Solvent mass                       7.8130E+01 g/mol
          :  Hamiltonian                  GFN1-xTB          :
 * total energy  :   -33.4328334 Eh     change       -0.1222134E-11 Eh
 * total energy  :   -33.4385681 Eh     change       -0.5734677E-02 Eh
 * total energy  :   -33.4402172 Eh     change       -0.1649093E-02 Eh
 * total energy  :   -33.4403525 Eh     change       -0.1352998E-03 Eh
 * total energy  :   -33.4404349 Eh     change       -0.8240144E-04 Eh
 * total energy  :   -33.4404409 Eh     change       -0.5981710E-05 Eh
 * total energy  :   -33.4404479 Eh     change       -0.6990980E-05 Eh
 * total energy  :   -33.4404515 Eh     change       -0.3582121E-05 Eh
   *** GEOMETRY OPTIMIZATION CONVERGED AFTER 8 ITERATIONS ***

 final structure:
================
16
 xtb: 6.5.1 (579679a)
C           -1.45242865743014       -1.59356248740842       -0.46757881653106
C           -0.34149154354014       -0.67663314850934       -0.17261578904180
O            0.91711760212046       -1.05590920610080       -0.17591169744122
C            1.64204359726759        0.03884096535309        0.12302843186487
C            3.13346046456508       -0.03852168091119        0.19687677640778
O            3.73064983847140       -1.04869043135549       -0.00316507840302
Cl           3.86094987112805        1.45149847924970        0.58766998199019
N            0.87286897900144        1.06989933888247        0.30816166799749
N           -0.37375580128181        0.61153586286352        0.11717932034884
C           -1.49918423470450        1.51275765892515        0.25881765969778
H           -2.29237658249516       -1.39964235121704        0.19780734228481
H           -1.11204600991599       -2.62264301250159       -0.36156999218137
H           -1.79030137415200       -1.43803592969491       -1.49521070919480
H           -2.32241915267060        1.14037067196691       -0.34434438296983
H           -1.18539941369081        2.49822144854205       -0.07819954855140
H           -1.78768758267288        1.55051382191598        1.30905583372269

          :  Hamiltonian                  GFN1-xTB          :
         :: total energy             -33.440451466622 Eh    ::
         :: gradient norm              0.000506201962 Eh/a0 ::
         :: HOMO-LUMO gap              3.238297170872 eV    ::
         :: SCC energy               -33.735978911915 Eh    ::
         :: -> Gsolv                  -0.089544084002 Eh    ::
         :: repulsion energy           0.302696762538 Eh    ::

    * Orbital Energies and Occupations

         #    Occupation            Energy/Eh            Energy/eV
      -------------------------------------------------------------
         1        2.0000           -0.9823670             -26.7316
       ...           ...                  ...                  ...
        15        2.0000           -0.6354719             -17.2921
        16        2.0000           -0.6321977             -17.2030
        17        2.0000           -0.6198659             -16.8674
        18        2.0000           -0.6150884             -16.7374
        19        2.0000           -0.5966856             -16.2366
        20        2.0000           -0.5827970             -15.8587
        21        2.0000           -0.5775614             -15.7162
        22        2.0000           -0.5699569             -15.5093
        23        2.0000           -0.5584951             -15.1974
        24        2.0000           -0.5324502             -14.4887
        25        2.0000           -0.5222133             -14.2101
        26        2.0000           -0.5182611             -14.1026
        27        2.0000           -0.5086079             -13.8399 (HOMO)
        28                         -0.3896027             -10.6016 (LUMO)
        29                         -0.3538265              -9.6281
        30                         -0.2839014              -7.7254
        31                         -0.2394587              -6.5160
        32                         -0.1879531              -5.1145
        33                         -0.1763684              -4.7992
        34                         -0.1201756              -3.2701
        35                         -0.1176929              -3.2026
        36                         -0.1091079              -2.9690
        37                         -0.1079183              -2.9366
        38                         -0.1078488              -2.9347
       ...                                ...                  ...
        57                          0.7209703              19.6186
      -------------------------------------------------------------
                  HL-Gap            0.1190052 Eh            3.2383 eV

Wiberg/Mayer (AO) data.
largest (>0.10) Wiberg bond orders for each atom

     #   Z sym  total        # sym  WBO       # sym  WBO       # sym  WBO
 ---------------------------------------------------------------------------
     1   6 C    3.957 --     2 C    1.043    12 H    0.967    11 H    0.957
                            13 H    0.930
     2   6 C    3.837 --     9 N    1.406     3 O    1.161     1 C    1.043
     3   8 O    2.396 --     2 C    1.161     4 C    1.062
     4   6 C    3.859 --     8 N    1.606     3 O    1.062     5 C    0.981
     5   6 C    3.901 --     6 O    1.795     7 Cl   1.083     4 C    0.981
     6   8 O    2.067 --     5 C    1.795     7 Cl   0.174
     7  17 Cl   1.313 --     5 C    1.083     6 O    0.174
     8   7 N    2.993 --     4 C    1.606     9 N    1.168
     9   7 N    3.632 --     2 C    1.406     8 N    1.168    10 C    0.906
    10   6 C    3.878 --    14 H    0.978    15 H    0.972    16 H    0.961
                             9 N    0.906
    11   1 H    0.986 --     1 C    0.957
    12   1 H    0.984 --     1 C    0.967
    13   1 H    0.982 --     1 C    0.930
    14   1 H    0.988 --    10 C    0.978
    15   1 H    0.990 --    10 C    0.972
    16   1 H    0.988 --    10 C    0.961
 ---------------------------------------------------------------------------

           -------------------------------------------------
          | TOTAL ENERGY              -33.440451466622 Eh   |
          | GRADIENT NORM               0.000506201962 Eh/α |
          | HOMO-LUMO GAP               3.238297170872 eV   |
           -------------------------------------------------

 * finished run on 2023/06/20 at 14:54:30.465
