   * xtb version 6.5.1 (579679a) compiled by 'ehlert@majestix' on 2022-07-11
          program call               : /lustre/hpc/kemi/ree/PhD/git/ReactivityQM/dep/xtb-6.5.1/bin/xtb --gfn 1 /lustre/hpc/kemi/ree/PhD/git/ReactivityQM/calculations/R02deprot/reac01prodN07/conf15/R02deprot_reac01prodN07_conf15_gfn1.xyz --opt --vfukui --chrg 0 --uhf 0 --alpb DMSO

   ID    Z sym.   atoms
    1    6 C      1, 3, 5, 7-10, 12, 14, 16, 17, 20, 22, 24
    2    8 O      2, 4, 13, 15, 23, 25
    3    7 N      6, 11, 18, 19, 21
    4    1 H      26-42

      * Solvation model:               ALPB
        Solvent                        DMSO
        Solvent mass                       7.8130E+01 g/mol
          :  Hamiltonian                  GFN1-xTB          :
 * total energy  :   -82.9491713 Eh     change       -0.6284040E-10 Eh
 * total energy  :   -82.9649969 Eh     change       -0.1582550E-01 Eh
 * total energy  :   -82.9718777 Eh     change       -0.6880877E-02 Eh
 * total energy  :   -82.9731134 Eh     change       -0.1235628E-02 Eh
 * total energy  :   -82.9742296 Eh     change       -0.1116240E-02 Eh
 * total energy  :   -82.9747757 Eh     change       -0.5460698E-03 Eh
 * total energy  :   -82.9753303 Eh     change       -0.5545976E-03 Eh
 * total energy  :   -82.9759081 Eh     change       -0.5778448E-03 Eh
 * total energy  :   -82.9764204 Eh     change       -0.5122623E-03 Eh
 * total energy  :   -82.9767982 Eh     change       -0.3778602E-03 Eh
 * total energy  :   -82.9795573 Eh     change       -0.9744691E-05 Eh
 * total energy  :   -82.9795670 Eh     change       -0.9764901E-05 Eh
 * total energy  :   -82.9795784 Eh     change       -0.1139078E-04 Eh
 * total energy  :   -82.9795877 Eh     change       -0.9209869E-05 Eh
 * total energy  :   -82.9795948 Eh     change       -0.7127755E-05 Eh
 * total energy  :   -82.9796038 Eh     change       -0.8987282E-05 Eh
 * total energy  :   -82.9796144 Eh     change       -0.1062433E-04 Eh
 * total energy  :   -82.9796223 Eh     change       -0.7939097E-05 Eh
 * total energy  :   -82.9796268 Eh     change       -0.4421771E-05 Eh
   *** GEOMETRY OPTIMIZATION CONVERGED AFTER 59 ITERATIONS ***

 final structure:
================
42
 xtb: 6.5.1 (579679a)
C            6.44124655657150       -0.67606847052904        1.17522923175174
O            5.08229729299057       -0.47836194486923        0.78716487017415
C            4.86684404448636        0.39541714466750       -0.20246374639475
O            5.78502262170498        0.98636520637313       -0.75378435725328
C            3.44817504320471        0.57565037755550       -0.54387453224675
N            2.53302214618696       -0.16262164803211        0.15947528755529
C            1.27286617886977        0.03337491594115       -0.14670345027355
C            0.26741559618043       -0.79766872910775        0.64142315298563
C            0.44893032992684       -0.55270680803272        2.14267754690456
C            0.44624247998127       -2.28124381436967        0.29902649575441
N           -1.05805849050912       -0.34091647510868        0.21289434428813
C           -2.20459944335227       -0.80782622352467        0.66652872115704
O           -2.38996926954353       -1.68241578904533        1.49851210726304
C           -3.39403540915944       -0.11896074335746        0.04005160004120
O           -3.29827919808373        0.85703974616856       -0.84970551736731
C           -4.55767237439839        1.22691526398570       -1.13937010359354
C           -4.82754046663505        2.30149466344446       -2.10968512524472
N           -5.41740783271617        0.52031017971680       -0.46546820872320
N           -4.67117532861787       -0.32148337208573        0.27586819320126
C           -5.33174175052854       -1.27219994196245        1.14346982100500
N            0.77451395880035        0.85948391525649       -1.05924929195497
C            1.61478065104990        1.62851851387925       -1.81658279271798
O            1.19532721570744        2.40797527560379       -2.68151342932740
C            3.04886402722600        1.45925233638939       -1.52192389622467
O            3.91098350136226        2.20512390136542       -2.24325901453693
H            6.43231478783124       -1.39321555938151        1.99404271906597
H            7.02227062505204       -1.06821632461393        0.33640069674268
H            6.88166546117858        0.26818361858486        1.50612153497186
H           -0.21439746103124       -1.19212495543915        2.72203709429493
H            0.23718118930218        0.48913149615443        2.37925255798734
H            1.48326746205825       -0.77282609644762        2.40572164573302
H            0.24413458055909       -2.44716615599946       -0.75824764936395
H            1.47626199038977       -2.56491874007637        0.51304455254111
H           -0.22729484943951       -2.89780870490920        0.89141446657574
H           -1.01471285833353        0.38868353070537       -0.50765766729265
H           -4.27805880338578        3.19988386668295       -1.82725379476815
H           -5.89380889813213        2.51044416579206       -2.13876827126886
H           -4.48631185334466        1.99612198006546       -3.10010737022688
H           -5.62196847645208       -2.13917788106461        0.55069011863578
H           -4.64205830903230       -1.57104894961883        1.92948658057794
H           -6.21670270146185       -0.79348844333162        1.55530312024589
H            4.83216403354364        2.02309667256808       -1.96021824068431

          :  Hamiltonian                  GFN1-xTB          :
         :: total energy             -82.979626750920 Eh    ::
         :: gradient norm              0.000386231971 Eh/a0 ::
         :: HOMO-LUMO gap              0.382237383898 eV    ::
         :: SCC energy               -83.758781569093 Eh    ::
         :: -> Gsolv                  -0.080399850217 Eh    ::
         :: repulsion energy           0.804165492578 Eh    ::

    * Orbital Energies and Occupations

         #    Occupation            Energy/Eh            Energy/eV
      -------------------------------------------------------------
         1        2.0000           -0.9288356             -25.2749
       ...           ...                  ...                  ...
        55        2.0000           -0.5012838             -13.6406
        56        2.0000           -0.4977446             -13.5443
        57        2.0000           -0.4939804             -13.4419
        58        2.0000           -0.4855735             -13.2131
        59        2.0000           -0.4818543             -13.1119
        60        2.0000           -0.4753635             -12.9353
        61        2.0000           -0.4611233             -12.5478
        62        2.0000           -0.4573863             -12.4461
        63        2.0000           -0.4433971             -12.0654
        64        2.0000           -0.4278477             -11.6423
        65        2.0000           -0.4096014             -11.1458
        66        2.0000           -0.3817220             -10.3872
        67        1.9988           -0.3771029             -10.2615 (HOMO)
        68        0.0012           -0.3630559              -9.8793 (LUMO)
        69                         -0.3166306              -8.6160
        70                         -0.2856873              -7.7739
        71                         -0.2400375              -6.5318
        72                         -0.2348977              -6.3919
        73                         -0.1976475              -5.3783
        74                         -0.1664280              -4.5287
        75                         -0.1639906              -4.4624
        76                         -0.1291671              -3.5148
        77                         -0.1185781              -3.2267
        78                         -0.1164417              -3.1685
       ...                                ...                  ...
       134                          0.7285551              19.8250
      -------------------------------------------------------------
                  HL-Gap            0.0140470 Eh            0.3822 eV

Wiberg/Mayer (AO) data.
largest (>0.10) Wiberg bond orders for each atom

     #   Z sym  total        # sym  WBO       # sym  WBO       # sym  WBO
 ---------------------------------------------------------------------------
     1   6 C    3.881 --    26 H    0.987    28 H    0.980    27 H    0.980
                             2 O    0.906
     2   8 O    2.195 --     3 C    1.102     1 C    0.906     4 O    0.120
     3   6 C    3.837 --     4 O    1.590     2 O    1.102     5 C    1.046
     4   8 O    1.922 --     3 C    1.590     2 O    0.120
     5   6 C    3.962 --    24 C    1.464     6 N    1.196     3 C    1.046
     6   7 N    2.993 --     7 C    1.467     5 C    1.196
     7   6 C    3.960 --     6 N    1.467    21 N    1.372     8 C    0.967
     8   6 C    3.909 --     9 C    0.984    10 C    0.981     7 C    0.967
                            11 N    0.905
     9   6 C    3.990 --    30 H    0.986     8 C    0.984    29 H    0.984
                            31 H    0.982
    10   6 C    3.990 --    32 H    0.986    34 H    0.984    33 H    0.983
                             8 C    0.981
    11   7 N    3.442 --    12 C    1.363     8 C    0.905    35 H    0.846
                            13 O    0.211
    12   6 C    3.933 --    13 O    1.548    11 N    1.363    14 C    0.945
    13   8 O    1.915 --    12 C    1.548    11 N    0.211
    14   6 C    3.827 --    19 N    1.451    15 O    1.127    12 C    0.945
    15   8 O    2.370 --    14 C    1.127    16 C    1.069
    16   6 C    3.843 --    18 N    1.582    15 O    1.069    17 C    1.042
    17   6 C    3.972 --    16 C    1.042    37 H    0.978    36 H    0.954
                            38 H    0.948
    18   7 N    2.963 --    16 C    1.582    19 N    1.149
    19   7 N    3.651 --    14 C    1.451    18 N    1.149    20 C    0.911
    20   6 C    3.883 --    41 H    0.974    40 H    0.970    39 H    0.961
                            19 N    0.911
    21   7 N    3.024 --     7 C    1.372    22 C    1.210    23 O    0.126
    22   6 C    3.926 --    23 O    1.518    21 N    1.210    24 C    1.064
    23   8 O    1.806 --    22 C    1.518    21 N    0.126
    24   6 C    3.905 --     5 C    1.464    25 O    1.085    22 C    1.064
    25   8 O    2.059 --    24 C    1.085    42 H    0.800
    26   1 H    1.013 --     1 C    0.987
    27   1 H    1.009 --     1 C    0.980
    28   1 H    1.009 --     1 C    0.980
    29   1 H    1.008 --     9 C    0.984
    30   1 H    1.003 --     9 C    0.986
    31   1 H    1.014 --     9 C    0.982
    32   1 H    1.003 --    10 C    0.986
    33   1 H    1.010 --    10 C    0.983
    34   1 H    1.007 --    10 C    0.984
    35   1 H    0.963 --    11 N    0.846
    36   1 H    0.990 --    17 C    0.954
    37   1 H    0.992 --    17 C    0.978
    38   1 H    0.989 --    17 C    0.948
    39   1 H    0.992 --    20 C    0.961
    40   1 H    1.006 --    20 C    0.970
    41   1 H    0.994 --    20 C    0.974
    42   1 H    0.871 --    25 O    0.800
 ---------------------------------------------------------------------------

           -------------------------------------------------
          | TOTAL ENERGY              -82.979626750920 Eh   |
          | GRADIENT NORM               0.000386231971 Eh/α |
          | HOMO-LUMO GAP               0.382237383898 eV   |
           -------------------------------------------------

 * finished run on 2023/06/20 at 18:13:09.541
