   * xtb version 6.5.1 (579679a) compiled by 'ehlert@majestix' on 2022-07-11
          program call               : /lustre/hpc/kemi/ree/PhD/git/ReactivityQM/dep/xtb-6.5.1/bin/xtb --gfn 1 /lustre/hpc/kemi/ree/PhD/git/ReactivityQM/calculations/R02methylcation/reac01prodE01/conf13/R02methylcation_reac01prodE01_conf13_gfn1.xyz --opt --vfukui --chrg -2 --uhf 0 --alpb DMSO

   ID    Z sym.   atoms
    1    6 C      1, 3, 5, 7-10, 12, 13, 15, 18, 19, 22, 24
    2    8 O      2, 4, 14, 20, 23, 25
    3    7 N      6, 11, 16, 17, 21
    4    1 H      26-42

      * Solvation model:               ALPB
        Solvent                        DMSO
        Solvent mass                       7.8130E+01 g/mol
          :  Hamiltonian                  GFN1-xTB          :
 * total energy  :   -83.6331178 Eh     change       -0.2563638E-10 Eh
 * total energy  :   -83.6447986 Eh     change       -0.1168086E-01 Eh
 * total energy  :   -83.6493580 Eh     change       -0.4559329E-02 Eh
 * total energy  :   -83.6503777 Eh     change       -0.1019681E-02 Eh
 * total energy  :   -83.6510672 Eh     change       -0.6895943E-03 Eh
 * total energy  :   -83.6513937 Eh     change       -0.3264819E-03 Eh
 * total energy  :   -83.6515996 Eh     change       -0.2058288E-03 Eh
 * total energy  :   -83.6516787 Eh     change       -0.7910026E-04 Eh
 * total energy  :   -83.6517099 Eh     change       -0.3127449E-04 Eh
 * total energy  :   -83.6517368 Eh     change       -0.2685329E-04 Eh
 * total energy  :   -83.6524494 Eh     change       -0.1153199E-04 Eh
 * total energy  :   -83.6524602 Eh     change       -0.1077399E-04 Eh
 * total energy  :   -83.6524697 Eh     change       -0.9532011E-05 Eh
 * total energy  :   -83.6524771 Eh     change       -0.7409979E-05 Eh
 * total energy  :   -83.6524832 Eh     change       -0.6125454E-05 Eh
 * total energy  :   -83.6524889 Eh     change       -0.5720266E-05 Eh
 * total energy  :   -83.6524947 Eh     change       -0.5716246E-05 Eh
 * total energy  :   -83.6524997 Eh     change       -0.5005344E-05 Eh
 * total energy  :   -83.6525036 Eh     change       -0.3915126E-05 Eh
   *** GEOMETRY OPTIMIZATION CONVERGED AFTER 41 ITERATIONS ***

 final structure:
================
42
 xtb: 6.5.1 (579679a)
C            6.46366809875398       -0.77256085309068        2.03949931157104
O            5.54575790151119        0.11812745736755        1.42766129266103
C            4.31408761734242       -0.39843047443148        1.15580577404634
O            4.06647697389846       -1.57091168709591        1.42524638854076
C            3.37896767599617        0.53368316763923        0.55384558498152
N            2.13893116829587       -0.03742233272947        0.30856226377241
C            1.19102967762253        0.66186145224863       -0.20046522261490
C           -0.16172807504265        0.02150276516526       -0.51168586753597
C            0.06861777694957       -0.92084661734745       -1.70443785126812
C           -0.57745816547092       -0.80109275011216        0.72312684767123
N           -1.11173824041018        1.10585247059851       -0.78750246134463
C           -2.28118687999467        0.83600315308307       -1.75935254096443
C           -3.13944455777430        2.14541982072914       -1.65890117541200
O           -1.93550514933595        0.51851622984273       -2.96532414695104
C           -3.12721389860508       -0.27094869904536       -1.03573700799927
N           -3.25408030630948       -1.51652207276914       -1.37340494706107
N           -4.07966938084317       -2.10949299510723       -0.43722661558154
C           -4.39992133920437       -1.18255148652146        0.40029782693025
C           -5.26927218942170       -1.30543192844214        1.59560312808289
O           -3.83878398691064        0.00263744520601        0.08739219450461
N            1.36856160599131        1.98209587622911       -0.53808039288821
C            2.52988976857512        2.67275604807678       -0.35657266532766
O            2.59939162579900        3.86302064632284       -0.67409424665939
C            3.67437127505782        1.88555814568052        0.24128221991206
O            4.76846408480696        2.46319421324610        0.41597965262881
H            6.07914664546183       -1.12862926346073        3.00084947835194
H            6.65605039196918       -1.63860448673845        1.39769005267041
H            7.38991860848610       -0.22148613593783        2.19807622577767
H           -0.83069356160017       -1.48977359086519       -1.93658833189141
H            0.86891371891014       -1.61763213942939       -1.44826457864547
H            0.36246710669295       -0.35571632404488       -2.58836803210555
H            0.24478906386607       -1.45469242334037        1.01765119198145
H           -0.80845322851802       -0.13825872541475        1.55627823991325
H           -1.45206970218169       -1.41148398076714        0.50876957323077
H           -1.52593677356811        1.39295748566865        0.09455448627032
H           -2.55633287691698        2.97122670480909       -2.06230027434717
H           -4.03508560985754        2.01560040232596       -2.26412896465615
H           -3.42689629976749        2.36923943972098       -0.63393476704265
H           -6.08866962500975       -0.58970211768964        1.54111974877045
H           -4.69899075734479       -1.09699758402661        2.50076026099306
H           -5.67293528836665       -2.31349321568863        1.64975057021853
H            0.56256310647052        2.47916196014511       -0.90343022318534

          :  Hamiltonian                  GFN1-xTB          :
         :: total energy             -83.652503580727 Eh    ::
         :: gradient norm              0.000267977860 Eh/a0 ::
         :: HOMO-LUMO gap              2.159496260086 eV    ::
         :: SCC energy               -84.385992501729 Eh    ::
         :: -> Gsolv                  -0.270428725932 Eh    ::
         :: repulsion energy           0.760546649119 Eh    ::

    * Orbital Energies and Occupations

         #    Occupation            Energy/Eh            Energy/eV
      -------------------------------------------------------------
         1        2.0000           -0.8165308             -22.2189
       ...           ...                  ...                  ...
        56        2.0000           -0.4399972             -11.9729
        57        2.0000           -0.4370765             -11.8935
        58        2.0000           -0.4319758             -11.7547
        59        2.0000           -0.4262676             -11.5993
        60        2.0000           -0.4215481             -11.4709
        61        2.0000           -0.4111584             -11.1882
        62        2.0000           -0.4077955             -11.0967
        63        2.0000           -0.3988832             -10.8542
        64        2.0000           -0.3705457             -10.0831
        65        2.0000           -0.3626670              -9.8687
        66        2.0000           -0.3501782              -9.5288
        67        2.0000           -0.3419288              -9.3044
        68        2.0000           -0.3370687              -9.1721 (HOMO)
        69                         -0.2577086              -7.0126 (LUMO)
        70                         -0.2241487              -6.0994
        71                         -0.2176455              -5.9224
        72                         -0.2081985              -5.6654
        73                         -0.1846018              -5.0233
        74                         -0.1267475              -3.4490
        75                         -0.1181385              -3.2147
        76                         -0.0955122              -2.5990
        77                         -0.0910525              -2.4777
        78                         -0.0828740              -2.2551
        79                         -0.0795297              -2.1641
       ...                                ...                  ...
       134                          0.7581640              20.6307
      -------------------------------------------------------------
                  HL-Gap            0.0793600 Eh            2.1595 eV

Wiberg/Mayer (AO) data.
largest (>0.10) Wiberg bond orders for each atom

     #   Z sym  total        # sym  WBO       # sym  WBO       # sym  WBO
 ---------------------------------------------------------------------------
     1   6 C    3.904 --    28 H    0.987    27 H    0.980    26 H    0.980
                             2 O    0.931
     2   8 O    2.151 --     3 C    1.034     1 C    0.931     4 O    0.106
     3   6 C    3.849 --     4 O    1.565     5 C    1.129     2 O    1.034
     4   8 O    1.843 --     3 C    1.565     2 O    0.106
     5   6 C    3.919 --    24 C    1.280     6 N    1.143     3 C    1.129
                            25 O    0.130
     6   7 N    3.022 --     7 C    1.627     5 C    1.143
     7   6 C    3.925 --     6 N    1.627    21 N    1.109     8 C    0.968
     8   6 C    3.969 --     9 C    0.984    10 C    0.984    11 N    0.978
                             7 C    0.968
     9   6 C    3.995 --    30 H    0.987     8 C    0.984    31 H    0.983
                            29 H    0.980
    10   6 C    3.995 --    33 H    0.985    34 H    0.984     8 C    0.984
                            32 H    0.983
    11   7 N    3.021 --     8 C    0.978    35 H    0.952    12 C    0.834
    12   6 C    3.936 --    14 O    1.236    13 C    0.933    15 C    0.879
                            11 N    0.834
    13   6 C    3.992 --    38 H    0.989    37 H    0.988    36 H    0.987
                            12 C    0.933
    14   8 O    1.524 --    12 C    1.236
    15   6 C    3.802 --    16 N    1.647    20 O    1.038    12 C    0.879
    16   7 N    2.977 --    15 C    1.647    17 N    1.147
    17   7 N    2.976 --    18 C    1.656    16 N    1.147
    18   6 C    3.887 --    17 N    1.656    20 O    1.061    19 C    1.024
    19   6 C    3.993 --    18 C    1.024    41 H    0.985    39 H    0.971
                            40 H    0.969
    20   8 O    2.290 --    18 C    1.061    15 C    1.038
    21   7 N    3.447 --    22 C    1.183     7 C    1.109    42 H    0.882
                            23 O    0.136
    22   6 C    3.885 --    23 O    1.553    21 N    1.183    24 C    0.974
    23   8 O    1.834 --    22 C    1.553    21 N    0.136
    24   6 C    3.945 --    25 O    1.500     5 C    1.280    22 C    0.974
    25   8 O    1.805 --    24 C    1.500     5 C    0.130
    26   1 H    1.015 --     1 C    0.980
    27   1 H    1.016 --     1 C    0.980
    28   1 H    1.017 --     1 C    0.987
    29   1 H    1.036 --     9 C    0.980
    30   1 H    1.015 --     9 C    0.987
    31   1 H    1.031 --     9 C    0.983
    32   1 H    1.020 --    10 C    0.983
    33   1 H    1.008 --    10 C    0.985
    34   1 H    1.011 --    10 C    0.984
    35   1 H    0.980 --    11 N    0.952
    36   1 H    1.018 --    13 C    0.987
    37   1 H    1.017 --    13 C    0.988
    38   1 H    1.010 --    13 C    0.989
    39   1 H    1.002 --    19 C    0.971
    40   1 H    1.002 --    19 C    0.969
    41   1 H    1.003 --    19 C    0.985
    42   1 H    0.973 --    21 N    0.882
 ---------------------------------------------------------------------------

           -------------------------------------------------
          | TOTAL ENERGY              -83.652503580727 Eh   |
          | GRADIENT NORM               0.000267977860 Eh/α |
          | HOMO-LUMO GAP               2.159496260086 eV   |
           -------------------------------------------------

 * finished run on 2023/06/21 at 17:04:02.188
