   * xtb version 6.5.1 (579679a) compiled by 'ehlert@majestix' on 2022-07-11
          program call               : /lustre/hpc/kemi/ree/PhD/git/ReactivityQM/dep/xtb-6.5.1/bin/xtb --gfn 1 /lustre/hpc/kemi/ree/PhD/git/ReactivityQM/calculations/R02/reac01prodE05/conf20/R02_reac01prodE05_conf20_gfn1.xyz --opt --vfukui --chrg -1 --uhf 0 --alpb DMSO

   ID    Z sym.   atoms
    1    6 C      1, 3, 5, 6, 8, 11-14, 16, 18, 21, 22, 25
    2    8 O      2, 4, 7, 9, 17, 23
    3    7 N      10, 15, 19, 20, 24
    4    1 H      26-43

      * Solvation model:               ALPB
        Solvent                        DMSO
        Solvent mass                       7.8130E+01 g/mol
          :  Hamiltonian                  GFN1-xTB          :
 * total energy  :   -83.7988528 Eh     change       -0.3805383E-09 Eh
 * total energy  :   -83.8126129 Eh     change       -0.1376009E-01 Eh
 * total energy  :   -83.8204944 Eh     change       -0.7881477E-02 Eh
 * total energy  :   -83.8220247 Eh     change       -0.1530284E-02 Eh
 * total energy  :   -83.8235693 Eh     change       -0.1544649E-02 Eh
 * total energy  :   -83.8242154 Eh     change       -0.6460476E-03 Eh
 * total energy  :   -83.8248840 Eh     change       -0.6686222E-03 Eh
 * total energy  :   -83.8254274 Eh     change       -0.5433939E-03 Eh
 * total energy  :   -83.8258817 Eh     change       -0.4543259E-03 Eh
 * total energy  :   -83.8263169 Eh     change       -0.4352072E-03 Eh
 * total energy  :   -83.8277327 Eh     change       -0.2248935E-04 Eh
 * total energy  :   -83.8277519 Eh     change       -0.1920782E-04 Eh
 * total energy  :   -83.8277688 Eh     change       -0.1688750E-04 Eh
 * total energy  :   -83.8277810 Eh     change       -0.1212372E-04 Eh
 * total energy  :   -83.8277634 Eh     change        0.1752042E-04 Eh
 * total energy  :   -83.8277967 Eh     change       -0.3329717E-04 Eh
 * total energy  :   -83.8278030 Eh     change       -0.6249858E-05 Eh
 * total energy  :   -83.8278026 Eh     change        0.4278459E-06 Eh
 * total energy  :   -83.8278073 Eh     change       -0.4747380E-05 Eh
   *** GEOMETRY OPTIMIZATION CONVERGED AFTER 36 ITERATIONS ***

 final structure:
================
43
 xtb: 6.5.1 (579679a)
C           -4.29574291684912       -0.55105404326619        3.38337178100552
O           -4.04695330404317       -0.32353585162333        2.00934786303716
C           -2.73858800299534       -0.58150259094126        1.59930375290030
O           -1.90584303529554       -0.97226663817305        2.44835535805336
C           -2.52942152763480       -0.36014986501541        0.23616860526362
C           -3.49716425243771        0.13236773921187       -0.73705360119904
O           -4.83483133777423       -0.26322194101506       -0.62814831200387
C           -3.10533642165315        0.87516159261635       -1.80892677553466
O           -3.75133358017380        1.33655899701595       -2.78360864870596
N           -1.64312021669953        1.15484522193533       -1.79570711860641
C           -0.77860371894183        0.26764773354341       -1.27529657293770
C            0.61807988846699        0.20285721161954       -1.89507184457783
C            0.98681025460959        1.52300647846142       -2.59277061181984
C            0.62581579838976       -0.93441883389078       -2.92943270112338
N            1.58615896578961       -0.00573925471361       -0.81636970493018
C            2.91402240436263       -0.29684454448492       -1.06045927877351
O            3.35086469248712       -0.72763840437160       -2.12901646946905
C            3.75411301243602       -0.09626536529617        0.10983103803363
N            5.04605157105016       -0.31551144596803        0.21944167151251
N            5.39662460059232        0.04140663242238        1.48920245579825
C            4.32150118799967        0.45457065925971        2.08021056924561
C            4.19252904516796        0.95319380433627        3.46902283365845
O            3.23960791922228        0.39768009790807        1.27624533462633
N           -1.19636638500059       -0.49816386791570       -0.29055322770664
C           -0.38749383126814       -1.57323785403920        0.28828850416934
H           -5.35026837423473       -0.33366976965110        3.56065589994927
H           -4.08822826349452       -1.59221006266873        3.65913855410626
H           -3.68060089646560        0.10340903621320        4.01300939944301
H           -5.30707880541658        0.13378955286354       -1.37326067973959
H           -1.35667426435440        1.66683472293371       -2.61464279361023
H            0.84598536277465        2.36601394903420       -1.91885080020475
H            0.39375845067237        1.67270598433473       -3.49263374291701
H            2.03534870038555        1.47854686304110       -2.88374308571514
H           -0.26627731332463       -0.85068387973536       -3.54923369255439
H            0.63149798337445       -1.91023716969403       -2.44867384192274
H            1.50191092338706       -0.85772939260625       -3.56955406804488
H            1.43081548425934        0.58572756051851       -0.01162194230504
H            5.15809214662767        0.89964800113548        3.96546809715018
H            3.46723507100260        0.35403917041570        4.01886139718735
H            3.84379772691056        1.98576150121310        3.46615234225341
H            0.17627982609762       -1.19896048884462        1.14246710307581
H            0.29676306014580       -1.97595250405473       -0.45184010166799
H           -1.05373562815098       -2.36677974207884        0.62192605561347

          :  Hamiltonian                  GFN1-xTB          :
         :: total energy             -83.827807305390 Eh    ::
         :: gradient norm              0.000560267810 Eh/a0 ::
         :: HOMO-LUMO gap              0.084976433818 eV    ::
         :: SCC energy               -84.585455472762 Eh    ::
         :: -> Gsolv                  -0.114844191053 Eh    ::
         :: repulsion energy           0.785097849503 Eh    ::

    * Orbital Energies and Occupations

         #    Occupation            Energy/Eh            Energy/eV
      -------------------------------------------------------------
         1        2.0000           -0.8381461             -22.8071
       ...           ...                  ...                  ...
        56        2.0000           -0.4769576             -12.9787
        57        2.0000           -0.4633145             -12.6074
        58        2.0000           -0.4572644             -12.4428
        59        2.0000           -0.4435412             -12.0694
        60        2.0000           -0.4431923             -12.0599
        61        2.0000           -0.4374197             -11.9028
        62        2.0000           -0.4342659             -11.8170
        63        2.0000           -0.4299432             -11.6994
        64        2.0000           -0.4232349             -11.5168
        65        2.0000           -0.4137042             -11.2575
        66        2.0000           -0.3967071             -10.7949
        67        2.0000           -0.3733247             -10.1587
        68        1.6760           -0.2975831              -8.0976 (HOMO)
        69        0.3240           -0.2944603              -8.0127 (LUMO)
        70                         -0.2667770              -7.2594
        71                         -0.2367064              -6.4411
        72                         -0.1754338              -4.7738
        73                         -0.1751712              -4.7667
        74                         -0.1343298              -3.6553
        75                         -0.1271712              -3.4605
        76                         -0.1223186              -3.3285
        77                         -0.1153170              -3.1379
        78                         -0.1129131              -3.0725
        79                         -0.1089168              -2.9638
       ...                                ...                  ...
       136                          0.7237858              19.6952
      -------------------------------------------------------------
                  HL-Gap            0.0031228 Eh            0.0850 eV

Wiberg/Mayer (AO) data.
largest (>0.10) Wiberg bond orders for each atom

     #   Z sym  total        # sym  WBO       # sym  WBO       # sym  WBO
 ---------------------------------------------------------------------------
     1   6 C    3.913 --    26 H    0.987    28 H    0.981    27 H    0.981
                             2 O    0.944
     2   8 O    2.076 --     3 C    0.958     1 C    0.944
     3   6 C    3.839 --     4 O    1.418     5 C    1.345     2 O    0.958
     4   8 O    1.737 --     3 C    1.418     5 C    0.117
     5   6 C    3.695 --     3 C    1.345     6 C    1.084    24 N    0.952
                             4 O    0.117
     6   6 C    3.732 --     8 C    1.467     5 C    1.084     7 O    0.972
                             9 O    0.143
     7   8 O    1.926 --     6 C    0.972    29 H    0.856
     8   6 C    3.829 --     6 C    1.467     9 O    1.388    10 N    0.838
     9   8 O    1.689 --     8 C    1.388     6 C    0.143
    10   7 N    3.312 --    11 C    1.273    30 H    0.903     8 C    0.838
                            24 N    0.132
    11   6 C    3.927 --    24 N    1.444    10 N    1.273    12 C    0.972
    12   6 C    3.945 --    13 C    0.988    14 C    0.981    11 C    0.972
                            15 N    0.940
    13   6 C    3.990 --    12 C    0.988    31 H    0.985    33 H    0.980
                            32 H    0.980
    14   6 C    3.988 --    34 H    0.986    12 C    0.981    35 H    0.978
                            36 H    0.977
    15   7 N    3.226 --    16 C    1.143    12 C    0.940    37 H    0.906
                            17 O    0.135
    16   6 C    3.809 --    17 O    1.527    15 N    1.143    18 C    1.067
    17   8 O    1.795 --    16 C    1.527    15 N    0.135
    18   6 C    3.772 --    19 N    1.513    16 C    1.067    23 O    1.007
    19   7 N    2.851 --    18 C    1.513    20 N    1.193
    20   7 N    2.981 --    21 C    1.620    19 N    1.193
    21   6 C    3.836 --    20 N    1.620    23 O    1.059    22 C    1.028
    22   6 C    3.990 --    21 C    1.028    38 H    0.984    39 H    0.967
                            40 H    0.966
    23   8 O    2.247 --    21 C    1.059    18 C    1.007
    24   7 N    3.546 --    11 C    1.444     5 C    0.952    25 C    0.935
                            10 N    0.132
    25   6 C    3.935 --    43 H    0.981    42 H    0.978    41 H    0.974
                            24 N    0.935
    26   1 H    1.019 --     1 C    0.987
    27   1 H    1.019 --     1 C    0.981
    28   1 H    1.019 --     1 C    0.981
    29   1 H    0.886 --     7 O    0.856
    30   1 H    0.957 --    10 N    0.903
    31   1 H    1.001 --    13 C    0.985
    32   1 H    1.000 --    13 C    0.980
    33   1 H    1.004 --    13 C    0.980
    34   1 H    1.003 --    14 C    0.986
    35   1 H    1.006 --    14 C    0.978
    36   1 H    1.017 --    14 C    0.977
    37   1 H    0.952 --    15 N    0.906
    38   1 H    1.001 --    22 C    0.984
    39   1 H    0.998 --    22 C    0.967
    40   1 H    0.998 --    22 C    0.966
    41   1 H    1.027 --    25 C    0.974
    42   1 H    1.016 --    25 C    0.978
    43   1 H    1.017 --    25 C    0.981
 ---------------------------------------------------------------------------

           -------------------------------------------------
          | TOTAL ENERGY              -83.827807305390 Eh   |
          | GRADIENT NORM               0.000560267810 Eh/α |
          | HOMO-LUMO GAP               0.084976433818 eV   |
           -------------------------------------------------

 * finished run on 2023/06/20 at 14:58:19.070
