                         Program Version 5.0.1 -  RELEASE  -
|  1> # ORCA input file
|  2> ! SP r2SCAN-3c CPCM
|  3>
|  4> %maxcore 1875.0
|  5> %pal nprocs 4 end
|  6> %cpcm smd true SMDsolvent "DMSO" end
|  7>
|  8> *xyz 1 1
|  9> C      -3.136097   -3.834011    1.289660
| 10> N      -2.144029   -2.770149    1.129961
| 11> C      -0.919921   -2.931956    1.750497
| 12> O      -0.632078   -3.914981    2.423777
| 13> C       0.017234   -1.839204    1.543707
| 14> O       1.215250   -2.001637    2.136786
| 15> C      -0.324615   -0.753073    0.792342
| 16> C       0.529316    0.428235    0.467590
| 17> O       0.147604    1.271004   -0.352041
| 18> N       1.699886    0.519783    1.107655
| 19> C       2.634336    1.605791    0.850931
| 20> C       3.911499    1.100270    0.217989
| 21> C       5.098932    1.801599    0.418269
| 22> C       6.281493    1.370275   -0.165820
| 23> C       6.249706    0.228623   -0.946513
| 24> F       7.390403   -0.198607   -1.510373
| 25> C       5.088799   -0.490037   -1.167273
| 26> C       3.914698   -0.041961   -0.578754
| 27> N      -1.570510   -0.695955    0.217870
| 28> C      -2.420530   -1.659626    0.384358
| 29> C      -3.756406   -1.545881   -0.273083
| 30> C      -2.861239    2.154289   -1.408260
| 31> C      -4.006655    2.762979   -2.116489
| 32> C      -2.600405    2.474187    0.012431
| 33> N      -2.078205    1.331205   -2.008059
| 34> H      -2.715384   -4.593286    1.947795
| 35> H      -4.043396   -3.423407    1.729406
| 36> H      -3.362929   -4.270568    0.317895
| 37> H       1.210441   -2.853675    2.616313
| 38> H       1.971056   -0.176434    1.784491
| 39> H       2.853560    2.114098    1.795137
| 40> H       2.140380    2.318192    0.181373
| 41> H       5.101581    2.691255    1.037190
| 42> H       7.209904    1.906327   -0.016237
| 43> H       5.102529   -1.378830   -1.784663
| 44> H       2.994732   -0.592131   -0.735457
| 45> H      -3.930368   -2.385539   -0.945901
| 46> H      -4.554351   -1.532305    0.469707
| 47> H      -3.785688   -0.620693   -0.843977
| 48> H      -3.943860    3.849761   -2.042054
| 49> H      -4.930194    2.462167   -1.618726
| 50> H      -4.045539    2.465859   -3.162121
| 51> H      -3.419352    3.033474    0.457366
| 52> H      -1.679889    3.058679    0.079196
| 53> H      -2.423842    1.548020    0.562680
| 54> H      -1.285501    0.930419   -1.488245
| 55> H      -2.192353    1.077450   -2.973883
| 56> **                         ****END OF INPUT****

CARTESIAN COORDINATES (ANGSTROEM)
---------------------------------
  C     -3.136097   -3.834011    1.289660
  N     -2.144029   -2.770149    1.129961
  C     -0.919921   -2.931956    1.750497
  O     -0.632078   -3.914981    2.423777
  C      0.017234   -1.839204    1.543707
  O      1.215250   -2.001637    2.136786
  C     -0.324615   -0.753073    0.792342
  C      0.529316    0.428235    0.467590
  O      0.147604    1.271004   -0.352041
  N      1.699886    0.519783    1.107655
  C      2.634336    1.605791    0.850931
  C      3.911499    1.100270    0.217989
  C      5.098932    1.801599    0.418269
  C      6.281493    1.370275   -0.165820
  C      6.249706    0.228623   -0.946513
  F      7.390403   -0.198607   -1.510373
  C      5.088799   -0.490037   -1.167273
  C      3.914698   -0.041961   -0.578754
  N     -1.570510   -0.695955    0.217870
  C     -2.420530   -1.659626    0.384358
  C     -3.756406   -1.545881   -0.273083
  C     -2.861239    2.154289   -1.408260
  C     -4.006655    2.762979   -2.116489
  C     -2.600405    2.474187    0.012431
  N     -2.078205    1.331205   -2.008059
  H     -2.715384   -4.593286    1.947795
  H     -4.043396   -3.423407    1.729406
  H     -3.362929   -4.270568    0.317895
  H      1.210441   -2.853675    2.616313
  H      1.971056   -0.176434    1.784491
  H      2.853560    2.114098    1.795137
  H      2.140380    2.318192    0.181373
  H      5.101581    2.691255    1.037190
  H      7.209904    1.906327   -0.016237
  H      5.102529   -1.378830   -1.784663
  H      2.994732   -0.592131   -0.735457
  H     -3.930368   -2.385539   -0.945901
  H     -4.554351   -1.532305    0.469707
  H     -3.785688   -0.620693   -0.843977
  H     -3.943860    3.849761   -2.042054
  H     -4.930194    2.462167   -1.618726
  H     -4.045539    2.465859   -3.162121
  H     -3.419352    3.033474    0.457366
  H     -1.679889    3.058679    0.079196
  H     -2.423842    1.548020    0.562680
  H     -1.285501    0.930419   -1.488245
  H     -2.192353    1.077450   -2.973883

 Total Charge           Charge          ....    1
 Multiplicity           Mult            ....    1
 Number of Electrons    NEL             ....  184
 Basis Dimension        Dim             ....  625

ORBITAL ENERGIES
----------------

  NO   OCC          E(Eh)            E(eV)
   0   2.0000     -24.503914      -666.7854
   1   2.0000     -19.010716      -517.3079
   2   2.0000     -18.941260      -515.4179
   3   2.0000     -18.931985      -515.1655
   4   2.0000     -14.242690      -387.5633
   5   2.0000     -14.223820      -387.0498
   6   2.0000     -14.197531      -386.3345
   7   2.0000     -14.166887      -385.5006
   8   2.0000     -10.152176      -276.2548
   9   2.0000     -10.146385      -276.0972
  10   2.0000     -10.143578      -276.0208
  11   2.0000     -10.128760      -275.6176
  12   2.0000     -10.123055      -275.4623
  13   2.0000     -10.120039      -275.3803
  14   2.0000     -10.093732      -274.6644
  15   2.0000     -10.073344      -274.1096
  16   2.0000     -10.066421      -273.9213
  17   2.0000     -10.049960      -273.4733
  18   2.0000     -10.044774      -273.3322
  19   2.0000     -10.043968      -273.3103
  20   2.0000     -10.043577      -273.2996
  21   2.0000     -10.043156      -273.2882
  22   2.0000     -10.043030      -273.2847
  23   2.0000     -10.037650      -273.1383
  24   2.0000     -10.034838      -273.0618
  25   2.0000      -1.195409       -32.5287
  26   2.0000      -1.066505       -29.0211
  27   2.0000      -1.025353       -27.9013
  28   2.0000      -1.018338       -27.7104
  29   2.0000      -0.971819       -26.4445
  30   2.0000      -0.952865       -25.9288
  31   2.0000      -0.905840       -24.6492
  32   2.0000      -0.891691       -24.2642
  33   2.0000      -0.837098       -22.7786
  34   2.0000      -0.780316       -21.2335
  35   2.0000      -0.756966       -20.5981
  36   2.0000      -0.746018       -20.3002
  37   2.0000      -0.729264       -19.8443
  38   2.0000      -0.712564       -19.3899
  39   2.0000      -0.701660       -19.0931
  40   2.0000      -0.694572       -18.9003
  41   2.0000      -0.668652       -18.1949
  42   2.0000      -0.627497       -17.0751
  43   2.0000      -0.615322       -16.7438
  44   2.0000      -0.597137       -16.2489
  45   2.0000      -0.589852       -16.0507
  46   2.0000      -0.576217       -15.6797
  47   2.0000      -0.573295       -15.6001
  48   2.0000      -0.560783       -15.2597
  49   2.0000      -0.529755       -14.4154
  50   2.0000      -0.518030       -14.0963
  51   2.0000      -0.516725       -14.0608
  52   2.0000      -0.504984       -13.7413
  53   2.0000      -0.473304       -12.8793
  54   2.0000      -0.469786       -12.7835
  55   2.0000      -0.468461       -12.7475
  56   2.0000      -0.465873       -12.6771
  57   2.0000      -0.456368       -12.4184
  58   2.0000      -0.441249       -12.0070
  59   2.0000      -0.437764       -11.9122
  60   2.0000      -0.433088       -11.7849
  61   2.0000      -0.425055       -11.5663
  62   2.0000      -0.421764       -11.4768
  63   2.0000      -0.412847       -11.2341
  64   2.0000      -0.409808       -11.1514
  65   2.0000      -0.400508       -10.8984
  66   2.0000      -0.398439       -10.8421
  67   2.0000      -0.393914       -10.7189
  68   2.0000      -0.389650       -10.6029
  69   2.0000      -0.384035       -10.4501
  70   2.0000      -0.382756       -10.4153
  71   2.0000      -0.378360       -10.2957
  72   2.0000      -0.377151       -10.2628
  73   2.0000      -0.375634       -10.2215
  74   2.0000      -0.369457       -10.0534
  75   2.0000      -0.361667        -9.8415
  76   2.0000      -0.356510        -9.7011
  77   2.0000      -0.352721        -9.5980
  78   2.0000      -0.346723        -9.4348
  79   2.0000      -0.346179        -9.4200
  80   2.0000      -0.335614        -9.1325
  81   2.0000      -0.331056        -9.0085
  82   2.0000      -0.325201        -8.8492
  83   2.0000      -0.314635        -8.5616
  84   2.0000      -0.274243        -7.4625
  85   2.0000      -0.265350        -7.2205
  86   2.0000      -0.258549        -7.0355
  87   2.0000      -0.251818        -6.8523
  88   2.0000      -0.248438        -6.7604
  89   2.0000      -0.244205        -6.6452
  90   2.0000      -0.223879        -6.0921
  91   2.0000      -0.214573        -5.8388
  92   0.0000      -0.090701        -2.4681
  93   0.0000      -0.079022        -2.1503
  94   0.0000      -0.045228        -1.2307
  95   0.0000      -0.039086        -1.0636
  96   0.0000      -0.030433        -0.8281

MULLIKEN ATOMIC CHARGES
-----------------------
   0 C :   -0.440079
   1 N :    0.214848
   2 C :    0.124229
   3 O :   -0.496266
   4 C :    0.143352
   5 O :   -0.404685
   6 C :    0.066529
   7 C :    0.129324
   8 O :   -0.511863
   9 N :   -0.129144
  10 C :   -0.376268
  11 C :    0.145434
  12 C :   -0.251852
  13 C :   -0.277994
  14 C :    0.357420
  15 F :   -0.235430
  16 C :   -0.342066
  17 C :   -0.137296
  18 N :   -0.179594
  19 C :    0.262399
  20 C :   -0.627171
  21 C :    0.467405
  22 C :   -0.551214
  23 C :   -0.570096
  24 N :   -0.332504
  25 H :    0.203994
  26 H :    0.193936
  27 H :    0.198077
  28 H :    0.364668
  29 H :    0.298480
  30 H :    0.194583
  31 H :    0.219264
  32 H :    0.186643
  33 H :    0.197075
  34 H :    0.196850
  35 H :    0.193182
  36 H :    0.197593
  37 H :    0.202509
  38 H :    0.190541
  39 H :    0.207834
  40 H :    0.210327
  41 H :    0.191762
  42 H :    0.188870
  43 H :    0.223003
  44 H :    0.214821
  45 H :    0.351281
  46 H :    0.327290
Sum of atomic charges:    1.0000000

LOEWDIN ATOMIC CHARGES
----------------------
   0 C :   -0.081382
   1 N :   -0.641464
   2 C :    0.380573
   3 O :   -0.495076
   4 C :    0.269410
   5 O :   -0.478092
   6 C :    0.209353
   7 C :    0.382349
   8 O :   -0.525774
   9 N :   -0.594638
  10 C :    0.004785
  11 C :   -0.074287
  12 C :   -0.145079
  13 C :   -0.157405
  14 C :    0.198142
  15 F :   -0.296677
  16 C :   -0.157615
  17 C :   -0.139706
  18 N :   -0.594933
  19 C :    0.337086
  20 C :   -0.314270
  21 C :    0.235681
  22 C :   -0.339541
  23 C :   -0.345680
  24 N :   -0.385132
  25 H :    0.213115
  26 H :    0.199046
  27 H :    0.198785
  28 H :    0.315641
  29 H :    0.297702
  30 H :    0.202801
  31 H :    0.219641
  32 H :    0.187297
  33 H :    0.194312
  34 H :    0.194181
  35 H :    0.192772
  36 H :    0.186042
  37 H :    0.186401
  38 H :    0.186682
  39 H :    0.198556
  40 H :    0.200090
  41 H :    0.182364
  42 H :    0.177577
  43 H :    0.208031
  44 H :    0.209174
  45 H :    0.309271
  46 H :    0.289890

  Mayer bond orders larger than 0.100000
B(  0-C ,  1-N ) :   0.8815 B(  0-C , 25-H ) :   0.9452 B(  0-C , 26-H ) :   0.9349
B(  0-C , 27-H ) :   0.9347 B(  1-N ,  2-C ) :   1.1205 B(  1-N , 19-C ) :   1.2637
B(  2-C ,  3-O ) :   1.8370 B(  2-C ,  4-C ) :   0.9748 B(  4-C ,  5-O ) :   0.9473
B(  4-C ,  6-C ) :   1.4235 B(  5-O ,  6-C ) :   0.1229 B(  5-O , 28-H ) :   0.8149
B(  6-C ,  7-C ) :   0.9360 B(  6-C , 18-N ) :   1.0109 B(  7-C ,  8-O ) :   1.6836
B(  7-C ,  9-N ) :   1.2675 B(  9-N , 10-C ) :   0.8572 B(  9-N , 29-H ) :   0.8854
B( 10-C , 11-C ) :   0.8084 B( 10-C , 30-H ) :   0.9771 B( 10-C , 31-H ) :   0.9585
B( 11-C , 12-C ) :   1.3871 B( 11-C , 17-C ) :   1.3879 B( 12-C , 13-C ) :   1.3551
B( 12-C , 32-H ) :   0.9513 B( 13-C , 14-C ) :   1.4018 B( 13-C , 33-H ) :   0.9332
B( 14-C , 15-F ) :   0.8884 B( 14-C , 16-C ) :   1.3911 B( 16-C , 17-C ) :   1.3782
B( 16-C , 34-H ) :   0.9326 B( 17-C , 35-H ) :   0.9439 B( 18-N , 19-C ) :   1.5391
B( 19-C , 20-C ) :   0.8215 B( 20-C , 36-H ) :   0.9515 B( 20-C , 37-H ) :   0.9500
B( 20-C , 38-H ) :   0.9714 B( 21-C , 22-C ) :   0.9224 B( 21-C , 23-C ) :   0.9446
B( 21-C , 24-N ) :   1.5100 B( 22-C , 39-H ) :   0.9269 B( 22-C , 40-H ) :   0.9205
B( 22-C , 41-H ) :   0.9921 B( 23-C , 42-H ) :   0.9462 B( 23-C , 43-H ) :   0.9302
B( 23-C , 44-H ) :   0.9410 B( 24-N , 45-H ) :   0.8373 B( 24-N , 46-H ) :   0.8924

Dispersion correction           -0.020374472
FINAL SINGLE POINT ENERGY     -1205.290614110083

DIPOLE MOMENT
-------------
                                X             Y             Z
Electronic contribution:     30.00102      -8.08076       2.45364
Nuclear contribution   :    -37.16068      10.20344      -4.12646
                        -----------------------------------------
Total Dipole Moment    :     -7.15966       2.12268      -1.67282
                        -----------------------------------------
Magnitude (a.u.)       :      7.65277
Magnitude (Debye)      :     19.45179

Rotational constants in cm-1:     0.009352     0.003721     0.002914
Rotational constants in MHz :   280.377110   111.550532    87.371342

                             ****ORCA TERMINATED NORMALLY****
TOTAL RUN TIME: 0 days 0 hours 2 minutes 19 seconds 156 msec
