   * xtb version 6.5.1 (579679a) compiled by 'ehlert@majestix' on 2022-07-11
          program call               : /lustre/hpc/kemi/ree/PhD/git/ReactivityQM/dep/xtb-6.5.1/bin/xtb --gfn 1 /lustre/hpc/kemi/ree/PhD/git/ReactivityQM/calculations/RaltegravirCLI/reac02prodN05/conf16/RaltegravirCLI_reac02prodN05_conf16_gfn1.xyz --opt --vfukui --chrg 1 --uhf 0 --alpb DMSO

   ID    Z sym.   atoms
    1    6 C      1, 3, 5, 7, 8, 11-15, 17, 18, 20-24
    2    7 N      2, 10, 19, 25
    3    8 O      4, 6, 9
    4    9 F      16
    5    1 H      26-47

      * Solvation model:               ALPB
        Solvent                        DMSO
        Solvent mass                       7.8130E+01 g/mol
          :  Hamiltonian                  GFN1-xTB          :
 * total energy  :   -79.4585226 Eh     change       -0.1365947E-09 Eh
 * total energy  :   -79.4727652 Eh     change       -0.1424259E-01 Eh
 * total energy  :   -79.4782905 Eh     change       -0.5525346E-02 Eh
 * total energy  :   -79.4793792 Eh     change       -0.1088635E-02 Eh
 * total energy  :   -79.4803871 Eh     change       -0.1007905E-02 Eh
 * total energy  :   -79.4809993 Eh     change       -0.6122574E-03 Eh
 * total energy  :   -79.4818193 Eh     change       -0.8200075E-03 Eh
 * total energy  :   -79.4827743 Eh     change       -0.9549262E-03 Eh
 * total energy  :   -79.4814038 Eh     change        0.1370422E-02 Eh
 * total energy  :   -79.4841376 Eh     change       -0.2733794E-02 Eh
 * total energy  :   -79.5470499 Eh     change       -0.1122926E-04 Eh
 * total energy  :   -79.5470587 Eh     change       -0.8734046E-05 Eh
 * total energy  :   -79.5470670 Eh     change       -0.8303008E-05 Eh
 * total energy  :   -79.5470760 Eh     change       -0.9083032E-05 Eh
 * total energy  :   -79.5470854 Eh     change       -0.9349132E-05 Eh
 * total energy  :   -79.5470919 Eh     change       -0.6458013E-05 Eh
 * total energy  :   -79.5470975 Eh     change       -0.5635908E-05 Eh
 * total energy  :   -79.5471028 Eh     change       -0.5303348E-05 Eh
 * total energy  :   -79.5471056 Eh     change       -0.2772657E-05 Eh
   *** GEOMETRY OPTIMIZATION CONVERGED AFTER 112 ITERATIONS ***

 final structure:
================
47
 xtb: 6.5.1 (579679a)
C           -3.13609650229906       -3.83401092784803        1.28966042189854
N           -2.14402862129677       -2.77014901577713        1.12996107744827
C           -0.91992116655115       -2.93195596739942        1.75049740313990
O           -0.63207775773662       -3.91498100683189        2.42377697289334
C            0.01723365221071       -1.83920441097892        1.54370689125449
O            1.21525032738343       -2.00163694238103        2.13678593994808
C           -0.32461461560179       -0.75307318513171        0.79234202919480
C            0.52931556068779        0.42823492249583        0.46759042028575
O            0.14760367237525        1.27100440719340       -0.35204128324859
N            1.69988649599542        0.51978286456056        1.10765527801818
C            2.63433558425215        1.60579125640283        0.85093055098155
C            3.91149852078398        1.10026959901948        0.21798913388823
C            5.09893238696259        1.80159916434744        0.41826934202275
C            6.28149294306949        1.37027465017416       -0.16581990649480
C            6.24970604086981        0.22862315605318       -0.94651325957668
F            7.39040340137558       -0.19860666457788       -1.51037313728973
C            5.08879863785322       -0.49003685555534       -1.16727310612440
C            3.91469759393093       -0.04196113080611       -0.57875366969029
N           -1.57050996452027       -0.69595497172812        0.21786999168494
C           -2.42053012629652       -1.65962597474948        0.38435795419019
C           -3.75640621327279       -1.54588114262243       -0.27308255082795
C           -2.86123900471757        2.15428923871346       -1.40825970267374
C           -4.00665477423577        2.76297948123651       -2.11648853852647
C           -2.60040454772156        2.47418726625466        0.01243069444398
N           -2.07820502473123        1.33120542503996       -2.00805940759267
H           -2.71538432097694       -4.59328614674511        1.94779479042335
H           -4.04339598718501       -3.42340702293272        1.72940622108575
H           -3.36292904362412       -4.27056755389890        0.31789472284160
H            1.21044053856530       -2.85367458243566        2.61631256961893
H            1.97105597871758       -0.17643382732853        1.78449106141923
H            2.85355995266950        2.11409779351838        1.79513709869478
H            2.14037986969716        2.31819230505649        0.18137335402605
H            5.10158099928273        2.69125451023127        1.03718972692040
H            7.20990422166209        1.90632710199624       -0.01623710477690
H            5.10252858297845       -1.37883027712290       -1.78466345760688
H            2.99473191553682       -0.59213058430238       -0.73545698862552
H           -3.93036796185078       -2.38553876863096       -0.94590086376666
H           -4.55435110269143       -1.53230472078009        0.46970667216194
H           -3.78568819823627       -0.62069279153652       -0.84397742791514
H           -3.94386003101965        3.84976054225766       -2.04205407024669
H           -4.93019377621130        2.46216664097380       -1.61872643763340
H           -4.04553902724442        2.46585859230071       -3.16212143120058
H           -3.41935208810556        3.03347436661440        0.45736636269540
H           -1.67988904128685        3.05867860475227        0.07919600262841
H           -2.42384160909577        1.54801982092507        0.56267968125815
H           -1.28550129715932        0.93041865719093       -1.48824483722311
H           -2.19235307315707        1.07745010479458       -2.97388318410867

          :  Hamiltonian                  GFN1-xTB          :
         :: total energy             -79.547105564896 Eh    ::
         :: gradient norm              0.000508074067 Eh/a0 ::
         :: HOMO-LUMO gap              2.403547548086 eV    ::
         :: SCC energy               -80.480554786710 Eh    ::
         :: -> Gsolv                  -0.107086796715 Eh    ::
         :: repulsion energy           0.962519843969 Eh    ::

    * Orbital Energies and Occupations

         #    Occupation            Energy/Eh            Energy/eV
      -------------------------------------------------------------
         1        2.0000           -0.8665072             -23.5789
       ...           ...                  ...                  ...
        55        2.0000           -0.5221195             -14.2076
        56        2.0000           -0.5215106             -14.1910
        57        2.0000           -0.5106023             -13.8942
        58        2.0000           -0.5016768             -13.6513
        59        2.0000           -0.4810883             -13.0911
        60        2.0000           -0.4796372             -13.0516
        61        2.0000           -0.4780528             -13.0085
        62        2.0000           -0.4640352             -12.6270
        63        2.0000           -0.4555371             -12.3958
        64        2.0000           -0.4539959             -12.3539
        65        2.0000           -0.4523379             -12.3087
        66        2.0000           -0.4383399             -11.9278
        67        2.0000           -0.4317244             -11.7478 (HOMO)
        68                         -0.3433957              -9.3443 (LUMO)
        69                         -0.3231587              -8.7936
        70                         -0.2859884              -7.7821
        71                         -0.2772809              -7.5452
        72                         -0.2693269              -7.3288
        73                         -0.2403340              -6.5398
        74                         -0.1681435              -4.5754
        75                         -0.1602797              -4.3614
        76                         -0.1584250              -4.3110
        77                         -0.1549620              -4.2167
        78                         -0.1484550              -4.0397
       ...                                ...                  ...
       144                          0.7034405              19.1416
      -------------------------------------------------------------
                  HL-Gap            0.0883287 Eh            2.4035 eV

Wiberg/Mayer (AO) data.
largest (>0.10) Wiberg bond orders for each atom

     #   Z sym  total        # sym  WBO       # sym  WBO       # sym  WBO
 ---------------------------------------------------------------------------
     1   6 C    3.920 --    27 H    0.979    28 H    0.978    26 H    0.975
                             2 N    0.929
     2   7 N    3.512 --    20 C    1.180     3 C    1.127     1 C    0.929
                             4 O    0.131
     3   6 C    3.915 --     4 O    1.557     2 N    1.127     5 C    1.081
     4   8 O    1.905 --     3 C    1.557     2 N    0.131
     5   6 C    3.918 --     7 C    1.512     3 C    1.081     6 O    1.079
     6   8 O    2.071 --     5 C    1.079    29 H    0.796
     7   6 C    3.963 --     5 C    1.512    19 N    1.180     8 C    1.004
     8   6 C    3.906 --     9 O    1.511    10 N    1.305     7 C    1.004
     9   8 O    1.898 --     8 C    1.511    10 N    0.165
    10   7 N    3.385 --     8 C    1.305    11 C    0.944    30 H    0.883
                             9 O    0.165
    11   6 C    3.942 --    12 C    0.998    31 H    0.969    32 H    0.958
                            10 N    0.944
    12   6 C    3.988 --    18 C    1.417    13 C    1.415    11 C    0.998
    13   6 C    3.994 --    14 C    1.445    12 C    1.415    33 H    0.971
                            17 C    0.111
    14   6 C    3.991 --    13 C    1.445    15 C    1.399    34 H    0.969
                            18 C    0.110
    15   6 C    3.862 --    17 C    1.401    14 C    1.399    16 F    0.926
    16   9 F    1.055 --    15 C    0.926
    17   6 C    3.992 --    18 C    1.443    15 C    1.401    35 H    0.969
                            13 C    0.111
    18   6 C    3.994 --    17 C    1.443    12 C    1.417    36 H    0.971
                            14 C    0.110
    19   7 N    3.048 --    20 C    1.554     7 C    1.180
    20   6 C    3.932 --    19 N    1.554     2 N    1.180    21 C    1.027
    21   6 C    3.990 --    20 C    1.027    39 H    0.983    37 H    0.964
                            38 H    0.963
    22   6 C    3.868 --    25 N    1.667    23 C    1.063    24 C    1.060
    23   6 C    3.985 --    22 C    1.063    42 H    0.979    40 H    0.946
                            41 H    0.942
    24   6 C    3.982 --    22 C    1.060    43 H    0.981    45 H    0.946
                            44 H    0.934
    25   7 N    3.523 --    22 C    1.667    47 H    0.881    46 H    0.823
    26   1 H    1.005 --     1 C    0.975
    27   1 H    0.999 --     1 C    0.979
    28   1 H    0.998 --     1 C    0.978
    29   1 H    0.839 --     6 O    0.796
    30   1 H    0.940 --    10 N    0.883
    31   1 H    1.003 --    11 C    0.969
    32   1 H    1.011 --    11 C    0.958
    33   1 H    0.998 --    13 C    0.971
    34   1 H    0.997 --    14 C    0.969
    35   1 H    0.998 --    17 C    0.969
    36   1 H    1.003 --    18 C    0.971
    37   1 H    0.996 --    21 C    0.964
    38   1 H    0.996 --    21 C    0.963
    39   1 H    1.009 --    21 C    0.983
    40   1 H    0.991 --    23 C    0.946
    41   1 H    0.992 --    23 C    0.942
    42   1 H    0.991 --    23 C    0.979
    43   1 H    0.995 --    24 C    0.981
    44   1 H    1.001 --    24 C    0.934
    45   1 H    1.015 --    24 C    0.946
    46   1 H    0.945 --    25 N    0.823
    47   1 H    0.913 --    25 N    0.881
 ---------------------------------------------------------------------------

           -------------------------------------------------
          | TOTAL ENERGY              -79.547105564896 Eh   |
          | GRADIENT NORM               0.000508074067 Eh/α |
          | HOMO-LUMO GAP               2.403547548086 eV   |
           -------------------------------------------------

 * finished run on 2023/06/20 at 15:22:39.762
