   * xtb version 6.5.1 (579679a) compiled by 'ehlert@majestix' on 2022-07-11
          program call               : /lustre/hpc/kemi/ree/PhD/git/ReactivityQM/dep/xtb-6.5.1/bin/xtb --gfn 1 /lustre/hpc/kemi/ree/PhD/git/ReactivityQM/calculations/R01/reac01/conf06/R01_reac01_conf06_gfn1.xyz --opt --vfukui --chrg 0 --uhf 0 --alpb DMSO

   ID    Z sym.   atoms
    1    6 C      1, 3, 5, 8, 9
    2    8 O      2, 4, 10
    3    7 N      6, 7
    4    1 H      11-16

      * Solvation model:               ALPB
        Solvent                        DMSO
        Solvent mass                       7.8130E+01 g/mol
          :  Hamiltonian                  GFN1-xTB          :
 * total energy  :   -34.2858016 Eh     change       -0.2039258E-11 Eh
 * total energy  :   -34.2931401 Eh     change       -0.7338461E-02 Eh
 * total energy  :   -34.2957344 Eh     change       -0.2594344E-02 Eh
 * total energy  :   -34.2960480 Eh     change       -0.3135893E-03 Eh
 * total energy  :   -34.2961626 Eh     change       -0.1146044E-03 Eh
 * total energy  :   -34.2961765 Eh     change       -0.1383483E-04 Eh
 * total energy  :   -34.2961837 Eh     change       -0.7251312E-05 Eh
 * total energy  :   -34.2961877 Eh     change       -0.4022467E-05 Eh
   *** GEOMETRY OPTIMIZATION CONVERGED AFTER 8 ITERATIONS ***

 final structure:
================
16
 xtb: 6.5.1 (579679a)
C           -3.58332397016333       -0.48494509613472        0.15272036957000
O           -2.21336390494097       -0.46595357390227        0.57052957901537
C           -1.33144303118708       -0.01402978306082       -0.31326462128025
O           -1.60674972309943        0.37418599158659       -1.42113940147559
C            0.04221928151827       -0.04810092222372        0.24508452821238
N            0.41826325662397       -0.44153180375407        1.42583800247245
N            1.76596953156000       -0.28965963283083        1.47834251849722
C            2.13455269399661        0.18774217315017        0.32598980653067
C            3.50531146344957        0.51566439305611       -0.12094933634555
O            1.09172769734615        0.36236844233973       -0.49485870552335
H           -4.15430708027123       -0.89412806959885        0.98321211279011
H           -3.69371033637045       -1.11314084230846       -0.73370319643234
H           -3.91644961878015        0.52932628162473       -0.07746168603804
H            4.18103896120864        0.51282031368333        0.73082177638258
H            3.84353070735367       -0.22319154226034       -0.84854075018951
H            3.51673307175584        1.49257267063344       -0.60173999618606

          :  Hamiltonian                  GFN1-xTB          :
         :: total energy             -34.296187726238 Eh    ::
         :: gradient norm              0.000936462100 Eh/a0 ::
         :: HOMO-LUMO gap              3.714737720324 eV    ::
         :: SCC energy               -34.589225117094 Eh    ::
         :: -> Gsolv                  -0.020250257173 Eh    ::
         :: repulsion energy           0.298990118866 Eh    ::

    * Orbital Energies and Occupations

         #    Occupation            Energy/Eh            Energy/eV
      -------------------------------------------------------------
         1        2.0000           -0.8706247             -23.6909
       ...           ...                  ...                  ...
        15        2.0000           -0.5966711             -16.2362
        16        2.0000           -0.5710844             -15.5400
        17        2.0000           -0.5653990             -15.3853
        18        2.0000           -0.5494312             -14.9508
        19        2.0000           -0.5479185             -14.9096
        20        2.0000           -0.5374636             -14.6251
        21        2.0000           -0.5214142             -14.1884
        22        2.0000           -0.5124912             -13.9456
        23        2.0000           -0.5041837             -13.7195
        24        2.0000           -0.4963526             -13.5064
        25        2.0000           -0.4827071             -13.1351
        26        2.0000           -0.4618980             -12.5689
        27        2.0000           -0.4599699             -12.5164 (HOMO)
        28                         -0.3234558              -8.8017 (LUMO)
        29                         -0.2624866              -7.1426
        30                         -0.2090196              -5.6877
        31                         -0.1449360              -3.9439
        32                         -0.1412112              -3.8426
        33                         -0.0774120              -2.1065
        34                         -0.0770694              -2.0972
        35                         -0.0768645              -2.0916
        36                         -0.0760663              -2.0699
        37                          0.0010005               0.0272
        38                          0.0344705               0.9380
       ...                                ...                  ...
        52                          0.7339335              19.9713
      -------------------------------------------------------------
                  HL-Gap            0.1365141 Eh            3.7147 eV

Wiberg/Mayer (AO) data.
largest (>0.10) Wiberg bond orders for each atom

     #   Z sym  total        # sym  WBO       # sym  WBO       # sym  WBO
 ---------------------------------------------------------------------------
     1   6 C    3.861 --    11 H    0.986    12 H    0.979    13 H    0.979
                             2 O    0.888
     2   8 O    2.207 --     3 C    1.124     1 C    0.888     4 O    0.141
     3   6 C    3.866 --     4 O    1.670     2 O    1.124     5 C    0.990
     4   8 O    1.941 --     3 C    1.670     2 O    0.141
     5   6 C    3.879 --     6 N    1.607    10 O    1.057     3 C    0.990
     6   7 N    3.004 --     5 C    1.607     7 N    1.217
     7   7 N    2.981 --     8 C    1.589     6 N    1.217
     8   6 C    3.868 --     7 N    1.589    10 O    1.091     9 C    1.032
     9   6 C    3.985 --     8 C    1.032    14 H    0.981    16 H    0.968
                            15 H    0.957
    10   8 O    2.331 --     8 C    1.091     5 C    1.057
    11   1 H    1.009 --     1 C    0.986
    12   1 H    1.005 --     1 C    0.979
    13   1 H    1.004 --     1 C    0.979
    14   1 H    0.998 --     9 C    0.981
    15   1 H    0.996 --     9 C    0.957
    16   1 H    0.996 --     9 C    0.968
 ---------------------------------------------------------------------------

           -------------------------------------------------
          | TOTAL ENERGY              -34.296187726238 Eh   |
          | GRADIENT NORM               0.000936462100 Eh/α |
          | HOMO-LUMO GAP               3.714737720324 eV   |
           -------------------------------------------------

 * finished run on 2023/06/20 at 14:51:55.119
