   * xtb version 6.5.1 (579679a) compiled by 'ehlert@majestix' on 2022-07-11
          program call               : /lustre/hpc/kemi/ree/PhD/git/ReactivityQM/dep/xtb-6.5.1/bin/xtb --gfn 1 /lustre/hpc/kemi/ree/PhD/git/ReactivityQM/calculations/R03/reac02prodE04/conf01/R03_reac02prodE04_conf01_gfn1.xyz --opt --vfukui --chrg -1 --uhf 0 --alpb DMSO

   ID    Z sym.   atoms
    1    6 C      1, 3, 5, 6, 8-11, 13, 15, 18, 19, 22, 23, 25
    2    8 O      2, 4, 14, 20, 24, 26
    3    7 N      7, 12, 16, 17, 21
    4    1 H      27-46

      * Solvation model:               ALPB
        Solvent                        DMSO
        Solvent mass                       7.8130E+01 g/mol
          :  Hamiltonian                  GFN1-xTB          :
 * total energy  :   -87.0218702 Eh     change       -0.1279446E-08 Eh
 * total energy  :   -87.0375439 Eh     change       -0.1567369E-01 Eh
 * total energy  :   -87.0443158 Eh     change       -0.6771897E-02 Eh
 * total energy  :   -87.0460407 Eh     change       -0.1724980E-02 Eh
 * total energy  :   -87.0472114 Eh     change       -0.1170711E-02 Eh
 * total energy  :   -87.0476636 Eh     change       -0.4521857E-03 Eh
 * total energy  :   -87.0479657 Eh     change       -0.3020737E-03 Eh
 * total energy  :   -87.0482266 Eh     change       -0.2608698E-03 Eh
 * total energy  :   -87.0484976 Eh     change       -0.2709817E-03 Eh
 * total energy  :   -87.0488241 Eh     change       -0.3265637E-03 Eh
 * total energy  :   -87.0512724 Eh     change       -0.2340796E-04 Eh
 * total energy  :   -87.0512824 Eh     change       -0.9960596E-05 Eh
 * total energy  :   -87.0512949 Eh     change       -0.1254122E-04 Eh
 * total energy  :   -87.0513081 Eh     change       -0.1318044E-04 Eh
 * total energy  :   -87.0513201 Eh     change       -0.1199670E-04 Eh
 * total energy  :   -87.0513309 Eh     change       -0.1079460E-04 Eh
 * total energy  :   -87.0513377 Eh     change       -0.6790653E-05 Eh
 * total energy  :   -87.0513431 Eh     change       -0.5420551E-05 Eh
 * total energy  :   -87.0513470 Eh     change       -0.3965386E-05 Eh
   *** GEOMETRY OPTIMIZATION CONVERGED AFTER 40 ITERATIONS ***

 final structure:
================
46
 xtb: 6.5.1 (579679a)
C           -4.30043374118226        2.20496619589273       -1.85724091617685
O           -3.48599324082079        2.09435431381597       -0.69247545151375
C           -2.59690971154627        1.08054455913762       -0.67572587465985
O           -2.46845236947428        0.32079864439074       -1.61770944981684
C           -1.91618051375108        0.91643778750090        0.69169865249758
C           -1.63165221871842        2.26904540139550        1.35394377333405
N           -0.66413672046494        0.20044271641911        0.50994558697340
C           -0.64818606844847       -1.08814771411597        0.45459223866235
C            0.74230896305278       -1.69333667767614        0.16114752684325
C            1.31545042612542       -2.32811744365527        1.43757299746143
C            0.76081073333620       -2.67027341810839       -1.02307118666461
N            1.59024379172816       -0.54979763056180       -0.19616076337287
C            2.89922170414460       -0.58634573494537       -0.45497980390313
O            3.61186114455723       -1.58168763361438       -0.47521977760468
C            3.41835523835034        0.78225185395874       -0.74822222891846
N            2.73339943903506        1.88516362113617       -0.72944228927365
N            3.59324179156360        2.88966029428282       -1.06772256651258
C            4.74689933374533        2.33377153806898       -1.27209017809393
C            6.01028056818447        2.99417550323175       -1.66866954083139
O            4.70329046000841        1.00548567846847       -1.08598481976982
N           -1.72773190049958       -1.86828764599581        0.71350014467019
C           -1.81206400482234       -3.30067059426932        0.47881846556532
C           -2.87601856328609       -1.28406806930830        1.43061630881702
O           -3.69206814970706       -2.06960969250093        1.99282590382546
C           -2.89351766161118        0.07343349587740        1.45340112940033
O           -3.93114621017365        0.75817225336158        2.13012293699074
H           -4.90353665565513        3.10381974552365       -1.73944483173740
H           -3.67762265417059        2.28922437976665       -2.75303993778937
H           -4.94986612027342        1.33001487671614       -1.95584177464009
H           -0.98579931893224        2.86979446282880        0.71448599297869
H           -2.56141408323211        2.80733031750120        1.53085401778841
H           -1.12963011349239        2.10522190159343        2.30690269948769
H            1.39567189090699       -1.57242687204629        2.21832291886546
H            0.67538650022957       -3.13148466710875        1.79326429188408
H            2.30435483234802       -2.73710439109958        1.23694735235624
H            1.77907034735027       -2.76909080457118       -1.39570085252833
H            0.12795747971913       -2.30129067339848       -1.82943990412484
H            0.42565722870503       -3.65922076123759       -0.72520784702911
H            1.11072954673634        0.35357936262937       -0.15193225286277
H            6.77949330307101        2.81169178822054       -0.91897547585939
H            6.36125258934755        2.58773077360403       -2.61663741569599
H            5.84761385404960        4.06418266515316       -1.76996785555046
H           -1.81373573186767       -3.51568130262069       -0.59161361502056
H           -1.00082635622585       -3.84724745596129        0.95950236264401
H           -2.75496466541766       -3.65200695231852        0.90532243906488
H           -4.51066439252540        0.07460200464170        2.49786986983835

          :  Hamiltonian                  GFN1-xTB          :
         :: total energy             -87.051347042145 Eh    ::
         :: gradient norm              0.000720577472 Eh/a0 ::
         :: HOMO-LUMO gap              0.401167033276 eV    ::
         :: SCC energy               -87.848491259911 Eh    ::
         :: -> Gsolv                  -0.113549613843 Eh    ::
         :: repulsion energy           0.827137389310 Eh    ::

    * Orbital Energies and Occupations

         #    Occupation            Energy/Eh            Energy/eV
      -------------------------------------------------------------
         1        2.0000           -0.8564883             -23.3062
       ...           ...                  ...                  ...
        59        2.0000           -0.4734885             -12.8843
        60        2.0000           -0.4677327             -12.7277
        61        2.0000           -0.4630301             -12.5997
        62        2.0000           -0.4577065             -12.4548
        63        2.0000           -0.4524781             -12.3126
        64        2.0000           -0.4510859             -12.2747
        65        2.0000           -0.4408970             -11.9974
        66        2.0000           -0.4378131             -11.9135
        67        2.0000           -0.4297094             -11.6930
        68        2.0000           -0.3976072             -10.8194
        69        2.0000           -0.3861395             -10.5074
        70        2.0000           -0.3762413             -10.2380
        71        1.9991           -0.3126714              -8.5082 (HOMO)
        72        0.0009           -0.2979288              -8.1071 (LUMO)
        73                         -0.2508763              -6.8267
        74                         -0.2372748              -6.4566
        75                         -0.2223753              -6.0511
        76                         -0.1864410              -5.0733
        77                         -0.1407252              -3.8293
        78                         -0.1335541              -3.6342
        79                         -0.1295485              -3.5252
        80                         -0.1250418              -3.4026
        81                         -0.1138419              -3.0978
        82                         -0.1006542              -2.7389
       ...                                ...                  ...
       144                          0.7305553              19.8794
      -------------------------------------------------------------
                  HL-Gap            0.0147426 Eh            0.4012 eV

Wiberg/Mayer (AO) data.
largest (>0.10) Wiberg bond orders for each atom

     #   Z sym  total        # sym  WBO       # sym  WBO       # sym  WBO
 ---------------------------------------------------------------------------
     1   6 C    3.890 --    27 H    0.987    28 H    0.981    29 H    0.981
                             2 O    0.911
     2   8 O    2.175 --     3 C    1.072     1 C    0.911     4 O    0.117
     3   6 C    3.813 --     4 O    1.635     2 O    1.072     5 C    0.917
     4   8 O    1.894 --     3 C    1.635     2 O    0.117
     5   6 C    3.965 --     6 C    0.989     7 N    0.971    25 C    0.957
                             3 C    0.917
     6   6 C    3.997 --     5 C    0.989    30 H    0.988    32 H    0.987
                            31 H    0.985
     7   7 N    3.011 --     8 C    1.627     5 C    0.971    21 N    0.172
     8   6 C    3.949 --     7 N    1.627    21 N    1.221     9 C    0.960
     9   6 C    3.931 --    11 C    0.989    10 C    0.984     8 C    0.960
                            12 N    0.924
    10   6 C    3.993 --    33 H    0.986     9 C    0.984    35 H    0.981
                            34 H    0.979
    11   6 C    3.993 --     9 C    0.989    37 H    0.985    38 H    0.982
                            36 H    0.979
    12   7 N    3.385 --    13 C    1.305     9 C    0.924    39 H    0.858
                            14 O    0.189
    13   6 C    3.924 --    14 O    1.558    12 N    1.305    15 C    0.980
    14   8 O    1.884 --    13 C    1.558    12 N    0.189
    15   6 C    3.869 --    16 N    1.618    20 O    1.061    13 C    0.980
    16   7 N    3.009 --    15 C    1.618    17 N    1.191
    17   7 N    2.980 --    18 C    1.614    16 N    1.191
    18   6 C    3.874 --    17 N    1.614    20 O    1.080    19 C    1.030
    19   6 C    3.988 --    18 C    1.030    42 H    0.983    40 H    0.965
                            41 H    0.965
    20   8 O    2.324 --    18 C    1.080    15 C    1.061
    21   7 N    3.375 --     8 C    1.221    22 C    0.957    23 C    0.886
                             7 N    0.172
    22   6 C    3.955 --    43 H    0.982    44 H    0.976    45 H    0.970
                            21 N    0.957
    23   6 C    3.917 --    25 C    1.520    24 O    1.361    21 N    0.886
    24   8 O    1.735 --    23 C    1.361    25 C    0.167
    25   6 C    3.801 --    23 C    1.520     5 C    0.957    26 O    0.948
                            24 O    0.167
    26   8 O    1.920 --    25 C    0.948    46 H    0.855
    27   1 H    1.014 --     1 C    0.987
    28   1 H    1.012 --     1 C    0.981
    29   1 H    1.010 --     1 C    0.981
    30   1 H    1.010 --     6 C    0.988
    31   1 H    1.016 --     6 C    0.985
    32   1 H    1.012 --     6 C    0.987
    33   1 H    1.005 --    10 C    0.986
    34   1 H    1.006 --    10 C    0.979
    35   1 H    1.010 --    10 C    0.981
    36   1 H    1.010 --    11 C    0.979
    37   1 H    1.004 --    11 C    0.985
    38   1 H    1.007 --    11 C    0.982
    39   1 H    0.983 --    12 N    0.858
    40   1 H    0.998 --    19 C    0.965
    41   1 H    0.998 --    19 C    0.965
    42   1 H    0.999 --    19 C    0.983
    43   1 H    1.011 --    22 C    0.982
    44   1 H    1.011 --    22 C    0.976
    45   1 H    1.022 --    22 C    0.970
    46   1 H    0.891 --    26 O    0.855
 ---------------------------------------------------------------------------

           -------------------------------------------------
          | TOTAL ENERGY              -87.051347042145 Eh   |
          | GRADIENT NORM               0.000720577472 Eh/α |
          | HOMO-LUMO GAP               0.401167033276 eV   |
           -------------------------------------------------

 * finished run on 2023/06/20 at 15:17:52.117
