   * xtb version 6.5.1 (579679a) compiled by 'ehlert@majestix' on 2022-07-11
          program call               : /lustre/hpc/kemi/ree/PhD/git/ReactivityQM/dep/xtb-6.5.1/bin/xtb --gfn 1 /lustre/hpc/kemi/ree/PhD/git/ReactivityQM/calculations/R02methylcation/reac01prodN14/conf10/R02methylcation_reac01prodN14_conf10_gfn1.xyz --opt --vfukui --chrg 0 --uhf 0 --alpb DMSO

   ID    Z sym.   atoms
    1    6 C      1, 3, 5, 6, 8, 9, 12-15, 17, 19, 22, 23
    2    8 O      2, 4, 7, 10, 18, 24
    3    7 N      11, 16, 20, 21, 25
    4    1 H      26-42

      * Solvation model:               ALPB
        Solvent                        DMSO
        Solvent mass                       7.8130E+01 g/mol
          :  Hamiltonian                  GFN1-xTB          :
 * total energy  :   -82.8958235 Eh     change       -0.4547474E-12 Eh
 * total energy  :   -82.9117041 Eh     change       -0.1588064E-01 Eh
 * total energy  :   -82.9208160 Eh     change       -0.9111832E-02 Eh
 * total energy  :   -82.9227123 Eh     change       -0.1896347E-02 Eh
 * total energy  :   -82.9246884 Eh     change       -0.1976122E-02 Eh
 * total energy  :   -82.9258957 Eh     change       -0.1207280E-02 Eh
 * total energy  :   -82.9272008 Eh     change       -0.1305037E-02 Eh
 * total energy  :   -82.9281690 Eh     change       -0.9682571E-03 Eh
 * total energy  :   -82.9289178 Eh     change       -0.7487450E-03 Eh
 * total energy  :   -82.9297707 Eh     change       -0.8529192E-03 Eh
 * total energy  :   -82.9808528 Eh     change       -0.9992745E-05 Eh
 * total energy  :   -82.9808622 Eh     change       -0.9422741E-05 Eh
 * total energy  :   -82.9808677 Eh     change       -0.5522380E-05 Eh
 * total energy  :   -82.9808749 Eh     change       -0.7210593E-05 Eh
 * total energy  :   -82.9808806 Eh     change       -0.5716487E-05 Eh
 * total energy  :   -82.9808904 Eh     change       -0.9745509E-05 Eh
 * total energy  :   -82.9808958 Eh     change       -0.5423802E-05 Eh
 * total energy  :   -82.9809029 Eh     change       -0.7102917E-05 Eh
 * total energy  :   -82.9809065 Eh     change       -0.3612748E-05 Eh
   *** GEOMETRY OPTIMIZATION CONVERGED AFTER 94 ITERATIONS ***

 final structure:
================
42
 xtb: 6.5.1 (579679a)
C           -5.58733184304973        2.88099506920681       -1.19380460111626
O           -4.37929195047480        2.38243195391364       -0.61776811576629
C           -3.83519613147708        1.30784761243459       -1.21825077207734
O           -4.33690747664287        0.77118890349798       -2.18595197723280
C           -2.60106756383639        0.88377481484824       -0.57542204550282
C           -1.98405433545534        1.44877750958576        0.52674137366581
O           -2.13996329961524        2.31563031135452        1.33993538593480
C           -0.52124110120454       -0.07765351007946        2.01190549374824
C           -1.79219903132100       -0.60728320963221        2.56132363812206
O            0.55106433631808       -0.06579038647176        2.52769425441446
N           -0.64877766084535        0.54217352092962        0.67490105524102
C           -0.82451624958222       -0.42021290864970       -0.44418271938610
C            0.15957674388480       -1.52378430492893       -0.70936867998512
C           -0.11866515118064       -2.70889515574639        0.23012828687405
C            0.01620368586413       -1.95062601555064       -2.17702892137368
N            1.50992825523622       -1.00413419463579       -0.47176469928468
C            2.62354043704082       -1.75987127093791       -0.60358776046696
O            2.64451585840390       -2.95540666089542       -0.83842346385039
C            3.86569017874873       -0.96999814575342       -0.41718438994068
N            5.08978298175077       -1.39272134446692       -0.47973576398971
N            5.89073034774072       -0.31348712053404       -0.25773324726200
C            5.10683466334517        0.70283965055107       -0.07371914559137
C            5.48964656165031        2.10389519707895        0.20372582112388
O            3.81165300046912        0.35587388345665       -0.16168147346052
N           -1.89218757773025       -0.19739055062596       -1.08823582778502
H           -5.89535303452293        3.73020205064693       -0.58642099545250
H           -6.36106794904798        2.10861963869854       -1.18251515355469
H           -5.41153082207617        3.19971324213280       -2.22486452392239
H           -2.34845701314417        0.23765992006878        2.97380622483581
H           -1.57998431417255       -1.31306585650855        3.36076196219346
H           -2.39880485781740       -1.06876253318989        1.78584114288912
H            0.15956576044357        1.14383988122946        0.53766251128843
H            0.11802355443607       -2.43880127433796        1.25689915922169
H            0.48859208375301       -3.56499169786186       -0.05810822543236
H           -1.17044174338843       -2.98134151431004        0.16416343010641
H           -1.00627526035213       -2.27751957341891       -2.35914809220663
H            0.69956705679090       -2.76974717001136       -2.39249752291176
H            0.24240811951836       -1.11030979395800       -2.83089073861588
H            1.62962926472402       -0.01087917807936       -0.37396013376426
H            5.14848726512196        2.39319916124344        1.19781818804728
H            6.57069031617808        2.20690076285340        0.14693453322908
H            5.01718489551819        2.76710728684590       -0.51973647100542

          :  Hamiltonian                  GFN1-xTB          :
         :: total energy             -82.980906514463 Eh    ::
         :: gradient norm              0.000466144149 Eh/a0 ::
         :: HOMO-LUMO gap              2.552561069210 eV    ::
         :: SCC energy               -83.778684271189 Eh    ::
         :: -> Gsolv                  -0.063363633759 Eh    ::
         :: repulsion energy           0.824727688583 Eh    ::

    * Orbital Energies and Occupations

         #    Occupation            Energy/Eh            Energy/eV
      -------------------------------------------------------------
         1        2.0000           -0.8666721             -23.5833
       ...           ...                  ...                  ...
        55        2.0000           -0.5066943             -13.7879
        56        2.0000           -0.5060646             -13.7707
        57        2.0000           -0.5046968             -13.7335
        58        2.0000           -0.4927129             -13.4074
        59        2.0000           -0.4858355             -13.2203
        60        2.0000           -0.4812639             -13.0959
        61        2.0000           -0.4702047             -12.7949
        62        2.0000           -0.4669098             -12.7053
        63        2.0000           -0.4629835             -12.5984
        64        2.0000           -0.4589444             -12.4885
        65        2.0000           -0.4534723             -12.3396
        66        2.0000           -0.4512510             -12.2792
        67        2.0000           -0.4181416             -11.3782 (HOMO)
        68                         -0.3243367              -8.8257 (LUMO)
        69                         -0.3131127              -8.5202
        70                         -0.3020913              -8.2203
        71                         -0.2734181              -7.4401
        72                         -0.2576752              -7.0117
        73                         -0.2006779              -5.4607
        74                         -0.1668355              -4.5398
        75                         -0.1589524              -4.3253
        76                         -0.1436683              -3.9094
        77                         -0.1420712              -3.8660
        78                         -0.1353949              -3.6843
       ...                                ...                  ...
       134                          0.8320873              22.6422
      -------------------------------------------------------------
                  HL-Gap            0.0938049 Eh            2.5526 eV

Wiberg/Mayer (AO) data.
largest (>0.10) Wiberg bond orders for each atom

     #   Z sym  total        # sym  WBO       # sym  WBO       # sym  WBO
 ---------------------------------------------------------------------------
     1   6 C    3.880 --    26 H    0.986    28 H    0.981    27 H    0.981
                             2 O    0.906
     2   8 O    2.169 --     3 C    1.074     1 C    0.906     4 O    0.120
     3   6 C    3.864 --     4 O    1.614     5 C    1.083     2 O    1.074
     4   8 O    1.893 --     3 C    1.614     2 O    0.120
     5   6 C    3.885 --     6 C    1.352    25 N    1.110     3 C    1.083
                             7 O    0.139
     6   6 C    3.869 --     7 O    1.672     5 C    1.352    11 N    0.679
     7   8 O    2.021 --     6 C    1.672     5 C    0.139
     8   6 C    3.829 --    10 O    1.814     9 C    1.028    11 N    0.886
     9   6 C    3.983 --     8 C    1.028    30 H    0.972    31 H    0.967
                            29 H    0.931
    10   8 O    2.042 --     8 C    1.814
    11   7 N    3.549 --     8 C    0.886    32 H    0.866    12 C    0.856
                             6 C    0.679
    12   6 C    3.887 --    25 N    1.782    13 C    0.993    11 N    0.856
    13   6 C    3.935 --    12 C    0.993    15 C    0.982    14 C    0.974
                            16 N    0.925
    14   6 C    3.985 --    35 H    0.985    33 H    0.982    34 H    0.975
                            13 C    0.974
    15   6 C    3.987 --    38 H    0.985    36 H    0.984    13 C    0.982
                            37 H    0.981
    16   7 N    3.336 --    17 C    1.245    13 C    0.925    39 H    0.894
                            18 O    0.174
    17   6 C    3.915 --    18 O    1.593    16 N    1.245    19 C    0.994
    18   8 O    1.908 --    17 C    1.593    16 N    0.174
    19   6 C    3.873 --    20 N    1.622    24 O    1.046    17 C    0.994
    20   7 N    3.001 --    19 C    1.622    21 N    1.199
    21   7 N    2.982 --    22 C    1.610    20 N    1.199
    22   6 C    3.868 --    21 N    1.610    24 O    1.072    23 C    1.032
    23   6 C    3.986 --    22 C    1.032    41 H    0.982    42 H    0.965
                            40 H    0.960
    24   8 O    2.316 --    22 C    1.072    19 C    1.046
    25   7 N    3.067 --    12 C    1.782     5 C    1.110
    26   1 H    1.012 --     1 C    0.986
    27   1 H    1.009 --     1 C    0.981
    28   1 H    1.009 --     1 C    0.981
    29   1 H    0.993 --     9 C    0.931
    30   1 H    0.994 --     9 C    0.972
    31   1 H    0.995 --     9 C    0.967
    32   1 H    0.917 --    11 N    0.866
    33   1 H    1.003 --    14 C    0.982
    34   1 H    1.009 --    14 C    0.975
    35   1 H    1.003 --    14 C    0.985
    36   1 H    1.006 --    15 C    0.984
    37   1 H    1.006 --    15 C    0.981
    38   1 H    1.003 --    15 C    0.985
    39   1 H    0.940 --    16 N    0.894
    40   1 H    0.996 --    23 C    0.960
    41   1 H    0.998 --    23 C    0.982
    42   1 H    0.996 --    23 C    0.965
 ---------------------------------------------------------------------------

           -------------------------------------------------
          | TOTAL ENERGY              -82.980906514463 Eh   |
          | GRADIENT NORM               0.000466144149 Eh/α |
          | HOMO-LUMO GAP               2.552561069210 eV   |
           -------------------------------------------------

 * finished run on 2023/06/21 at 17:53:57.033
