   * xtb version 6.5.1 (579679a) compiled by 'ehlert@majestix' on 2022-07-11
          program call               : /lustre/hpc/kemi/ree/PhD/git/ReactivityQM/dep/xtb-6.5.1/bin/xtb --gfn 1 /lustre/hpc/kemi/ree/PhD/git/ReactivityQM/calculations/R02methylcation/reac01prodN15/conf08/R02methylcation_reac01prodN15_conf08_gfn1.xyz --opt --vfukui --chrg 0 --uhf 0 --alpb DMSO

   ID    Z sym.   atoms
    1    6 C      1, 3, 5, 7-10, 12, 14, 17, 18, 21, 23, 24
    2    8 O      2, 4, 13, 19, 22, 25
    3    7 N      6, 11, 15, 16, 20
    4    1 H      26-42

      * Solvation model:               ALPB
        Solvent                        DMSO
        Solvent mass                       7.8130E+01 g/mol
          :  Hamiltonian                  GFN1-xTB          :
 * total energy  :   -82.8912123 Eh     change       -0.3960992E-09 Eh
 * total energy  :   -82.9125715 Eh     change       -0.2135921E-01 Eh
 * total energy  :   -82.9321379 Eh     change       -0.1956645E-01 Eh
 * total energy  :   -82.9509811 Eh     change       -0.1884314E-01 Eh
 * total energy  :   -82.9747395 Eh     change       -0.2375844E-01 Eh
 * total energy  :   -82.8723816 Eh     change        0.1023579E+00 Eh
 * total energy  :   -82.9931205 Eh     change       -0.1207389E+00 Eh
 * total energy  :   -82.9971554 Eh     change       -0.4034920E-02 Eh
 * total energy  :   -82.9983340 Eh     change       -0.1178606E-02 Eh
 * total energy  :   -82.9995369 Eh     change       -0.1202908E-02 Eh
 * total energy  :   -83.0034664 Eh     change       -0.1624933E-04 Eh
 * total energy  :   -83.0034810 Eh     change       -0.1460409E-04 Eh
 * total energy  :   -83.0034938 Eh     change       -0.1286269E-04 Eh
 * total energy  :   -83.0035066 Eh     change       -0.1280761E-04 Eh
 * total energy  :   -83.0035158 Eh     change       -0.9160508E-05 Eh
 * total energy  :   -83.0035242 Eh     change       -0.8434848E-05 Eh
 * total energy  :   -83.0035302 Eh     change       -0.5993983E-05 Eh
 * total energy  :   -83.0035371 Eh     change       -0.6824158E-05 Eh
 * total energy  :   -83.0035396 Eh     change       -0.2583370E-05 Eh
   *** GEOMETRY OPTIMIZATION CONVERGED AFTER 45 ITERATIONS ***

 final structure:
================
42
 xtb: 6.5.1 (579679a)
C           -6.20643913482114        1.39320983960798        0.63973149099897
O           -5.14958854524961        0.48984654086764        0.28672526018120
C           -3.91454760224389        0.88246967621681        0.54592820950582
O           -3.62098368955016        1.94181165358400        1.03884754680445
C           -2.86717330720307       -0.14298743352134        0.13689950915538
N           -1.67653020970738       -0.01446142422090        0.88967652575039
C           -0.62220241927106       -0.60595010483011        0.48956471157445
C            0.61772952963831       -0.62127014708118        1.35877357014751
C            0.77882206680829       -2.04625840198656        1.90847277125169
C            0.49219684834747        0.40112719084394        2.49131380049856
N            1.75434017946367       -0.27299657496940        0.49894703909267
C            3.03860163072134       -0.28389840289426        0.93120681356438
O            3.42614797452656       -0.71699816438086        1.99926070630180
C            3.93777775697095        0.29629292063251       -0.09835794383498
N            3.56690113206970        0.83113683007103       -1.22326738627884
N            4.70046720769991        1.24493275171421       -1.85380662954590
C            5.69186673224235        0.93743818736998       -1.07236256699352
C            7.13258654075436        1.17866649525923       -1.30541147607416
O            5.27364831895450        0.33813371705657        0.05194083906166
N           -0.51988004350756       -1.25674826704333       -0.72343740346485
C           -1.46079586562227       -1.14793867048780       -1.71968700414422
O           -1.19027897481909       -1.37022684853636       -2.88014458468386
C           -2.81954977295020       -0.72086066699817       -1.24892228625280
C           -3.80239297051872       -0.37619697119098       -2.34165840612365
O           -3.29511166140890       -1.44161855422916       -0.13869428910571
H           -7.12287827930493        0.96624975860804        0.23982060098309
H           -6.26870133976303        1.48146953391226        1.72588065093231
H           -6.01874510231455        2.37565560100716        0.20279744684880
H           -0.13732743093762       -2.33895063208035        2.41949234000301
H            1.60588756957950       -2.08818427714654        2.61374134029551
H            0.96960708042220       -2.74167164901864        1.09335748746312
H            1.38401885153449        0.37171858560147        3.11438095411487
H            0.37467671513049        1.40148875821170        2.07784181593980
H           -0.37956172063610        0.16513650043510        3.09937888670808
H            1.56357160743451        0.24852255199758       -0.34382109402244
H            7.52793867754222        1.84320255925208       -0.53706455446435
H            7.68089305362453        0.23844647008912       -1.25273361252553
H            7.27342278658262        1.63040965260222       -2.28421834586230
H            0.39081061638468       -1.57765499932867       -1.01753683389200
H           -3.53006953890171        0.57291132543730       -2.80001451948633
H           -3.76931665321377       -1.15296215617686       -3.10554808404396
H           -4.80983961448446       -0.31244475425578       -1.94068929637285

          :  Hamiltonian                  GFN1-xTB          :
         :: total energy             -83.003539646791 Eh    ::
         :: gradient norm              0.000394705362 Eh/a0 ::
         :: HOMO-LUMO gap              3.655621689265 eV    ::
         :: SCC energy               -83.775483545365 Eh    ::
         :: -> Gsolv                  -0.049593129774 Eh    ::
         :: repulsion energy           0.797328628474 Eh    ::

    * Orbital Energies and Occupations

         #    Occupation            Energy/Eh            Energy/eV
      -------------------------------------------------------------
         1        2.0000           -0.8652807             -23.5455
       ...           ...                  ...                  ...
        55        2.0000           -0.5075927             -13.8123
        56        2.0000           -0.5066524             -13.7867
        57        2.0000           -0.5057210             -13.7614
        58        2.0000           -0.5024937             -13.6736
        59        2.0000           -0.4849013             -13.1948
        60        2.0000           -0.4794878             -13.0475
        61        2.0000           -0.4708537             -12.8126
        62        2.0000           -0.4676724             -12.7260
        63        2.0000           -0.4651832             -12.6583
        64        2.0000           -0.4638058             -12.6208
        65        2.0000           -0.4545114             -12.3679
        66        2.0000           -0.4533181             -12.3354
        67        2.0000           -0.4482855             -12.1985 (HOMO)
        68                         -0.3139439              -8.5428 (LUMO)
        69                         -0.3046786              -8.2907
        70                         -0.2899365              -7.8896
        71                         -0.2608229              -7.0974
        72                         -0.2582700              -7.0279
        73                         -0.2021007              -5.4994
        74                         -0.1438313              -3.9138
        75                         -0.1425727              -3.8796
        76                         -0.1342183              -3.6523
        77                         -0.1289821              -3.5098
        78                         -0.1256662              -3.4196
       ...                                ...                  ...
       134                          0.7263747              19.7657
      -------------------------------------------------------------
                  HL-Gap            0.1343416 Eh            3.6556 eV

Wiberg/Mayer (AO) data.
largest (>0.10) Wiberg bond orders for each atom

     #   Z sym  total        # sym  WBO       # sym  WBO       # sym  WBO
 ---------------------------------------------------------------------------
     1   6 C    3.859 --    26 H    0.985    28 H    0.980    27 H    0.979
                             2 O    0.883
     2   8 O    2.227 --     3 C    1.143     1 C    0.883     4 O    0.142
     3   6 C    3.851 --     4 O    1.688     2 O    1.143     5 C    0.936
     4   8 O    1.940 --     3 C    1.688     2 O    0.142
     5   6 C    3.870 --     6 N    1.026     3 C    0.936    25 O    0.908
                            23 C    0.834
     6   7 N    3.024 --     7 C    1.711     5 C    1.026
     7   6 C    3.928 --     6 N    1.711    20 N    1.108     8 C    0.978
     8   6 C    3.934 --    10 C    0.991     7 C    0.978     9 C    0.977
                            11 N    0.922
     9   6 C    3.988 --    29 H    0.985    31 H    0.984     8 C    0.977
                            30 H    0.977
    10   6 C    3.989 --     8 C    0.991    33 H    0.985    34 H    0.983
                            32 H    0.983
    11   7 N    3.325 --    12 C    1.232     8 C    0.922    35 H    0.894
                            13 O    0.172
    12   6 C    3.914 --    13 O    1.608    11 N    1.232    14 C    0.990
    13   8 O    1.921 --    12 C    1.608    11 N    0.172
    14   6 C    3.876 --    15 N    1.608    19 O    1.065    12 C    0.990
    15   7 N    3.019 --    14 C    1.608    16 N    1.202
    16   7 N    2.981 --    17 C    1.602    15 N    1.202
    17   6 C    3.870 --    16 N    1.602    19 O    1.084    18 C    1.032
    18   6 C    3.986 --    17 C    1.032    38 H    0.982    37 H    0.964
                            36 H    0.962
    19   8 O    2.332 --    17 C    1.084    14 C    1.065
    20   7 N    3.418 --    21 C    1.143     7 C    1.108    39 H    0.884
                            22 O    0.126
    21   6 C    3.893 --    22 O    1.656    20 N    1.143    23 C    0.979
    22   8 O    1.934 --    21 C    1.656    20 N    0.126
    23   6 C    3.861 --    24 C    1.002    21 C    0.979    25 O    0.894
                             5 C    0.834
    24   6 C    3.985 --    23 C    1.002    42 H    0.981    40 H    0.980
                            41 H    0.974
    25   8 O    1.967 --     5 C    0.908    23 C    0.894
    26   1 H    1.008 --     1 C    0.985
    27   1 H    1.004 --     1 C    0.979
    28   1 H    1.005 --     1 C    0.980
    29   1 H    1.001 --     9 C    0.985
    30   1 H    1.010 --     9 C    0.977
    31   1 H    1.001 --     9 C    0.984
    32   1 H    1.005 --    10 C    0.983
    33   1 H    1.004 --    10 C    0.985
    34   1 H    1.008 --    10 C    0.983
    35   1 H    0.951 --    11 N    0.894
    36   1 H    0.996 --    18 C    0.962
    37   1 H    0.996 --    18 C    0.964
    38   1 H    0.998 --    18 C    0.982
    39   1 H    0.931 --    20 N    0.884
    40   1 H    0.999 --    24 C    0.980
    41   1 H    1.002 --    24 C    0.974
    42   1 H    1.008 --    24 C    0.981
 ---------------------------------------------------------------------------

           -------------------------------------------------
          | TOTAL ENERGY              -83.003539646791 Eh   |
          | GRADIENT NORM               0.000394705362 Eh/α |
          | HOMO-LUMO GAP               3.655621689265 eV   |
           -------------------------------------------------

 * finished run on 2023/06/21 at 17:56:54.026
