   * xtb version 6.5.1 (579679a) compiled by 'ehlert@majestix' on 2022-07-11
          program call               : /lustre/hpc/kemi/ree/PhD/git/ReactivityQM/dep/xtb-6.5.1/bin/xtb --gfn 1 /lustre/hpc/kemi/ree/PhD/git/ReactivityQM/calculations/R01/reac02prodE03/conf17/R01_reac02prodE03_conf17_gfn1.xyz --opt --vfukui --chrg -1 --uhf 0 --alpb DMSO

   ID    Z sym.   atoms
    1    6 C      1, 3, 5, 6, 8-11, 14, 16
    2    8 O      2, 4, 15, 17
    3    7 N      7, 12, 13
    4    1 H      18-33

      * Solvation model:               ALPB
        Solvent                        DMSO
        Solvent mass                       7.8130E+01 g/mol
          :  Hamiltonian                  GFN1-xTB          :
 * total energy  :   -58.5287820 Eh     change       -0.3623768E-11 Eh
 * total energy  :   -58.5421362 Eh     change       -0.1335415E-01 Eh
 * total energy  :   -58.5458636 Eh     change       -0.3727428E-02 Eh
 * total energy  :   -58.5464836 Eh     change       -0.6199845E-03 Eh
 * total energy  :   -58.5469002 Eh     change       -0.4166640E-03 Eh
 * total energy  :   -58.5470078 Eh     change       -0.1075413E-03 Eh
 * total energy  :   -58.5470895 Eh     change       -0.8170922E-04 Eh
 * total energy  :   -58.5471600 Eh     change       -0.7050183E-04 Eh
 * total energy  :   -58.5472436 Eh     change       -0.8359383E-04 Eh
 * total energy  :   -58.5473642 Eh     change       -0.1205765E-03 Eh
 * total energy  :   -58.5504623 Eh     change       -0.3927870E-04 Eh
 * total energy  :   -58.5505088 Eh     change       -0.4647878E-04 Eh
 * total energy  :   -58.5505537 Eh     change       -0.4483059E-04 Eh
 * total energy  :   -58.5505855 Eh     change       -0.3183353E-04 Eh
 * total energy  :   -58.5506156 Eh     change       -0.3015704E-04 Eh
 * total energy  :   -58.5506392 Eh     change       -0.2354354E-04 Eh
 * total energy  :   -58.5506486 Eh     change       -0.9395158E-05 Eh
 * total energy  :   -58.5506587 Eh     change       -0.1007946E-04 Eh
 * total energy  :   -58.5506634 Eh     change       -0.4691919E-05 Eh
   *** GEOMETRY OPTIMIZATION CONVERGED AFTER 46 ITERATIONS ***

 final structure:
================
33
 xtb: 6.5.1 (579679a)
C            4.16224900526468       -1.40109107179305        0.34086582087177
O            3.30744686793554       -0.26698828688122        0.23543873896987
C            1.97794390547968       -0.50698703781237        0.29635697406989
O            1.53923225984247       -1.63022388129886        0.46876178682057
C            1.14347393430936        0.73651479666683       -0.03400526889147
C            1.79769480962582        2.01833088126637        0.49837054478628
N           -0.17888686770034        0.60029105326932        0.57174204045721
C           -1.11722224676822        0.04861921142495       -0.10423512020585
C           -2.47175072832716       -0.16333245887818        0.56972125321531
C           -2.53662369182327        0.63936164050616        1.87390245467505
C           -2.65509637300222       -1.65876616401996        0.85763882200201
N           -3.57159481009102        0.27544062681530       -0.29003516490115
N           -0.99250526532152       -0.41390680365464       -1.37763849479031
C            0.06949056528611        0.09602229035800       -2.22831607049820
O           -0.07888215322206       -0.01785008422762       -3.47869118969630
C            1.08318315994907        0.68512677851258       -1.53802180088666
O            2.18757024524784        1.25205946696010       -2.22710173248311
H            4.04562842828683       -1.87878597347542        1.31866119275843
H            5.18380307215693       -1.04193345229231        0.22578790737223
H            3.93298699784204       -2.13221618073290       -0.44023994040318
H            1.15538933466817        2.86882235277332        0.27212867955188
H            2.76901100047938        2.17386044733747        0.03181494362220
H            1.92583273814448        1.95340757229400        1.57853758288578
H           -3.51374764399406        0.50978655793986        2.33797675950529
H           -1.76265552759024        0.30308754195854        2.56416354628704
H           -2.38087348425830        1.69862626015471        1.66955114960079
H           -3.63356261526870       -1.83289235096221        1.30462880941478
H           -2.58639520489239       -2.23236770062127       -0.06655629399770
H           -1.88421057506109       -2.00769413203251        1.54512673930376
H           -3.70149320057968       -0.36461410957320       -1.06089195892133
H           -3.37824798482524        1.19310864929462       -0.66875224016843
H           -1.83407402767838       -0.65437451937267       -1.87613190507322
H            1.99688707588725        1.15155908009650       -3.17055956525449

          :  Hamiltonian                  GFN1-xTB          :
         :: total energy             -58.550663357959 Eh    ::
         :: gradient norm              0.000889081409 Eh/a0 ::
         :: HOMO-LUMO gap              2.037234300844 eV    ::
         :: SCC energy               -59.093855333801 Eh    ::
         :: -> Gsolv                  -0.107023189081 Eh    ::
         :: repulsion energy           0.562762445008 Eh    ::

    * Orbital Energies and Occupations

         #    Occupation            Energy/Eh            Energy/eV
      -------------------------------------------------------------
         1        2.0000           -0.8070447             -21.9608
       ...           ...                  ...                  ...
        36        2.0000           -0.4800659             -13.0633
        37        2.0000           -0.4731423             -12.8749
        38        2.0000           -0.4711602             -12.8209
        39        2.0000           -0.4662642             -12.6877
        40        2.0000           -0.4605780             -12.5330
        41        2.0000           -0.4556242             -12.3982
        42        2.0000           -0.4482623             -12.1978
        43        2.0000           -0.4309524             -11.7268
        44        2.0000           -0.3993414             -10.8666
        45        2.0000           -0.3873246             -10.5396
        46        2.0000           -0.3777621             -10.2794
        47        2.0000           -0.3703336             -10.0773
        48        2.0000           -0.3053522              -8.3091 (HOMO)
        49                         -0.2304852              -6.2718 (LUMO)
        50                         -0.2104151              -5.7257
        51                         -0.1276005              -3.4722
        52                         -0.1235928              -3.3631
        53                         -0.1094738              -2.9789
        54                         -0.1077391              -2.9317
        55                         -0.0958182              -2.6073
        56                         -0.0907040              -2.4682
        57                         -0.0642657              -1.7488
        58                         -0.0628738              -1.7109
        59                         -0.0609702              -1.6591
       ...                                ...                  ...
       100                          0.7089220              19.2907
      -------------------------------------------------------------
                  HL-Gap            0.0748670 Eh            2.0372 eV

Wiberg/Mayer (AO) data.
largest (>0.10) Wiberg bond orders for each atom

     #   Z sym  total        # sym  WBO       # sym  WBO       # sym  WBO
 ---------------------------------------------------------------------------
     1   6 C    3.893 --    19 H    0.987    18 H    0.981    20 H    0.981
                             2 O    0.915
     2   8 O    2.170 --     3 C    1.063     1 C    0.915     4 O    0.114
     3   6 C    3.812 --     4 O    1.628     2 O    1.063     5 C    0.922
     4   8 O    1.889 --     3 C    1.628     2 O    0.114
     5   6 C    3.967 --     6 C    0.988     7 N    0.973    16 C    0.954
                             3 C    0.922
     6   6 C    3.997 --    23 H    0.988     5 C    0.988    21 H    0.987
                            22 H    0.985
     7   7 N    2.971 --     8 C    1.674     5 C    0.973    13 N    0.158
     8   6 C    3.945 --     7 N    1.674    13 N    1.185     9 C    0.961
     9   6 C    3.966 --    10 C    0.999    11 C    0.989    12 N    0.978
                             8 C    0.961
    10   6 C    3.997 --     9 C    0.999    24 H    0.988    25 H    0.986
                            26 H    0.985
    11   6 C    3.996 --     9 C    0.989    29 H    0.986    27 H    0.986
                            28 H    0.985
    12   7 N    2.953 --     9 C    0.978    31 H    0.946    30 H    0.944
    13   7 N    3.309 --     8 C    1.185    14 C    0.913    32 H    0.913
                             7 N    0.158
    14   6 C    3.920 --    16 C    1.509    15 O    1.362    13 N    0.913
    15   8 O    1.705 --    14 C    1.362    16 C    0.167
    16   6 C    3.791 --    14 C    1.509     5 C    0.954    17 O    0.941
                            15 O    0.167
    17   8 O    1.914 --    16 C    0.941    33 H    0.859
    18   1 H    1.012 --     1 C    0.981
    19   1 H    1.014 --     1 C    0.987
    20   1 H    1.012 --     1 C    0.981
    21   1 H    1.013 --     6 C    0.987
    22   1 H    1.018 --     6 C    0.985
    23   1 H    1.011 --     6 C    0.988
    24   1 H    1.010 --    10 C    0.988
    25   1 H    1.019 --    10 C    0.986
    26   1 H    1.013 --    10 C    0.985
    27   1 H    1.006 --    11 C    0.986
    28   1 H    1.005 --    11 C    0.985
    29   1 H    1.006 --    11 C    0.986
    30   1 H    0.963 --    12 N    0.944
    31   1 H    0.963 --    12 N    0.946
    32   1 H    0.965 --    13 N    0.913
    33   1 H    0.892 --    17 O    0.859
 ---------------------------------------------------------------------------

           -------------------------------------------------
          | TOTAL ENERGY              -58.550663357959 Eh   |
          | GRADIENT NORM               0.000889081409 Eh/α |
          | HOMO-LUMO GAP               2.037234300844 eV   |
           -------------------------------------------------

 * finished run on 2023/06/20 at 14:58:50.391
