   * xtb version 6.5.1 (579679a) compiled by 'ehlert@majestix' on 2022-07-11
          program call               : /lustre/hpc/kemi/ree/PhD/git/ReactivityQM/dep/xtb-6.5.1/bin/xtb --gfn 1 /lustre/hpc/kemi/ree/PhD/git/ReactivityQM/calculations/R02oxygendeprot/reac01prodN12/conf03/R02oxygendeprot_reac01prodN12_conf03_gfn1.xyz --opt --vfukui --chrg 0 --uhf 0 --alpb DMSO

   ID    Z sym.   atoms
    1    6 C      1, 3, 5, 7-10, 12, 14, 15, 18, 19, 22, 24
    2    8 O      2, 4, 13, 20, 23, 25
    3    7 N      6, 11, 16, 17, 21
    4    1 H      26-42

      * Solvation model:               ALPB
        Solvent                        DMSO
        Solvent mass                       7.8130E+01 g/mol
          :  Hamiltonian                  GFN1-xTB          :
 * total energy  :   -82.9339886 Eh     change        0.4263256E-13 Eh
 * total energy  :   -82.9446811 Eh     change       -0.1069251E-01 Eh
 * total energy  :   -82.9487946 Eh     change       -0.4113467E-02 Eh
 * total energy  :   -82.9494580 Eh     change       -0.6633779E-03 Eh
 * total energy  :   -82.9499006 Eh     change       -0.4426596E-03 Eh
 * total energy  :   -82.9500832 Eh     change       -0.1825875E-03 Eh
 * total energy  :   -82.9502077 Eh     change       -0.1245288E-03 Eh
 * total energy  :   -82.9502951 Eh     change       -0.8737562E-04 Eh
 * total energy  :   -82.9503719 Eh     change       -0.7679726E-04 Eh
 * total energy  :   -82.9504411 Eh     change       -0.6922918E-04 Eh
 * total energy  :   -82.9536645 Eh     change       -0.1521192E-04 Eh
 * total energy  :   -82.9536849 Eh     change       -0.2038172E-04 Eh
 * total energy  :   -82.9536962 Eh     change       -0.1122652E-04 Eh
 * total energy  :   -82.9537061 Eh     change       -0.9924593E-05 Eh
 * total energy  :   -82.9537180 Eh     change       -0.1191869E-04 Eh
 * total energy  :   -82.9537275 Eh     change       -0.9528970E-05 Eh
 * total energy  :   -82.9537339 Eh     change       -0.6337386E-05 Eh
 * total energy  :   -82.9537393 Eh     change       -0.5433070E-05 Eh
 * total energy  :   -82.9537429 Eh     change       -0.3628244E-05 Eh
   *** GEOMETRY OPTIMIZATION CONVERGED AFTER 111 ITERATIONS ***

 final structure:
================
42
 xtb: 6.5.1 (579679a)
C            4.62362275174442        3.07870319426752       -1.35246849865274
O            4.26527397788177        1.75002540098068       -0.97687487035525
C            3.06393707771801        1.60167640718768       -0.40641026617366
O            2.30828123585429        2.54011529802708       -0.23109713622110
C            2.74512902597164        0.21335273871835       -0.00861206582543
N            1.55535733322827        0.10445069744574        0.62854548039331
C            1.11950869764310       -1.04684759542070        1.04725128145137
C           -0.20018698665442       -1.06208889157181        1.78436205467283
C           -0.10274379323439       -0.10480395201280        2.97651423629447
C           -0.65869787997789       -2.45162127196104        2.22128741495615
N           -1.22730686155568       -0.50281150041777        0.87662631757256
C           -1.28424372061667       -0.91068326916041       -0.38362314159451
O           -0.46656444604222       -1.60163015646564       -0.94530890342305
C           -2.54051734337801       -0.38501130217518       -1.18803204427865
C           -3.32491670515267       -1.60356882167513       -1.66900107508956
N           -2.04392080330608        0.43689287401536       -2.23498958566315
N           -2.47427280002624        1.64673159780834       -2.05252516319060
C           -3.24446919346135        1.66088365084400       -0.96818863969539
C           -3.92646157184529        2.83404851303397       -0.40421287367558
O           -3.33403869315751        0.47516462092191       -0.40031596327937
N            1.85327421481810       -2.18497757679934        0.90737458974439
C            3.07504380557259       -2.23940920839671        0.26504013720426
O            3.66319832014447       -3.30171665757942        0.16367725994654
C            3.59090934146887       -0.91777459826165       -0.26603677244639
O            4.66796813317501       -0.88983913766601       -0.86427960483644
H            3.90289501173821        3.47869431849258       -2.07022444894665
H            4.64699498775480        3.72652504709017       -0.47251734620530
H            5.61254803982835        3.02331766187454       -1.80372039534749
H            0.62695050075805       -0.48357290940916        3.68995749146440
H            0.21140268103824        0.87962619099989        2.63063571942177
H           -1.06925583497412       -0.02392359937705        3.46865448400638
H            0.03663188719130       -2.86789353695733        2.94775005101521
H           -0.73358386038292       -3.11703934191195        1.36251698611312
H           -1.63952231342525       -2.37429457585443        2.68578728442150
H           -2.01981831936249       -0.05564160804721        1.30385739081318
H           -2.66128695553458       -2.23879707517949       -2.25188619674677
H           -3.69981434272523       -2.15083884113580       -0.80791032224278
H           -4.16037046007509       -1.27193423266673       -2.28080130632744
H           -4.16719404724431        3.54209359280342       -1.19484056695116
H           -4.82539502516053        2.52543548206333        0.12510136318300
H           -3.26566787870732        3.33040826814178        0.31022763832455
H            1.50132481246138       -3.06142589458670        1.25518500616576

          :  Hamiltonian                  GFN1-xTB          :
         :: total energy             -82.953742927498 Eh    ::
         :: gradient norm              0.000599046327 Eh/a0 ::
         :: HOMO-LUMO gap              0.144941194051 eV    ::
         :: SCC energy               -83.724168757061 Eh    ::
         :: -> Gsolv                  -0.087400410887 Eh    ::
         :: repulsion energy           0.797427979688 Eh    ::

    * Orbital Energies and Occupations

         #    Occupation            Energy/Eh            Energy/eV
      -------------------------------------------------------------
         1        2.0000           -0.8882099             -24.1694
       ...           ...                  ...                  ...
        55        2.0000           -0.5143453             -13.9960
        56        2.0000           -0.5107240             -13.8975
        57        2.0000           -0.5082844             -13.8311
        58        2.0000           -0.4950455             -13.4709
        59        2.0000           -0.4887573             -13.2998
        60        2.0000           -0.4881333             -13.2828
        61        2.0000           -0.4774683             -12.9926
        62        2.0000           -0.4769539             -12.9786
        63        2.0000           -0.4704976             -12.8029
        64        2.0000           -0.4685856             -12.7509
        65        2.0000           -0.4528773             -12.3234
        66        2.0000           -0.4154298             -11.3044
        67        1.8857           -0.3997713             -10.8783 (HOMO)
        68        0.1143           -0.3944448             -10.7334 (LUMO)
        69                         -0.3024505              -8.2301
        70                         -0.2894712              -7.8769
        71                         -0.2774758              -7.5505
        72                         -0.2761065              -7.5132
        73                         -0.2288578              -6.2275
        74                         -0.1581740              -4.3041
        75                         -0.1482350              -4.0337
        76                         -0.1439240              -3.9164
        77                         -0.1400650              -3.8114
        78                         -0.1358840              -3.6976
       ...                                ...                  ...
       134                          0.7464311              20.3114
      -------------------------------------------------------------
                  HL-Gap            0.0053265 Eh            0.1449 eV

Wiberg/Mayer (AO) data.
largest (>0.10) Wiberg bond orders for each atom

     #   Z sym  total        # sym  WBO       # sym  WBO       # sym  WBO
 ---------------------------------------------------------------------------
     1   6 C    3.881 --    28 H    0.986    26 H    0.980    27 H    0.979
                             2 O    0.907
     2   8 O    2.187 --     3 C    1.097     1 C    0.907     4 O    0.127
     3   6 C    3.840 --     4 O    1.619     2 O    1.097     5 C    1.039
     4   8 O    1.878 --     3 C    1.619     2 O    0.127
     5   6 C    3.827 --     6 N    1.279    24 C    1.183     3 C    1.039
     6   7 N    3.004 --     7 C    1.490     5 C    1.279
     7   6 C    3.875 --     6 N    1.490    21 N    1.170     8 C    0.986
     8   6 C    3.925 --    10 C    0.997     7 C    0.986     9 C    0.980
                            11 N    0.892
     9   6 C    3.978 --    29 H    0.983    31 H    0.983    30 H    0.981
                             8 C    0.980
    10   6 C    3.990 --     8 C    0.997    34 H    0.981    32 H    0.981
                            33 H    0.981
    11   7 N    3.364 --    12 C    1.328     8 C    0.892    35 H    0.887
                            13 O    0.172
    12   6 C    3.888 --    13 O    1.628    11 N    1.328    14 C    0.806
    13   8 O    1.986 --    12 C    1.628    11 N    0.172
    14   6 C    3.851 --    16 N    1.065    15 C    0.937    20 O    0.908
                            12 C    0.806
    15   6 C    3.943 --    37 H    0.982    38 H    0.979    36 H    0.979
                            14 C    0.937
    16   7 N    2.814 --    17 N    1.457    14 C    1.065
    17   7 N    2.971 --    16 N    1.457    18 C    1.361
    18   6 C    3.694 --    17 N    1.361    20 O    1.157    19 C    1.052
    19   6 C    3.973 --    18 C    1.052    39 H    0.968    40 H    0.967
                            41 H    0.933
    20   8 O    2.243 --    18 C    1.157    14 C    0.908
    21   7 N    3.433 --     7 C    1.170    22 C    1.123    42 H    0.884
                            23 O    0.120
    22   6 C    3.850 --    23 O    1.632    21 N    1.123    24 C    0.954
    23   8 O    1.868 --    22 C    1.632    21 N    0.120
    24   6 C    3.881 --    25 O    1.593     5 C    1.183    22 C    0.954
    25   8 O    1.794 --    24 C    1.593
    26   1 H    1.009 --     1 C    0.980
    27   1 H    1.008 --     1 C    0.979
    28   1 H    1.012 --     1 C    0.986
    29   1 H    0.998 --     9 C    0.983
    30   1 H    1.009 --     9 C    0.981
    31   1 H    0.996 --     9 C    0.983
    32   1 H    0.996 --    10 C    0.981
    33   1 H    0.998 --    10 C    0.981
    34   1 H    0.998 --    10 C    0.981
    35   1 H    0.931 --    11 N    0.887
    36   1 H    1.000 --    15 C    0.979
    37   1 H    0.995 --    15 C    0.982
    38   1 H    0.994 --    15 C    0.979
    39   1 H    0.991 --    19 C    0.968
    40   1 H    0.988 --    19 C    0.967
    41   1 H    0.977 --    19 C    0.933
    42   1 H    0.935 --    21 N    0.884
 ---------------------------------------------------------------------------

           -------------------------------------------------
          | TOTAL ENERGY              -82.953742927498 Eh   |
          | GRADIENT NORM               0.000599046327 Eh/α |
          | HOMO-LUMO GAP               0.144941194051 eV   |
           -------------------------------------------------

 * finished run on 2023/06/21 at 17:27:45.155
