   * xtb version 6.5.1 (579679a) compiled by 'ehlert@majestix' on 2022-07-11
          program call               : /lustre/hpc/kemi/ree/PhD/git/ReactivityQM/dep/xtb-6.5.1/bin/xtb --gfn 1 /lustre/hpc/kemi/ree/PhD/git/ReactivityQM/calculations/R02oxygendeprot/reac01prodE04/conf11/R02oxygendeprot_reac01prodE04_conf11_gfn1.xyz --opt --vfukui --chrg -2 --uhf 0 --alpb DMSO

   ID    Z sym.   atoms
    1    6 C      1, 3, 5, 6, 8-11, 13, 15, 18, 19, 22, 24
    2    8 O      2, 4, 14, 20, 23, 25
    3    7 N      7, 12, 16, 17, 21
    4    1 H      26-42

      * Solvation model:               ALPB
        Solvent                        DMSO
        Solvent mass                       7.8130E+01 g/mol
          :  Hamiltonian                  GFN1-xTB          :
 * total energy  :   -83.5801900 Eh     change       -0.9729320E-09 Eh
 * total energy  :   -83.6009082 Eh     change       -0.2071824E-01 Eh
 * total energy  :   -83.6083485 Eh     change       -0.7440312E-02 Eh
 * total energy  :   -83.6101583 Eh     change       -0.1809769E-02 Eh
 * total energy  :   -83.6113356 Eh     change       -0.1177328E-02 Eh
 * total energy  :   -83.6119258 Eh     change       -0.5901461E-03 Eh
 * total energy  :   -83.6122231 Eh     change       -0.2972837E-03 Eh
 * total energy  :   -83.6124409 Eh     change       -0.2178716E-03 Eh
 * total energy  :   -83.6125870 Eh     change       -0.1460543E-03 Eh
 * total energy  :   -83.6127066 Eh     change       -0.1196214E-03 Eh
 * total energy  :   -83.6136570 Eh     change       -0.1385135E-04 Eh
 * total energy  :   -83.6136770 Eh     change       -0.2000541E-04 Eh
 * total energy  :   -83.6136860 Eh     change       -0.9019626E-05 Eh
 * total energy  :   -83.6136995 Eh     change       -0.1352828E-04 Eh
 * total energy  :   -83.6137108 Eh     change       -0.1123931E-04 Eh
 * total energy  :   -83.6137210 Eh     change       -0.1019825E-04 Eh
 * total energy  :   -83.6137261 Eh     change       -0.5082228E-05 Eh
 * total energy  :   -83.6137340 Eh     change       -0.7909643E-05 Eh
 * total energy  :   -83.6137372 Eh     change       -0.3199088E-05 Eh
   *** GEOMETRY OPTIMIZATION CONVERGED AFTER 41 ITERATIONS ***

 final structure:
================
42
 xtb: 6.5.1 (579679a)
C           -3.16263923297284        2.50677435799189        0.21702795724906
O           -2.71029944251575        1.16299899618235        0.10912068690657
C           -3.68482219812903        0.22311582178231        0.02676731263027
O           -4.86740558845352        0.53391253122330        0.03704540753675
C           -3.16477142820014       -1.18461156418330       -0.20567154802833
C           -4.19099925649372       -2.19993950664894        0.30899720601050
N           -1.89343177472805       -1.40521623658646        0.46542540646300
C           -0.81727684588897       -1.08537898089721       -0.15667617131357
C            0.52198739223589       -1.29175679011618        0.54248647704193
C            1.00089779758884       -2.70914479152849        0.18799618932007
C            0.34416954125165       -1.14531969971953        2.06059337869339
N            1.45676226704478       -0.29293501018942        0.02396256378392
C            2.76472928399922       -0.20403690637671        0.52468585324841
O            3.33921531455994       -1.14077527420139        1.11721516659259
C            3.35327621837492        1.05948075752706        0.20910649882486
N            2.75131944470348        2.07685945910618       -0.41549271494158
N            3.67521069881771        3.08216164608150       -0.49777385363098
C            4.76047368802202        2.65524916502191        0.05978898734384
C            6.03959753155725        3.39321808380771        0.20785672564841
O            4.65297270273680        1.39162274213464        0.53546479006786
N           -0.78760196829354       -0.62332651942378       -1.43322680232420
C           -1.87036016702161       -0.84594280069119       -2.35039285488389
O           -1.58707535334251       -0.75229163893351       -3.58122164665517
C           -3.09964946970540       -1.21409008541120       -1.76158141592740
O           -4.15399742191925       -1.55297316831924       -2.40003452421305
H           -3.74497000202623        2.64200279237179        1.13336209714892
H           -3.78813800767609        2.77827507102463       -0.63928620522820
H           -2.28009704251236        3.14383983669486        0.24750933544786
H           -5.15889156623945       -2.01730721826460       -0.15760051940842
H           -3.86393122345222       -3.20964835646963        0.06335296351593
H           -4.29321179342326       -2.11711864198030        1.39055853099283
H            1.19493918166703       -2.77920934822250       -0.88220046024731
H            1.91162501152501       -2.95896353116918        0.72863423136201
H            0.22606592184801       -3.42760022739530        0.45519973126429
H            1.27812792199970       -1.36254135126971        2.57637542129779
H           -0.42347080189895       -1.83861140989189        2.40359542888392
H            0.02994704642448       -0.13034170635962        2.30329339791761
H            1.03763435166968        0.62254574692027       -0.11234790337424
H            6.32910395185191        3.44610708023269        1.25772509923915
H            5.92419479137502        4.40104065667940       -0.18426797538000
H            6.83705333450832        2.88647415258417       -0.33619335121238
H            0.11373419113334       -0.51659913311199       -1.87509689767067

          :  Hamiltonian                  GFN1-xTB          :
         :: total energy             -83.613737160767 Eh    ::
         :: gradient norm              0.000809279644 Eh/a0 ::
         :: HOMO-LUMO gap              0.037903485098 eV    ::
         :: SCC energy               -84.339888673016 Eh    ::
         :: -> Gsolv                  -0.268069895859 Eh    ::
         :: repulsion energy           0.753006096830 Eh    ::

    * Orbital Energies and Occupations

         #    Occupation            Energy/Eh            Energy/eV
      -------------------------------------------------------------
         1        2.0000           -0.8030428             -21.8519
       ...           ...                  ...                  ...
        56        2.0000           -0.4493099             -12.2263
        57        2.0000           -0.4448325             -12.1045
        58        2.0000           -0.4311177             -11.7313
        59        2.0000           -0.4263240             -11.6009
        60        2.0000           -0.4105174             -11.1707
        61        2.0000           -0.4075692             -11.0905
        62        2.0000           -0.4054804             -11.0337
        63        2.0000           -0.3992618             -10.8645
        64        2.0000           -0.3906725             -10.6307
        65        2.0000           -0.3803657             -10.3503
        66        2.0000           -0.3757423             -10.2245
        67        2.0000           -0.3462917              -9.4231
        68        1.3510           -0.2701342              -7.3507 (HOMO)
        69        0.6490           -0.2687413              -7.3128 (LUMO)
        70                         -0.2241508              -6.0995
        71                         -0.2114384              -5.7535
        72                         -0.2029222              -5.5218
        73                         -0.1423568              -3.8737
        74                         -0.1248129              -3.3963
        75                         -0.1227692              -3.3407
        76                         -0.1163287              -3.1655
        77                         -0.0977084              -2.6588
        78                         -0.0944533              -2.5702
        79                         -0.0880339              -2.3955
       ...                                ...                  ...
       134                          0.7119187              19.3723
      -------------------------------------------------------------
                  HL-Gap            0.0013929 Eh            0.0379 eV

Wiberg/Mayer (AO) data.
largest (>0.10) Wiberg bond orders for each atom

     #   Z sym  total        # sym  WBO       # sym  WBO       # sym  WBO
 ---------------------------------------------------------------------------
     1   6 C    3.897 --    28 H    0.987    26 H    0.981    27 H    0.981
                             2 O    0.921
     2   8 O    2.151 --     3 C    1.053     1 C    0.921     4 O    0.109
     3   6 C    3.780 --     4 O    1.601     2 O    1.053     5 C    0.947
     4   8 O    1.866 --     3 C    1.601     2 O    0.109
     5   6 C    3.958 --     6 C    0.990     7 N    0.979     3 C    0.947
                            24 C    0.877
     6   6 C    3.990 --     5 C    0.990    31 H    0.988    30 H    0.988
                            29 H    0.984
     7   7 N    2.938 --     8 C    1.650     5 C    0.979    21 N    0.148
     8   6 C    3.932 --     7 N    1.650    21 N    1.179     9 C    0.970
     9   6 C    3.951 --    11 C    0.989    10 C    0.983     8 C    0.970
                            12 N    0.946
    10   6 C    3.993 --    34 H    0.988    32 H    0.986     9 C    0.983
                            33 H    0.979
    11   6 C    3.992 --     9 C    0.989    37 H    0.987    35 H    0.984
                            36 H    0.984
    12   7 N    3.148 --    13 C    1.077     9 C    0.946    38 H    0.918
                            14 O    0.109
    13   6 C    3.749 --    14 O    1.454    15 C    1.151    12 N    1.077
    14   8 O    1.696 --    13 C    1.454    12 N    0.109
    15   6 C    3.697 --    16 N    1.397    13 C    1.151    20 O    0.979
    16   7 N    2.746 --    15 C    1.397    17 N    1.185
    17   7 N    2.980 --    18 C    1.628    16 N    1.185
    18   6 C    3.821 --    17 N    1.628    20 O    1.051    19 C    1.024
    19   6 C    3.994 --    18 C    1.024    40 H    0.986    39 H    0.972
                            41 H    0.970
    20   8 O    2.187 --    18 C    1.051    15 C    0.979
    21   7 N    3.322 --     8 C    1.179    22 C    0.956    42 H    0.910
                             7 N    0.148
    22   6 C    3.740 --    23 O    1.386    24 C    1.249    21 N    0.956
    23   8 O    1.596 --    22 C    1.386
    24   6 C    3.730 --    25 O    1.372    22 C    1.249     5 C    0.877
    25   8 O    1.573 --    24 C    1.372
    26   1 H    1.013 --     1 C    0.981
    27   1 H    1.014 --     1 C    0.981
    28   1 H    1.015 --     1 C    0.987
    29   1 H    1.026 --     6 C    0.984
    30   1 H    1.012 --     6 C    0.988
    31   1 H    1.011 --     6 C    0.988
    32   1 H    1.008 --    10 C    0.986
    33   1 H    1.023 --    10 C    0.979
    34   1 H    1.009 --    10 C    0.988
    35   1 H    1.014 --    11 C    0.984
    36   1 H    1.022 --    11 C    0.984
    37   1 H    1.009 --    11 C    0.987
    38   1 H    0.979 --    12 N    0.918
    39   1 H    1.001 --    19 C    0.972
    40   1 H    1.004 --    19 C    0.986
    41   1 H    1.001 --    19 C    0.970
    42   1 H    0.970 --    21 N    0.910
 ---------------------------------------------------------------------------

           -------------------------------------------------
          | TOTAL ENERGY              -83.613737160767 Eh   |
          | GRADIENT NORM               0.000809279644 Eh/α |
          | HOMO-LUMO GAP               0.037903485098 eV   |
           -------------------------------------------------

 * finished run on 2023/06/21 at 17:04:51.026
