   * xtb version 6.5.1 (579679a) compiled by 'ehlert@majestix' on 2022-07-11
          program call               : /lustre/hpc/kemi/ree/PhD/git/ReactivityQM/dep/xtb-6.5.1/bin/xtb --gfn 1 /lustre/hpc/kemi/ree/PhD/git/ReactivityQM/calculations/R03/reac01prodN06/conf10/R03_reac01prodN06_conf10_gfn1.xyz --opt --vfukui --chrg 1 --uhf 0 --alpb DMSO

   ID    Z sym.   atoms
    1    6 C      1, 3-7, 9, 10
    2    9 F      2
    3    7 N      8
    4    1 H      11-21

      * Solvation model:               ALPB
        Solvent                        DMSO
        Solvent mass                       7.8130E+01 g/mol
          :  Hamiltonian                  GFN1-xTB          :
 * total energy  :   -30.7180816 Eh     change       -0.3907985E-11 Eh
 * total energy  :   -30.7294509 Eh     change       -0.1136935E-01 Eh
 * total energy  :   -30.7327698 Eh     change       -0.3318848E-02 Eh
 * total energy  :   -30.7331634 Eh     change       -0.3935759E-03 Eh
 * total energy  :   -30.7334134 Eh     change       -0.2500055E-03 Eh
 * total energy  :   -30.7336325 Eh     change       -0.2191242E-03 Eh
 * total energy  :   -30.7338362 Eh     change       -0.2037169E-03 Eh
 * total energy  :   -30.7340201 Eh     change       -0.1838650E-03 Eh
 * total energy  :   -30.7341363 Eh     change       -0.1162203E-03 Eh
 * total energy  :   -30.7342265 Eh     change       -0.9018017E-04 Eh
 * total energy  :   -30.7345001 Eh     change       -0.6154171E-04 Eh
 * total energy  :   -30.7345641 Eh     change       -0.6405346E-04 Eh
 * total energy  :   -30.7344733 Eh     change        0.9084033E-04 Eh
 * total energy  :   -30.7346000 Eh     change       -0.1267594E-03 Eh
 * total energy  :   -30.7346064 Eh     change       -0.6355068E-05 Eh
 * total energy  :   -30.7346069 Eh     change       -0.5074736E-06 Eh
 * total energy  :   -30.7346174 Eh     change       -0.1048066E-04 Eh
 * total energy  :   -30.7346230 Eh     change       -0.5652265E-05 Eh
 * total energy  :   -30.7346272 Eh     change       -0.4138630E-05 Eh
   *** GEOMETRY OPTIMIZATION CONVERGED AFTER 23 ITERATIONS ***

 final structure:
================
21
 xtb: 6.5.1 (579679a)
C            3.91961723390383       -0.34886450988544       -0.09408685840953
F            2.75351642242732       -0.13310297680028       -0.90969819098899
C            1.34467820742830       -0.11102240717652       -0.48389701701096
C            0.73134161457042        1.11488145804120       -0.50683403681471
C           -0.61109878599218        1.12471979428138       -0.14934894633522
C           -1.26622117133549       -0.05277354901567        0.21142684741181
C           -2.71785715442675       -0.01569169330306        0.61539884246395
N           -3.38488722918448        1.15189396758666        0.04995144761915
C           -0.56741018229208       -1.26073724636131        0.21768629132005
C            0.77551614823043       -1.30903742987239       -0.13813934595658
H            3.80050806070256        0.28757885438274        0.77740271943099
H            4.74194469344961       -0.04878761221479       -0.73663880620186
H            3.92734904375703       -1.40783765029871        0.14634030673967
H            1.26090440733410        2.01344558807169       -0.78998268847396
H           -1.16110853775556        2.05898555508322       -0.15197951088738
H           -2.76684915290815        0.05625975553378        1.70753506451574
H           -3.21102774616903       -0.95167614321755        0.31873175380324
H           -4.28331897407024        1.25748366394888        0.50002072148600
H           -3.55050514712956        0.98813426155441       -0.93390741269489
H           -1.06843019341126       -2.17968223155070        0.49656333771135
H            1.33333944287063       -2.23416844879308       -0.14654551872969

          :  Hamiltonian                  GFN1-xTB          :
         :: total energy             -30.734627178767 Eh    ::
         :: gradient norm              0.000544816974 Eh/a0 ::
         :: HOMO-LUMO gap              2.904381356673 eV    ::
         :: SCC energy               -31.143731074360 Eh    ::
         :: -> Gsolv                  -0.082528256930 Eh    ::
         :: repulsion energy           0.418492321260 Eh    ::

    * Orbital Energies and Occupations

         #    Occupation            Energy/Eh            Energy/eV
      -------------------------------------------------------------
         1        2.0000           -1.0070043             -27.4020
       ...           ...                  ...                  ...
        15        2.0000           -0.5902863             -16.0625
        16        2.0000           -0.5829880             -15.8639
        17        2.0000           -0.5780889             -15.7306
        18        2.0000           -0.5727999             -15.5867
        19        2.0000           -0.5694714             -15.4961
        20        2.0000           -0.5585852             -15.1999
        21        2.0000           -0.5378712             -14.6362
        22        2.0000           -0.5260006             -14.3132
        23        2.0000           -0.5100193             -13.8783
        24        2.0000           -0.5039330             -13.7127
        25        2.0000           -0.4874490             -13.2642
        26        2.0000           -0.4757095             -12.9447
        27        2.0000           -0.4172177             -11.3531 (HOMO)
        28                         -0.3104836              -8.4487 (LUMO)
        29                         -0.3093103              -8.4168
        30                         -0.2589036              -7.0451
        31                         -0.1888600              -5.1391
        32                         -0.1810665              -4.9271
        33                         -0.1440944              -3.9210
        34                         -0.1402289              -3.8158
        35                         -0.1309689              -3.5638
        36                         -0.1281534              -3.4872
        37                         -0.1222547              -3.3267
        38                         -0.1138628              -3.0984
       ...                                ...                  ...
        62                          0.6149859              16.7346
      -------------------------------------------------------------
                  HL-Gap            0.1067341 Eh            2.9044 eV

Wiberg/Mayer (AO) data.
largest (>0.10) Wiberg bond orders for each atom

     #   Z sym  total        # sym  WBO       # sym  WBO       # sym  WBO
 ---------------------------------------------------------------------------
     1   6 C    3.679 --    11 H    0.980    13 H    0.980    12 H    0.974
                             2 F    0.719
     2   9 F    1.436 --     1 C    0.719     3 C    0.629
     3   6 C    3.685 --    10 C    1.431     4 C    1.430     2 F    0.629
     4   6 C    3.984 --     3 C    1.430     5 C    1.426    14 H    0.962
                             9 C    0.108
     5   6 C    3.986 --     4 C    1.426     6 C    1.410    15 H    0.962
                            10 C    0.108
     6   6 C    3.980 --     9 C    1.410     5 C    1.410     7 C    1.010
     7   6 C    3.980 --     6 C    1.010     8 N    1.002    17 H    0.966
                            16 H    0.956
     8   7 N    2.952 --     7 C    1.002    19 H    0.945    18 H    0.938
     9   6 C    3.988 --    10 C    1.427     6 C    1.410    20 H    0.966
                             4 C    0.108
    10   6 C    3.985 --     3 C    1.431     9 C    1.427    21 H    0.961
                             5 C    0.108
    11   1 H    0.993 --     1 C    0.980
    12   1 H    0.992 --     1 C    0.974
    13   1 H    0.993 --     1 C    0.980
    14   1 H    0.991 --     4 C    0.962
    15   1 H    1.013 --     5 C    0.962
    16   1 H    1.007 --     7 C    0.956
    17   1 H    1.000 --     7 C    0.966
    18   1 H    0.952 --     8 N    0.938
    19   1 H    0.956 --     8 N    0.945
    20   1 H    0.994 --     9 C    0.966
    21   1 H    0.990 --    10 C    0.961
 ---------------------------------------------------------------------------

           -------------------------------------------------
          | TOTAL ENERGY              -30.734627178767 Eh   |
          | GRADIENT NORM               0.000544816974 Eh/α |
          | HOMO-LUMO GAP               2.904381356673 eV   |
           -------------------------------------------------

 * finished run on 2023/06/20 at 15:14:58.611
