   * xtb version 6.5.1 (579679a) compiled by 'ehlert@majestix' on 2022-07-11
          program call               : /lustre/hpc/kemi/ree/PhD/git/ReactivityQM/dep/xtb-6.5.1/bin/xtb --gfn 1 /lustre/hpc/kemi/ree/PhD/git/ReactivityQM/calculations/R02methylcation/reac01prodN04/conf20/R02methylcation_reac01prodN04_conf20_gfn1.xyz --opt --vfukui --chrg 0 --uhf 0 --alpb DMSO

   ID    Z sym.   atoms
    1    6 C      1, 3, 5, 6, 8-11, 13, 15, 18, 19, 22, 24
    2    8 O      2, 4, 14, 20, 23, 25
    3    7 N      7, 12, 16, 17, 21
    4    1 H      26-42

      * Solvation model:               ALPB
        Solvent                        DMSO
        Solvent mass                       7.8130E+01 g/mol
          :  Hamiltonian                  GFN1-xTB          :
 * total energy  :   -82.9678036 Eh     change       -0.8057555E-11 Eh
 * total energy  :   -82.9849838 Eh     change       -0.1718020E-01 Eh
 * total energy  :   -82.9908696 Eh     change       -0.5885809E-02 Eh
 * total energy  :   -82.9921928 Eh     change       -0.1323170E-02 Eh
 * total energy  :   -82.9927168 Eh     change       -0.5240212E-03 Eh
 * total energy  :   -82.9928994 Eh     change       -0.1825439E-03 Eh
 * total energy  :   -82.9930291 Eh     change       -0.1297504E-03 Eh
 * total energy  :   -82.9931126 Eh     change       -0.8344873E-04 Eh
 * total energy  :   -82.9931679 Eh     change       -0.5529104E-04 Eh
 * total energy  :   -82.9932055 Eh     change       -0.3766813E-04 Eh
 * total energy  :   -82.9935533 Eh     change       -0.1229097E-04 Eh
 * total energy  :   -82.9935743 Eh     change       -0.2095979E-04 Eh
 * total energy  :   -82.9935823 Eh     change       -0.8062249E-05 Eh
 * total energy  :   -82.9935887 Eh     change       -0.6325836E-05 Eh
 * total energy  :   -82.9935959 Eh     change       -0.7222204E-05 Eh
 * total energy  :   -82.9936027 Eh     change       -0.6793805E-05 Eh
 * total energy  :   -82.9936066 Eh     change       -0.3944142E-05 Eh
 * total energy  :   -82.9936119 Eh     change       -0.5243302E-05 Eh
 * total energy  :   -82.9936160 Eh     change       -0.4141044E-05 Eh
   *** GEOMETRY OPTIMIZATION CONVERGED AFTER 34 ITERATIONS ***

 final structure:
================
42
 xtb: 6.5.1 (579679a)
C           -3.42314278365265        1.57097576893268        1.61233924633038
O           -4.32027414684228        1.16941594284169        0.57812769933811
C           -4.04040713985068        0.32099776385075       -0.39562798838800
O           -5.04576830677273        0.12108855440865       -1.22128875345279
C           -6.28093813536245        0.80810292099644       -1.00707576784082
C           -2.83643050726586       -0.35470599313661       -0.62099635722041
N           -1.79390314722585       -0.12319771551706        0.27305302008431
C           -0.66794396840801       -0.71054204878715        0.12522777582985
C            0.46258589775676       -0.50381063360272        1.11145640392492
C            0.21931696775017        0.73812319007677        1.97109073647650
C            0.57499735768493       -1.76304263260639        1.98381609246422
N            1.68762046610949       -0.32448541988099        0.32199738725817
C            2.91209692877053       -0.17950238219638        0.87884620946785
O            3.17822929893077       -0.31090614366695        2.05893637696512
C            3.92390424564706        0.14826890940349       -0.15860575694776
N            3.69744392699403        0.30707398645483       -1.42814957023346
N            4.89428795700332        0.60520272241254       -2.00643911675311
C            5.77490103825943        0.61166738755142       -1.05158479610245
C            7.22332305403225        0.89267397921121       -1.15937348568183
O            5.22323323367289        0.33025911217184        0.13795205332654
N           -0.42041418319460       -1.60189135210584       -0.89582861005112
C           -1.33298824554794       -1.93834030044034       -1.86079096776563
O           -1.05232499640554       -2.73475133808719       -2.73709089483498
C           -2.68602022776523       -1.25223908061431       -1.74338777301084
O           -3.54689122821221       -1.49437881622971       -2.58139674656562
H           -3.11072088079358        0.71056931810088        2.20569306710539
H           -3.98444958340541        2.27033515624576        2.23212135754786
H           -2.54610291413847        2.06382941238116        1.19078564018395
H           -6.12744768481308        1.88758883745070       -1.06304336924694
H           -6.69441830520648        0.54885280489874       -0.03047999527993
H           -6.94997184543577        0.47949306751576       -1.80053929014465
H            0.11659460344903        1.61776411890584        1.33796088379624
H           -0.69454799915377        0.60646517555896        2.54673177922164
H            1.05179796479387        0.88423927082096        2.65700243049487
H            1.33375680059452       -1.62546639893150        2.75143953407047
H            0.84043319417884       -2.62195203773695        1.36954455833444
H           -0.38421959650853       -1.95127146046171        2.46378928546796
H            1.58589075966926       -0.04953512803758       -0.64424221709702
H            7.46014436584625        1.82050538383136       -0.63714250095373
H            7.79527057473615        0.08935881162479       -0.69521290409965
H            7.50148172639267        0.98672046744342       -2.20657564263749
H            0.48201646369021       -2.04955318105358       -0.94652403338192

          :  Hamiltonian                  GFN1-xTB          :
         :: total energy             -82.993616012040 Eh    ::
         :: gradient norm              0.000841696940 Eh/a0 ::
         :: HOMO-LUMO gap              2.392813759380 eV    ::
         :: SCC energy               -83.772993154260 Eh    ::
         :: -> Gsolv                  -0.060706470347 Eh    ::
         :: repulsion energy           0.805202210048 Eh    ::

    * Orbital Energies and Occupations

         #    Occupation            Energy/Eh            Energy/eV
      -------------------------------------------------------------
         1        2.0000           -0.8634792             -23.4965
       ...           ...                  ...                  ...
        55        2.0000           -0.5056962             -13.7607
        56        2.0000           -0.5046842             -13.7332
        57        2.0000           -0.5006764             -13.6241
        58        2.0000           -0.4958525             -13.4928
        59        2.0000           -0.4825148             -13.1299
        60        2.0000           -0.4789829             -13.0338
        61        2.0000           -0.4659174             -12.6783
        62        2.0000           -0.4611577             -12.5487
        63        2.0000           -0.4537657             -12.3476
        64        2.0000           -0.4508064             -12.2671
        65        2.0000           -0.4473859             -12.1740
        66        2.0000           -0.4210138             -11.4564
        67        2.0000           -0.4151294             -11.2962 (HOMO)
        68                         -0.3271951              -8.9034 (LUMO)
        69                         -0.3112485              -8.4695
        70                         -0.2748450              -7.4789
        71                         -0.2567468              -6.9864
        72                         -0.2482210              -6.7544
        73                         -0.1992379              -5.4215
        74                         -0.1559808              -4.2445
        75                         -0.1522304              -4.1424
        76                         -0.1431325              -3.8948
        77                         -0.1417933              -3.8584
        78                         -0.1253530              -3.4110
       ...                                ...                  ...
       134                          0.7554700              20.5574
      -------------------------------------------------------------
                  HL-Gap            0.0879343 Eh            2.3928 eV

Wiberg/Mayer (AO) data.
largest (>0.10) Wiberg bond orders for each atom

     #   Z sym  total        # sym  WBO       # sym  WBO       # sym  WBO
 ---------------------------------------------------------------------------
     1   6 C    3.853 --    27 H    0.981    28 H    0.976    26 H    0.976
                             2 O    0.882
     2   8 O    2.224 --     3 C    1.133     1 C    0.882
     3   6 C    3.833 --     6 C    1.333     4 O    1.154     2 O    1.133
     4   8 O    2.239 --     3 C    1.154     5 C    0.888
     5   6 C    3.861 --    31 H    0.984    30 H    0.978    29 H    0.978
                             4 O    0.888
     6   6 C    3.922 --     3 C    1.333    24 C    1.164     7 N    1.107
     7   7 N    3.044 --     8 C    1.656     6 C    1.107
     8   6 C    3.932 --     7 N    1.656    21 N    1.104     9 C    0.979
     9   6 C    3.934 --    10 C    0.992     8 C    0.979    11 C    0.979
                            12 N    0.920
    10   6 C    3.990 --     9 C    0.992    32 H    0.984    33 H    0.982
                            34 H    0.981
    11   6 C    3.986 --    37 H    0.985    36 H    0.984     9 C    0.979
                            35 H    0.978
    12   7 N    3.331 --    13 C    1.241     9 C    0.920    38 H    0.895
                            14 O    0.174
    13   6 C    3.916 --    14 O    1.602    12 N    1.241    15 C    0.989
    14   8 O    1.918 --    13 C    1.602    12 N    0.174
    15   6 C    3.875 --    16 N    1.610    20 O    1.065    13 C    0.989
    16   7 N    3.017 --    15 C    1.610    17 N    1.201
    17   7 N    2.981 --    18 C    1.604    16 N    1.201
    18   6 C    3.871 --    17 N    1.604    20 O    1.083    19 C    1.031
    19   6 C    3.986 --    18 C    1.031    41 H    0.982    40 H    0.966
                            39 H    0.961
    20   8 O    2.331 --    18 C    1.083    15 C    1.065
    21   7 N    3.435 --    22 C    1.159     8 C    1.104    42 H    0.886
                            23 O    0.138
    22   6 C    3.882 --    23 O    1.637    21 N    1.159    24 C    0.940
    23   8 O    1.915 --    22 C    1.637    21 N    0.138
    24   6 C    3.920 --    25 O    1.634     6 C    1.164    22 C    0.940
    25   8 O    1.920 --    24 C    1.634
    26   1 H    1.020 --     1 C    0.976
    27   1 H    1.008 --     1 C    0.981
    28   1 H    1.020 --     1 C    0.976
    29   1 H    1.005 --     5 C    0.978
    30   1 H    1.005 --     5 C    0.978
    31   1 H    1.008 --     5 C    0.984
    32   1 H    1.004 --    10 C    0.984
    33   1 H    1.007 --    10 C    0.982
    34   1 H    1.005 --    10 C    0.981
    35   1 H    1.010 --    11 C    0.978
    36   1 H    1.001 --    11 C    0.984
    37   1 H    1.002 --    11 C    0.985
    38   1 H    0.952 --    12 N    0.895
    39   1 H    0.997 --    19 C    0.961
    40   1 H    0.997 --    19 C    0.966
    41   1 H    0.998 --    19 C    0.982
    42   1 H    0.934 --    21 N    0.886
 ---------------------------------------------------------------------------

           -------------------------------------------------
          | TOTAL ENERGY              -82.993616012040 Eh   |
          | GRADIENT NORM               0.000841696940 Eh/α |
          | HOMO-LUMO GAP               2.392813759380 eV   |
           -------------------------------------------------

 * finished run on 2023/06/21 at 17:34:17.678
