   * xtb version 6.5.1 (579679a) compiled by 'ehlert@majestix' on 2022-07-11
          program call               : /lustre/hpc/kemi/ree/PhD/git/ReactivityQM/dep/xtb-6.5.1/bin/xtb --gfn 1 /lustre/hpc/kemi/ree/PhD/git/ReactivityQM/calculations/RaltegravirCLI/reac02prodN02/conf18/RaltegravirCLI_reac02prodN02_conf18_gfn1.xyz --opt --vfukui --chrg 1 --uhf 0 --alpb DMSO

   ID    Z sym.   atoms
    1    6 C      1, 3-6, 8, 9, 12-16, 18-20, 22, 25
    2    7 N      2, 7, 11, 24
    3    8 O      10, 21, 23
    4    9 F      17
    5    1 H      26-47

      * Solvation model:               ALPB
        Solvent                        DMSO
        Solvent mass                       7.8130E+01 g/mol
          :  Hamiltonian                  GFN1-xTB          :
 * total energy  :   -79.5200849 Eh     change       -0.1085709E-10 Eh
 * total energy  :   -79.5299987 Eh     change       -0.9913811E-02 Eh
 * total energy  :   -79.5324650 Eh     change       -0.2466345E-02 Eh
 * total energy  :   -79.5328526 Eh     change       -0.3876029E-03 Eh
 * total energy  :   -79.5330790 Eh     change       -0.2264167E-03 Eh
 * total energy  :   -79.5331875 Eh     change       -0.1084249E-03 Eh
 * total energy  :   -79.5333054 Eh     change       -0.1179520E-03 Eh
 * total energy  :   -79.5334257 Eh     change       -0.1202334E-03 Eh
 * total energy  :   -79.5335269 Eh     change       -0.1012410E-03 Eh
 * total energy  :   -79.5336276 Eh     change       -0.1006597E-03 Eh
 * total energy  :   -79.5354455 Eh     change       -0.1009286E-04 Eh
 * total energy  :   -79.5354571 Eh     change       -0.1160439E-04 Eh
 * total energy  :   -79.5354707 Eh     change       -0.1360238E-04 Eh
 * total energy  :   -79.5354838 Eh     change       -0.1311907E-04 Eh
 * total energy  :   -79.5354965 Eh     change       -0.1268283E-04 Eh
 * total energy  :   -79.5355068 Eh     change       -0.1022576E-04 Eh
 * total energy  :   -79.5355145 Eh     change       -0.7742117E-05 Eh
 * total energy  :   -79.5355192 Eh     change       -0.4680148E-05 Eh
 * total energy  :   -79.5355232 Eh     change       -0.4034374E-05 Eh
   *** GEOMETRY OPTIMIZATION CONVERGED AFTER 56 ITERATIONS ***

 final structure:
================
47
 xtb: 6.5.1 (579679a)
C           -4.15768808450372        0.90604689198041       -1.27024727739820
N           -4.53236173362626       -0.10140474921030       -0.24730665101617
C           -3.37838327270167       -0.90430042931519        0.32792939363789
C           -3.02502726490691       -1.96840367529873       -0.71566001459497
C           -3.88705767633165       -1.60007171577553        1.59106054453486
C           -2.16480994607695       -0.01041561928034        0.56786801814340
N           -1.15049364822232       -0.27577412792843       -0.18492408714192
C            0.04375790861975        0.38251112640988       -0.07648377865558
C            1.07653644897418       -0.08314240276373       -1.06615277165920
O            0.89483667207833       -1.08433394079328       -1.74507733249990
N            2.17936983670049        0.68164616949429       -1.15460837232050
C            3.26077039118260        0.35565756241222       -2.07312589389780
C            4.50103810160705       -0.09452470954065       -1.33307751145368
C            5.76015867666781        0.24606035155200       -1.82222667678478
C            6.91017739798393       -0.17972643819913       -1.17188935076910
C            6.77160577028101       -0.94556599259642       -0.02858881446860
F            7.87846876116999       -1.36058654769008        0.60808543824264
C            5.53726769373717       -1.29877240674187        0.48646805166413
C            4.39870770354026       -0.86642281500432       -0.17790459369764
C            0.18206944500685        1.33022534616473        0.89407298594125
O            1.31223483667896        2.01417475109900        1.13122847569790
C           -0.93322252965547        1.66636983561444        1.76285311939374
O           -0.84081618332479        2.52329404946313        2.63192073059532
N           -2.11410572087708        0.96927701979925        1.53065142315270
C           -3.22395489279028        1.37766646608751        2.39136736826534
H           -3.64383541373398        0.40892109059595       -2.08847957983355
H           -3.51405549510181        1.64851232598493       -0.80676777808933
H           -5.07647667721183        1.36736216412117       -1.62228990956157
H           -5.19002026441551       -0.75741553902737       -0.66277339521555
H           -5.03558311183751        0.37146109887345        0.49824633551802
H           -3.90018140172300       -2.57984773867216       -0.92729633449952
H           -2.67150520440300       -1.51169279050505       -1.63790835720309
H           -2.23418990263521       -2.60473521855375       -0.32110653339509
H           -4.63812172569297       -2.34094575153858        1.32052280428230
H           -4.33574502812214       -0.90323366759844        2.29240353245721
H           -3.05452891885563       -2.10587976820913        2.07896270526669
H            2.28324927593569        1.50720096283506       -0.59011460630295
H            2.90696762054611       -0.44605850201907       -2.73230317402438
H            3.48171500118700        1.23521721902885       -2.68495386365901
H            5.84632676347632        0.85091145414726       -2.71733457124228
H            7.89353234022168        0.08107759858408       -1.54119781291431
H            5.47017935429900       -1.89626437349066        1.38631950409704
H            3.42137902016245       -1.12569318559155        0.21143217197640
H            1.15489370249836        2.64050968884252        1.86412007394112
H           -4.16691008679738        1.28327971457077        1.86833564087177
H           -3.06694898707319        2.42336846606233        2.65732156058232
H           -3.22921855187993        0.77445975150909        3.29862816395701

          :  Hamiltonian                  GFN1-xTB          :
         :: total energy             -79.535523212917 Eh    ::
         :: gradient norm              0.000464019865 Eh/a0 ::
         :: HOMO-LUMO gap              2.899118064858 eV    ::
         :: SCC energy               -80.437017718981 Eh    ::
         :: -> Gsolv                  -0.134254914193 Eh    ::
         :: repulsion energy           0.932265623715 Eh    ::

    * Orbital Energies and Occupations

         #    Occupation            Energy/Eh            Energy/eV
      -------------------------------------------------------------
         1        2.0000           -0.8898999             -24.2154
       ...           ...                  ...                  ...
        55        2.0000           -0.5230680             -14.2334
        56        2.0000           -0.5200605             -14.1516
        57        2.0000           -0.5086946             -13.8423
        58        2.0000           -0.5005451             -13.6205
        59        2.0000           -0.4877668             -13.2728
        60        2.0000           -0.4828546             -13.1391
        61        2.0000           -0.4770493             -12.9812
        62        2.0000           -0.4675095             -12.7216
        63        2.0000           -0.4543387             -12.3632
        64        2.0000           -0.4512518             -12.2792
        65        2.0000           -0.4482886             -12.1986
        66        2.0000           -0.4403837             -11.9834
        67        2.0000           -0.4359188             -11.8620 (HOMO)
        68                         -0.3293782              -8.9628 (LUMO)
        69                         -0.3007084              -8.1827
        70                         -0.2761402              -7.5142
        71                         -0.2683629              -7.3025
        72                         -0.2404137              -6.5420
        73                         -0.1880391              -5.1168
        74                         -0.1779452              -4.8421
        75                         -0.1689173              -4.5965
        76                         -0.1666032              -4.5335
        77                         -0.1526171              -4.1529
        78                         -0.1475415              -4.0148
       ...                                ...                  ...
       144                          0.7123711              19.3846
      -------------------------------------------------------------
                  HL-Gap            0.1065406 Eh            2.8991 eV

Wiberg/Mayer (AO) data.
largest (>0.10) Wiberg bond orders for each atom

     #   Z sym  total        # sym  WBO       # sym  WBO       # sym  WBO
 ---------------------------------------------------------------------------
     1   6 C    3.894 --    27 H    0.984    26 H    0.982    28 H    0.980
                             2 N    0.918
     2   7 N    3.594 --     1 C    0.918    30 H    0.889    29 H    0.889
                             3 C    0.866
     3   6 C    3.895 --     4 C    1.002     5 C    0.996     6 C    0.977
                             2 N    0.866
     4   6 C    3.983 --     3 C    1.002    31 H    0.981    33 H    0.977
                            32 H    0.977
     5   6 C    3.983 --     3 C    0.996    34 H    0.979    36 H    0.977
                            35 H    0.977
     6   6 C    3.941 --     7 N    1.585    24 N    1.164     3 C    0.977
     7   7 N    3.043 --     6 C    1.585     8 C    1.186
     8   6 C    3.957 --    20 C    1.509     7 N    1.186     9 C    0.983
     9   6 C    3.912 --    10 O    1.579    11 N    1.271     8 C    0.983
    10   8 O    1.880 --     9 C    1.579    11 N    0.177
    11   7 N    3.359 --     9 C    1.271    12 C    0.946    37 H    0.888
                            10 O    0.177
    12   6 C    3.945 --    13 C    0.997    39 H    0.972    38 H    0.958
                            11 N    0.946
    13   6 C    3.988 --    14 C    1.417    19 C    1.416    12 C    0.997
    14   6 C    3.994 --    15 C    1.443    13 C    1.417    40 H    0.971
                            18 C    0.110
    15   6 C    3.991 --    14 C    1.443    16 C    1.401    41 H    0.969
                            19 C    0.111
    16   6 C    3.861 --    15 C    1.401    18 C    1.400    17 F    0.926
    17   9 F    1.054 --    16 C    0.926
    18   6 C    3.992 --    19 C    1.445    16 C    1.400    42 H    0.969
                            14 C    0.110
    19   6 C    3.994 --    18 C    1.445    13 C    1.416    43 H    0.971
                            15 C    0.111
    20   6 C    3.919 --     8 C    1.509    21 O    1.090    22 C    1.081
    21   8 O    2.081 --    20 C    1.090    44 H    0.794
    22   6 C    3.911 --    23 O    1.568    24 N    1.114    20 C    1.081
    23   8 O    1.914 --    22 C    1.568    24 N    0.133
    24   7 N    3.500 --     6 C    1.164    22 C    1.114    25 C    0.928
                            23 O    0.133
    25   6 C    3.919 --    45 H    0.977    47 H    0.972    46 H    0.969
                            24 N    0.928
    26   1 H    0.994 --     1 C    0.982
    27   1 H    0.996 --     1 C    0.984
    28   1 H    0.988 --     1 C    0.980
    29   1 H    0.917 --     2 N    0.889
    30   1 H    0.931 --     2 N    0.889
    31   1 H    0.996 --     4 C    0.981
    32   1 H    1.010 --     4 C    0.977
    33   1 H    1.003 --     4 C    0.977
    34   1 H    0.994 --     5 C    0.979
    35   1 H    0.998 --     5 C    0.977
    36   1 H    0.994 --     5 C    0.977
    37   1 H    0.942 --    11 N    0.888
    38   1 H    1.011 --    12 C    0.958
    39   1 H    1.003 --    12 C    0.972
    40   1 H    0.999 --    14 C    0.971
    41   1 H    0.997 --    15 C    0.969
    42   1 H    0.998 --    18 C    0.969
    43   1 H    1.002 --    19 C    0.971
    44   1 H    0.836 --    21 O    0.794
    45   1 H    0.999 --    25 C    0.977
    46   1 H    1.003 --    25 C    0.969
    47   1 H    0.998 --    25 C    0.972
 ---------------------------------------------------------------------------

           -------------------------------------------------
          | TOTAL ENERGY              -79.535523212917 Eh   |
          | GRADIENT NORM               0.000464019865 Eh/α |
          | HOMO-LUMO GAP               2.899118064858 eV   |
           -------------------------------------------------

 * finished run on 2023/06/20 at 15:17:11.887
