                         Program Version 5.0.1 -  RELEASE  -
|  1> # ORCA input file
|  2> ! SP r2SCAN-3c CPCM
|  3>
|  4> %maxcore 1875.0
|  5> %pal nprocs 4 end
|  6> %cpcm smd true SMDsolvent "DMSO" end
|  7>
|  8> *xyz 1 1
|  9> C      -3.242391    1.204347    2.506963
| 10> N      -2.182483    0.511028    1.764898
| 11> C      -2.274651    0.128328    0.448650
| 12> C      -3.516830    0.388905   -0.394565
| 13> C      -3.390567   -0.365541   -1.728436
| 14> C      -3.642071    1.894121   -0.671664
| 15> N      -4.703175   -0.071779    0.320816
| 16> N      -1.287245   -0.448696   -0.163102
| 17> C      -0.107575   -0.729782    0.472482
| 18> C       0.874457   -1.371242   -0.388806
| 19> O       0.757807   -1.651844   -1.540741
| 20> N       2.186075   -1.738360    0.287904
| 21> C       2.036950   -3.110311    0.836657
| 22> C       3.329125   -1.647118   -0.676234
| 23> C       3.518275   -0.215739   -1.104309
| 24> C       3.150333    0.190525   -2.384571
| 25> C       3.332450    1.507276   -2.781003
| 26> C       3.878053    2.397916   -1.872966
| 27> F       4.055073    3.669035   -2.248516
| 28> C       4.246746    2.026930   -0.591344
| 29> C       4.063507    0.705883   -0.211399
| 30> C       0.042006   -0.389295    1.791425
| 31> O       1.141814   -0.621744    2.510453
| 32> C      -1.038654    0.288774    2.497772
| 33> O      -0.908414    0.629362    3.665844
| 34> H      -4.208031    0.984423    2.059991
| 35> H      -3.216600    0.850697    3.537414
| 36> H      -3.044346    2.276100    2.490483
| 37> H      -2.543446    0.009876   -2.300768
| 38> H      -4.302458   -0.225765   -2.306498
| 39> H      -3.246353   -1.429025   -1.545450
| 40> H      -3.819933    2.448305    0.247262
| 41> H      -4.478713    2.066634   -1.347341
| 42> H      -2.730035    2.265034   -1.137697
| 43> H      -5.524577    0.171036   -0.216514
| 44> H      -4.674004   -1.078260    0.409879
| 45> H       2.362710   -1.107205    1.074152
| 46> H       1.820135   -3.793109    0.018975
| 47> H       1.224686   -3.097928    1.558472
| 48> H       2.970047   -3.377827    1.324942
| 49> H       4.203596   -2.024334   -0.144946
| 50> H       3.096726   -2.301125   -1.517835
| 51> H       2.716899   -0.525786   -3.072052
| 52> H       3.054585    1.838254   -3.773529
| 53> H       4.666911    2.753805    0.091324
| 54> H       4.345488    0.388207    0.784944
| 55> H       1.008098   -0.272985    3.418582
| 56> **                         ****END OF INPUT****

CARTESIAN COORDINATES (ANGSTROEM)
---------------------------------
  C     -3.242391    1.204347    2.506963
  N     -2.182483    0.511028    1.764898
  C     -2.274651    0.128328    0.448650
  C     -3.516830    0.388905   -0.394565
  C     -3.390567   -0.365541   -1.728436
  C     -3.642071    1.894121   -0.671664
  N     -4.703175   -0.071779    0.320816
  N     -1.287245   -0.448696   -0.163102
  C     -0.107575   -0.729782    0.472482
  C      0.874457   -1.371242   -0.388806
  O      0.757807   -1.651844   -1.540741
  N      2.186075   -1.738360    0.287904
  C      2.036950   -3.110311    0.836657
  C      3.329125   -1.647118   -0.676234
  C      3.518275   -0.215739   -1.104309
  C      3.150333    0.190525   -2.384571
  C      3.332450    1.507276   -2.781003
  C      3.878053    2.397916   -1.872966
  F      4.055073    3.669035   -2.248516
  C      4.246746    2.026930   -0.591344
  C      4.063507    0.705883   -0.211399
  C      0.042006   -0.389295    1.791425
  O      1.141814   -0.621744    2.510453
  C     -1.038654    0.288774    2.497772
  O     -0.908414    0.629362    3.665844
  H     -4.208031    0.984423    2.059991
  H     -3.216600    0.850697    3.537414
  H     -3.044346    2.276100    2.490483
  H     -2.543446    0.009876   -2.300768
  H     -4.302458   -0.225765   -2.306498
  H     -3.246353   -1.429025   -1.545450
  H     -3.819933    2.448305    0.247262
  H     -4.478713    2.066634   -1.347341
  H     -2.730035    2.265034   -1.137697
  H     -5.524577    0.171036   -0.216514
  H     -4.674004   -1.078260    0.409879
  H      2.362710   -1.107205    1.074152
  H      1.820135   -3.793109    0.018975
  H      1.224686   -3.097928    1.558472
  H      2.970047   -3.377827    1.324942
  H      4.203596   -2.024334   -0.144946
  H      3.096726   -2.301125   -1.517835
  H      2.716899   -0.525786   -3.072052
  H      3.054585    1.838254   -3.773529
  H      4.666911    2.753805    0.091324
  H      4.345488    0.388207    0.784944
  H      1.008098   -0.272985    3.418582

 Total Charge           Charge          ....    1
 Multiplicity           Mult            ....    1
 Number of Electrons    NEL             ....  184
 Basis Dimension        Dim             ....  625

ORBITAL ENERGIES
----------------

  NO   OCC          E(Eh)            E(eV)
   0   2.0000     -24.509687      -666.9425
   1   2.0000     -19.037417      -518.0345
   2   2.0000     -18.993773      -516.8468
   3   2.0000     -18.953709      -515.7567
   4   2.0000     -14.292950      -388.9309
   5   2.0000     -14.252670      -387.8349
   6   2.0000     -14.174562      -385.7094
   7   2.0000     -14.139592      -384.7579
   8   2.0000     -10.193575      -277.3813
   9   2.0000     -10.163847      -276.5723
  10   2.0000     -10.150481      -276.2086
  11   2.0000     -10.134739      -275.7803
  12   2.0000     -10.128276      -275.6044
  13   2.0000     -10.115297      -275.2512
  14   2.0000     -10.095805      -274.7208
  15   2.0000     -10.087605      -274.4977
  16   2.0000     -10.086944      -274.4797
  17   2.0000     -10.059114      -273.7224
  18   2.0000     -10.058590      -273.7081
  19   2.0000     -10.053180      -273.5609
  20   2.0000     -10.052148      -273.5329
  21   2.0000     -10.048783      -273.4413
  22   2.0000     -10.048059      -273.4216
  23   2.0000     -10.022460      -272.7250
  24   2.0000     -10.012974      -272.4669
  25   2.0000      -1.202564       -32.7234
  26   2.0000      -1.093133       -29.7457
  27   2.0000      -1.080997       -29.4154
  28   2.0000      -1.039821       -28.2950
  29   2.0000      -0.981680       -26.7129
  30   2.0000      -0.980888       -26.6913
  31   2.0000      -0.902520       -24.5588
  32   2.0000      -0.870646       -23.6915
  33   2.0000      -0.846411       -23.0320
  34   2.0000      -0.791909       -21.5489
  35   2.0000      -0.763461       -20.7748
  36   2.0000      -0.736151       -20.0317
  37   2.0000      -0.726151       -19.7596
  38   2.0000      -0.724086       -19.7034
  39   2.0000      -0.698553       -19.0086
  40   2.0000      -0.683203       -18.5909
  41   2.0000      -0.660250       -17.9663
  42   2.0000      -0.653820       -17.7913
  43   2.0000      -0.642326       -17.4786
  44   2.0000      -0.611444       -16.6382
  45   2.0000      -0.598157       -16.2767
  46   2.0000      -0.589138       -16.0313
  47   2.0000      -0.579118       -15.7586
  48   2.0000      -0.565233       -15.3808
  49   2.0000      -0.540123       -14.6975
  50   2.0000      -0.527279       -14.3480
  51   2.0000      -0.521379       -14.1875
  52   2.0000      -0.496402       -13.5078
  53   2.0000      -0.489774       -13.3274
  54   2.0000      -0.477905       -13.0045
  55   2.0000      -0.476614       -12.9693
  56   2.0000      -0.471414       -12.8278
  57   2.0000      -0.458251       -12.4696
  58   2.0000      -0.453864       -12.3503
  59   2.0000      -0.443890       -12.0789
  60   2.0000      -0.442399       -12.0383
  61   2.0000      -0.433932       -11.8079
  62   2.0000      -0.430088       -11.7033
  63   2.0000      -0.425383       -11.5753
  64   2.0000      -0.415837       -11.3155
  65   2.0000      -0.415044       -11.2939
  66   2.0000      -0.411910       -11.2086
  67   2.0000      -0.405354       -11.0302
  68   2.0000      -0.397022       -10.8035
  69   2.0000      -0.392398       -10.6777
  70   2.0000      -0.391409       -10.6508
  71   2.0000      -0.383525       -10.4362
  72   2.0000      -0.379881       -10.3371
  73   2.0000      -0.366617        -9.9761
  74   2.0000      -0.363897        -9.9022
  75   2.0000      -0.359645        -9.7864
  76   2.0000      -0.357626        -9.7315
  77   2.0000      -0.351099        -9.5539
  78   2.0000      -0.346289        -9.4230
  79   2.0000      -0.345905        -9.4125
  80   2.0000      -0.342946        -9.3320
  81   2.0000      -0.332445        -9.0463
  82   2.0000      -0.320268        -8.7149
  83   2.0000      -0.316529        -8.6132
  84   2.0000      -0.294913        -8.0250
  85   2.0000      -0.287499        -7.8232
  86   2.0000      -0.268828        -7.3152
  87   2.0000      -0.261487        -7.1154
  88   2.0000      -0.255153        -6.9431
  89   2.0000      -0.238811        -6.4984
  90   2.0000      -0.233295        -6.3483
  91   2.0000      -0.213043        -5.7972
  92   0.0000      -0.133074        -3.6211
  93   0.0000      -0.056068        -1.5257
  94   0.0000      -0.050918        -1.3855
  95   0.0000      -0.045659        -1.2424
  96   0.0000      -0.025211        -0.6860

MULLIKEN ATOMIC CHARGES
-----------------------
   0 C :   -0.481122
   1 N :    0.256722
   2 C :    0.046977
   3 C :    0.231704
   4 C :   -0.581627
   5 C :   -0.521957
   6 N :   -0.693165
   7 N :   -0.133105
   8 C :    0.141991
   9 C :    0.075708
  10 O :   -0.287132
  11 N :   -0.244178
  12 C :   -0.297083
  13 C :   -0.192934
  14 C :    0.036666
  15 C :   -0.158183
  16 C :   -0.301342
  17 C :    0.371074
  18 F :   -0.227665
  19 C :   -0.295870
  20 C :   -0.173813
  21 C :    0.210646
  22 O :   -0.408929
  23 C :    0.145562
  24 O :   -0.479269
  25 H :    0.236804
  26 H :    0.190090
  27 H :    0.206156
  28 H :    0.177632
  29 H :    0.172582
  30 H :    0.177617
  31 H :    0.179318
  32 H :    0.184053
  33 H :    0.186378
  34 H :    0.296676
  35 H :    0.289754
  36 H :    0.410986
  37 H :    0.218480
  38 H :    0.202279
  39 H :    0.213021
  40 H :    0.216981
  41 H :    0.233638
  42 H :    0.194770
  43 H :    0.200293
  44 H :    0.200450
  45 H :    0.195632
  46 H :    0.376734
Sum of atomic charges:    1.0000000

LOEWDIN ATOMIC CHARGES
----------------------
   0 C :   -0.089414
   1 N :   -0.610217
   2 C :    0.385798
   3 C :    0.065413
   4 C :   -0.360760
   5 C :   -0.350633
   6 N :   -0.703582
   7 N :   -0.561511
   8 C :    0.188935
   9 C :    0.430967
  10 O :   -0.324364
  11 N :   -0.724300
  12 C :   -0.069234
  13 C :    0.027441
  14 C :   -0.092783
  15 C :   -0.125217
  16 C :   -0.151729
  17 C :    0.211314
  18 F :   -0.286718
  19 C :   -0.150229
  20 C :   -0.128860
  21 C :    0.304807
  22 O :   -0.455978
  23 C :    0.383376
  24 O :   -0.469509
  25 H :    0.220539
  26 H :    0.206401
  27 H :    0.196991
  28 H :    0.169534
  29 H :    0.163289
  30 H :    0.171051
  31 H :    0.171955
  32 H :    0.172193
  33 H :    0.172915
  34 H :    0.257793
  35 H :    0.255068
  36 H :    0.323686
  37 H :    0.208687
  38 H :    0.207275
  39 H :    0.210939
  40 H :    0.220576
  41 H :    0.223483
  42 H :    0.192955
  43 H :    0.196917
  44 H :    0.196892
  45 H :    0.191740
  46 H :    0.326111

  Mayer bond orders larger than 0.100000
B(  0-C ,  1-N ) :   0.8460 B(  0-C , 25-H ) :   0.9158 B(  0-C , 26-H ) :   0.9378
B(  0-C , 27-H ) :   0.9330 B(  1-N ,  2-C ) :   1.2371 B(  1-N , 23-C ) :   1.1530
B(  2-C ,  3-C ) :   0.8991 B(  2-C ,  7-N ) :   1.7036 B(  2-C , 21-C ) :   0.1044
B(  3-C ,  4-C ) :   0.9671 B(  3-C ,  5-C ) :   0.9325 B(  3-C ,  6-N ) :   0.7589
B(  3-C ,  7-N ) :  -0.1147 B(  4-C , 28-H ) :   0.9782 B(  4-C , 29-H ) :   0.9662
B(  4-C , 30-H ) :   0.9651 B(  5-C , 31-H ) :   0.9447 B(  5-C , 32-H ) :   0.9604
B(  5-C , 33-H ) :   0.9720 B(  6-N , 34-H ) :   0.9113 B(  6-N , 35-H ) :   0.9089
B(  7-N ,  8-C ) :   0.9224 B(  7-N ,  9-C ) :   0.1008 B(  8-C ,  9-C ) :   0.8820
B(  8-C , 11-N ) :   0.1052 B(  8-C , 21-C ) :   1.3959 B(  8-C , 22-O ) :   0.1475
B(  9-C , 10-O ) :   2.1247 B(  9-C , 11-N ) :   0.6865 B( 11-N , 12-C ) :   0.8977
B( 11-N , 13-C ) :   0.8639 B( 11-N , 36-H ) :   0.8030 B( 12-C , 37-H ) :   0.9298
B( 12-C , 38-H ) :   0.9234 B( 12-C , 39-H ) :   0.9321 B( 13-C , 14-C ) :   0.8532
B( 13-C , 40-H ) :   0.9215 B( 13-C , 41-H ) :   0.9571 B( 14-C , 15-C ) :   1.4058
B( 14-C , 20-C ) :   1.3988 B( 15-C , 16-C ) :   1.3836 B( 15-C , 42-H ) :   0.9347
B( 16-C , 17-C ) :   1.3925 B( 16-C , 43-H ) :   0.9341 B( 17-C , 18-F ) :   0.8916
B( 17-C , 19-C ) :   1.3929 B( 19-C , 20-C ) :   1.3825 B( 19-C , 44-H ) :   0.9348
B( 20-C , 45-H ) :   0.9355 B( 21-C , 22-O ) :   0.9113 B( 21-C , 23-C ) :   1.0135
B( 22-O , 46-H ) :   0.8075 B( 23-C , 24-O ) :   1.8260

Dispersion correction           -0.021969798
FINAL SINGLE POINT ENERGY     -1205.233043716925

DIPOLE MOMENT
-------------
                                X             Y             Z
Electronic contribution:     21.81913       6.27308       0.24585
Nuclear contribution   :    -21.03501      -9.28179       1.21664
                        -----------------------------------------
Total Dipole Moment    :      0.78412      -3.00872       1.46249
                        -----------------------------------------
Magnitude (a.u.)       :      3.43600
Magnitude (Debye)      :      8.73361

Rotational constants in cm-1:     0.010251     0.004450     0.004100
Rotational constants in MHz :   307.319050   133.415323   122.924765

                             ****ORCA TERMINATED NORMALLY****
TOTAL RUN TIME: 0 days 0 hours 2 minutes 56 seconds 792 msec
