   * xtb version 6.5.1 (579679a) compiled by 'ehlert@majestix' on 2022-07-11
          program call               : /lustre/hpc/kemi/ree/PhD/git/ReactivityQM/dep/xtb-6.5.1/bin/xtb --gfn 1 /lustre/hpc/kemi/ree/PhD/git/ReactivityQM/calculations/RaltegravirCLI/reac02prodN15/conf03/RaltegravirCLI_reac02prodN15_conf03_gfn1.xyz --opt --vfukui --chrg 1 --uhf 0 --alpb DMSO

   ID    Z sym.   atoms
    1    6 C      1, 3-6, 9, 10, 13-18, 20-22, 24
    2    7 N      2, 7, 8, 12
    3    8 O      11, 23, 25
    4    9 F      19
    5    1 H      26-47

      * Solvation model:               ALPB
        Solvent                        DMSO
        Solvent mass                       7.8130E+01 g/mol
          :  Hamiltonian                  GFN1-xTB          :
 * total energy  :   -79.5030832 Eh     change       -0.8100187E-11 Eh
 * total energy  :   -79.5128890 Eh     change       -0.9805752E-02 Eh
 * total energy  :   -79.5159551 Eh     change       -0.3066100E-02 Eh
 * total energy  :   -79.5166392 Eh     change       -0.6841327E-03 Eh
 * total energy  :   -79.5170224 Eh     change       -0.3831914E-03 Eh
 * total energy  :   -79.5171796 Eh     change       -0.1571590E-03 Eh
 * total energy  :   -79.5173246 Eh     change       -0.1450317E-03 Eh
 * total energy  :   -79.5174654 Eh     change       -0.1407941E-03 Eh
 * total energy  :   -79.5175701 Eh     change       -0.1047119E-03 Eh
 * total energy  :   -79.5176518 Eh     change       -0.8165149E-04 Eh
 * total energy  :   -79.5186510 Eh     change       -0.1408944E-04 Eh
 * total energy  :   -79.5186605 Eh     change       -0.9520119E-05 Eh
 * total energy  :   -79.5186708 Eh     change       -0.1026334E-04 Eh
 * total energy  :   -79.5186812 Eh     change       -0.1038666E-04 Eh
 * total energy  :   -79.5186904 Eh     change       -0.9208942E-05 Eh
 * total energy  :   -79.5187018 Eh     change       -0.1144135E-04 Eh
 * total energy  :   -79.5187131 Eh     change       -0.1131233E-04 Eh
 * total energy  :   -79.5187205 Eh     change       -0.7402977E-05 Eh
 * total energy  :   -79.5187247 Eh     change       -0.4167138E-05 Eh
   *** GEOMETRY OPTIMIZATION CONVERGED AFTER 40 ITERATIONS ***

 final structure:
================
47
 xtb: 6.5.1 (579679a)
C           -3.24239111849841        1.20434711874978        2.50696322094032
N           -2.18248256969440        0.51102801119297        1.76489753119574
C           -2.27465085534262        0.12832836673991        0.44864960243745
C           -3.51682997253291        0.38890540394300       -0.39456472217175
C           -3.39056721597317       -0.36554145057923       -1.72843585911824
C           -3.64207115408226        1.89412108995683       -0.67166421279655
N           -4.70317539503617       -0.07177903023562        0.32081611561077
N           -1.28724457287903       -0.44869641122245       -0.16310204404868
C           -0.10757526652296       -0.72978211584993        0.47248234290296
C            0.87445693582916       -1.37124232275218       -0.38880580500353
O            0.75780693917881       -1.65184361739605       -1.54074141197727
N            2.18607461005594       -1.73836012747338        0.28790393500253
C            2.03695039514738       -3.11031081871796        0.83665692880896
C            3.32912504336035       -1.64711780051735       -0.67623439403968
C            3.51827506996238       -0.21573898340629       -1.10430916247804
C            3.15033325088772        0.19052495452156       -2.38457107285968
C            3.33245001739924        1.50727616603602       -2.78100325930825
C            3.87805276228867        2.39791596735412       -1.87296566969605
F            4.05507331105293        3.66903527163134       -2.24851602957689
C            4.24674587318032        2.02692984442921       -0.59134405399330
C            4.06350659418719        0.70588349423443       -0.21139877384261
C            0.04200585773045       -0.38929537731986        1.79142524060112
O            1.14181368550954       -0.62174396880069        2.51045345084887
C           -1.03865374464905        0.28877370073334        2.49777193702257
O           -0.90841446405409        0.62936156233362        3.66584415312371
H           -4.20803053178593        0.98442299480369        2.05999102375386
H           -3.21659958117315        0.85069686923516        3.53741412535936
H           -3.04434559547720        2.27609991138530        2.49048299868595
H           -2.54344621715188        0.00987590447654       -2.30076846348612
H           -4.30245772998388       -0.22576494198777       -2.30649789299948
H           -3.24635314581942       -1.42902502148887       -1.54545038764917
H           -3.81993253405860        2.44830533751571        0.24726249362258
H           -4.47871316148977        2.06663417694301       -1.34734133169757
H           -2.73003479115513        2.26503385958623       -1.13769678586758
H           -5.52457713222054        0.17103617689241       -0.21651352098546
H           -4.67400370681897       -1.07825980586655        0.40987864740195
H            2.36270965964050       -1.10720484313133        1.07415198517591
H            1.82013548754185       -3.79310908007798        0.01897487368820
H            1.22468583125239       -3.09792795813212        1.55847219588775
H            2.97004653800441       -3.37782740545763        1.32494176086256
H            4.20359582882604       -2.02433388045419       -0.14494569401482
H            3.09672642249352       -2.30112468605095       -1.51783477203732
H            2.71689865688583       -0.52578634199334       -3.07205162618074
H            3.05458539521243        1.83825361194123       -3.77352938065393
H            4.66691130282725        2.75380529867555        0.09132352300304
H            4.34548785750915        0.38820652143230        0.78494355915490
H            1.00809813043872       -0.27298462581876        3.41858168139121

          :  Hamiltonian                  GFN1-xTB          :
         :: total energy             -79.518724716917 Eh    ::
         :: gradient norm              0.000633062945 Eh/a0 ::
         :: HOMO-LUMO gap              1.410294895504 eV    ::
         :: SCC energy               -80.415671263865 Eh    ::
         :: -> Gsolv                  -0.106621750792 Eh    ::
         :: repulsion energy           0.928658099506 Eh    ::

    * Orbital Energies and Occupations

         #    Occupation            Energy/Eh            Energy/eV
      -------------------------------------------------------------
         1        2.0000           -0.8865229             -24.1235
       ...           ...                  ...                  ...
        55        2.0000           -0.5200723             -14.1519
        56        2.0000           -0.5135279             -13.9738
        57        2.0000           -0.5106857             -13.8965
        58        2.0000           -0.5075222             -13.8104
        59        2.0000           -0.5022389             -13.6666
        60        2.0000           -0.4906934             -13.3524
        61        2.0000           -0.4900612             -13.3352
        62        2.0000           -0.4800680             -13.0633
        63        2.0000           -0.4693171             -12.7708
        64        2.0000           -0.4681983             -12.7403
        65        2.0000           -0.4575246             -12.4499
        66        2.0000           -0.4527789             -12.3207
        67        2.0000           -0.4230478             -11.5117 (HOMO)
        68                         -0.3712204             -10.1014 (LUMO)
        69                         -0.3045510              -8.2873
        70                         -0.2913167              -7.9271
        71                         -0.2888684              -7.8605
        72                         -0.2809138              -7.6441
        73                         -0.1876053              -5.1050
        74                         -0.1687944              -4.5931
        75                         -0.1660618              -4.5188
        76                         -0.1493148              -4.0631
        77                         -0.1469799              -3.9995
        78                         -0.1446539              -3.9362
       ...                                ...                  ...
       144                          0.7197701              19.5859
      -------------------------------------------------------------
                  HL-Gap            0.0518274 Eh            1.4103 eV

Wiberg/Mayer (AO) data.
largest (>0.10) Wiberg bond orders for each atom

     #   Z sym  total        # sym  WBO       # sym  WBO       # sym  WBO
 ---------------------------------------------------------------------------
     1   6 C    3.905 --    27 H    0.975    28 H    0.973    26 H    0.965
                             2 N    0.918
     2   7 N    3.531 --     3 C    1.172    24 C    1.152     1 C    0.918
                            25 O    0.143
     3   6 C    3.912 --     8 N    1.564     2 N    1.172     4 C    0.975
     4   6 C    3.963 --     5 C    0.991     7 N    0.982     6 C    0.981
                             3 C    0.975
     5   6 C    3.993 --     4 C    0.991    30 H    0.985    31 H    0.984
                            29 H    0.983
     6   6 C    3.992 --    34 H    0.986    32 H    0.982    33 H    0.982
                             4 C    0.981
     7   7 N    2.995 --     4 C    0.982    36 H    0.938    35 H    0.935
     8   7 N    3.027 --     3 C    1.564     9 C    1.175
     9   6 C    3.966 --    22 C    1.450     8 N    1.175    10 C    1.085
    10   6 C    3.853 --    11 O    1.794     9 C    1.085    12 N    0.841
    11   8 O    2.051 --    10 C    1.794
    12   7 N    3.607 --    13 C    0.901    14 C    0.885    37 H    0.867
                            10 C    0.841
    13   6 C    3.891 --    38 H    0.984    39 H    0.980    40 H    0.979
                            12 N    0.901
    14   6 C    3.898 --    15 C    1.005    42 H    0.972    41 H    0.969
                            12 N    0.885
    15   6 C    3.984 --    16 C    1.418    21 C    1.413    14 C    1.005
    16   6 C    3.992 --    17 C    1.445    15 C    1.418    43 H    0.968
                            20 C    0.109
    17   6 C    3.991 --    16 C    1.445    18 C    1.398    44 H    0.968
                            21 C    0.110
    18   6 C    3.865 --    17 C    1.398    20 C    1.395    19 F    0.938
    19   9 F    1.070 --    18 C    0.938
    20   6 C    3.991 --    21 C    1.448    18 C    1.395    45 H    0.967
                            16 C    0.109
    21   6 C    3.994 --    20 C    1.448    15 C    1.413    46 H    0.969
                            17 C    0.110
    22   6 C    3.912 --     9 C    1.450    23 O    1.112    24 C    1.061
    23   8 O    2.111 --    22 C    1.112    47 H    0.773
    24   6 C    3.923 --    25 O    1.568     2 N    1.152    22 C    1.061
    25   8 O    1.914 --    24 C    1.568     2 N    0.143
    26   1 H    1.026 --     1 C    0.965
    27   1 H    1.004 --     1 C    0.975
    28   1 H    1.000 --     1 C    0.973
    29   1 H    1.010 --     5 C    0.983
    30   1 H    1.002 --     5 C    0.985
    31   1 H    1.008 --     5 C    0.984
    32   1 H    1.003 --     6 C    0.982
    33   1 H    0.998 --     6 C    0.982
    34   1 H    1.002 --     6 C    0.986
    35   1 H    0.950 --     7 N    0.935
    36   1 H    0.953 --     7 N    0.938
    37   1 H    0.941 --    12 N    0.867
    38   1 H    0.992 --    13 C    0.984
    39   1 H    0.995 --    13 C    0.980
    40   1 H    0.990 --    13 C    0.979
    41   1 H    0.995 --    14 C    0.969
    42   1 H    1.000 --    14 C    0.972
    43   1 H    1.001 --    16 C    0.968
    44   1 H    0.996 --    17 C    0.968
    45   1 H    0.995 --    20 C    0.967
    46   1 H    0.995 --    21 C    0.969
    47   1 H    0.819 --    23 O    0.773
 ---------------------------------------------------------------------------

           -------------------------------------------------
          | TOTAL ENERGY              -79.518724716917 Eh   |
          | GRADIENT NORM               0.000633062945 Eh/α |
          | HOMO-LUMO GAP               1.410294895504 eV   |
           -------------------------------------------------

 * finished run on 2023/06/20 at 15:37:50.212
