   * xtb version 6.5.1 (579679a) compiled by 'ehlert@majestix' on 2022-07-11
          program call               : /lustre/hpc/kemi/ree/PhD/git/ReactivityQM/dep/xtb-6.5.1/bin/xtb --gfn 1 /lustre/hpc/kemi/ree/PhD/git/ReactivityQM/calculations/R02deprot/reac01prodN06/conf04/R02deprot_reac01prodN06_conf04_gfn1.xyz --opt --vfukui --chrg 0 --uhf 0 --alpb DMSO

   ID    Z sym.   atoms
    1    6 C      1, 3, 5, 6, 8, 11-14, 16, 18, 21, 22, 25
    2    8 O      2, 4, 7, 9, 17, 23
    3    7 N      10, 15, 19, 20, 24
    4    1 H      26-42

      * Solvation model:               ALPB
        Solvent                        DMSO
        Solvent mass                       7.8130E+01 g/mol
          :  Hamiltonian                  GFN1-xTB          :
 * total energy  :   -82.9756761 Eh     change       -0.2196998E-10 Eh
 * total energy  :   -82.9886566 Eh     change       -0.1298055E-01 Eh
 * total energy  :   -82.9934726 Eh     change       -0.4815992E-02 Eh
 * total energy  :   -82.9945896 Eh     change       -0.1117036E-02 Eh
 * total energy  :   -82.9954584 Eh     change       -0.8687415E-03 Eh
 * total energy  :   -82.9959218 Eh     change       -0.4634407E-03 Eh
 * total energy  :   -82.9962390 Eh     change       -0.3172098E-03 Eh
 * total energy  :   -82.9964914 Eh     change       -0.2523310E-03 Eh
 * total energy  :   -82.9966963 Eh     change       -0.2049812E-03 Eh
 * total energy  :   -82.9968812 Eh     change       -0.1848979E-03 Eh
 * total energy  :   -82.9981506 Eh     change       -0.1783597E-04 Eh
 * total energy  :   -82.9981674 Eh     change       -0.1674577E-04 Eh
 * total energy  :   -82.9981787 Eh     change       -0.1135321E-04 Eh
 * total energy  :   -82.9981868 Eh     change       -0.8099351E-05 Eh
 * total energy  :   -82.9981914 Eh     change       -0.4634231E-05 Eh
 * total energy  :   -82.9982013 Eh     change       -0.9877996E-05 Eh
 * total energy  :   -82.9982089 Eh     change       -0.7549771E-05 Eh
 * total energy  :   -82.9982167 Eh     change       -0.7817205E-05 Eh
 * total energy  :   -82.9982206 Eh     change       -0.3882047E-05 Eh
   *** GEOMETRY OPTIMIZATION CONVERGED AFTER 37 ITERATIONS ***

 final structure:
================
42
 xtb: 6.5.1 (579679a)
C           -4.99211229990227        2.72782596031494       -0.58689319109975
O           -4.09799926632542        2.00234474480026        0.27407919216546
C           -3.34060816483632        1.07586717225500       -0.31909093398212
O           -3.42215889041972        0.83438010161403       -1.50095837489550
C           -2.45346638026330        0.36413960896615        0.64479584136455
C           -2.77069526754018        0.19486971064447        1.96518543244368
O           -3.82652734961226        0.72905626743144        2.58367238765419
C           -1.94492701690035       -0.67990656808999        2.82927172321773
O           -2.17303073852000       -0.83471739158328        4.01872975562964
N           -0.91324490158027       -1.31964812936829        2.18999287570107
C           -0.60780031310500       -1.10768633680821        0.94431138113448
C            0.57730309297822       -1.93226687588685        0.43324845762498
C            1.15463258922617       -2.76781247544357        1.58591355302431
C            0.11914158744171       -2.86925438820930       -0.69373985112274
N            1.62461316849488       -1.00423601226805       -0.01658594833156
C            2.76032136703453       -1.41244359804700       -0.62891925542115
O            2.99797326542338       -2.54717616692864       -1.00284355850242
C            3.71893827192557       -0.29798747349701       -0.83484893086785
N            4.90687710101258       -0.35925892701542       -1.35084507535510
N            5.41321723968519        0.90545649418296       -1.32482632180373
C            4.50363351454728        1.66189291685755       -0.79425482212652
C            4.56445707242630        3.11926536038713       -0.55010285580000
O            3.40645864395143        0.96196549207098       -0.45916852584108
N           -1.30952845829085       -0.26935403583510        0.14494455343563
C           -0.87332684138109        0.08360695373134       -1.20918926662382
H           -5.74217604541289        2.04936940854046       -0.99733327037358
H           -5.46103640900655        3.49120805377270        0.02866722349118
H           -4.42620678080929        3.18435248889718       -1.40071029179034
H           -4.33504887413438        1.33702052660493        2.02197326187264
H            2.01068803366508       -3.33532434350526        1.22485434991331
H            1.47248316316401       -2.11713655573939        2.39875942185060
H            0.39943903432210       -3.45749550275707        1.95857556467717
H           -0.81342031412654       -3.34884077896417       -0.39884114464536
H           -0.04000171223069       -2.33132968265619       -1.62397767143189
H            0.86863636652453       -3.63927635469528       -0.86741158503999
H            1.62054613331911       -0.08128414357949        0.38580588768136
H            4.42613441333007        3.32596558885394        0.51149655281963
H            3.76486784273475        3.62048597128331       -1.09623398911365
H            5.52746956662810        3.50547310131989       -0.87641137487666
H           -1.01661793183598        1.15115478665702       -1.35747746148490
H            0.18006462506225       -0.14397992973518       -1.32700538896751
H           -1.45796213666742       -0.46928203857328       -1.94330432620673

          :  Hamiltonian                  GFN1-xTB          :
         :: total energy             -82.998220576861 Eh    ::
         :: gradient norm              0.000946739418 Eh/a0 ::
         :: HOMO-LUMO gap              2.825062236013 eV    ::
         :: SCC energy               -83.777824673417 Eh    ::
         :: -> Gsolv                  -0.065239022700 Eh    ::
         :: repulsion energy           0.806383585989 Eh    ::

    * Orbital Energies and Occupations

         #    Occupation            Energy/Eh            Energy/eV
      -------------------------------------------------------------
         1        2.0000           -0.8665566             -23.5802
       ...           ...                  ...                  ...
        55        2.0000           -0.5048349             -13.7373
        56        2.0000           -0.5040836             -13.7168
        57        2.0000           -0.4984166             -13.5626
        58        2.0000           -0.4894406             -13.3184
        59        2.0000           -0.4809505             -13.0873
        60        2.0000           -0.4747697             -12.9191
        61        2.0000           -0.4710963             -12.8192
        62        2.0000           -0.4665635             -12.6958
        63        2.0000           -0.4606133             -12.5339
        64        2.0000           -0.4530385             -12.3278
        65        2.0000           -0.4481090             -12.1937
        66        2.0000           -0.4258475             -11.5879
        67        2.0000           -0.4247718             -11.5586 (HOMO)
        68                         -0.3209527              -8.7336 (LUMO)
        69                         -0.3125741              -8.5056
        70                         -0.2926343              -7.9630
        71                         -0.2575909              -7.0094
        72                         -0.2417950              -6.5796
        73                         -0.2005280              -5.4566
        74                         -0.1650166              -4.4903
        75                         -0.1424399              -3.8760
        76                         -0.1384897              -3.7685
        77                         -0.1370214              -3.7285
        78                         -0.1242690              -3.3815
       ...                                ...                  ...
       134                          0.7298733              19.8609
      -------------------------------------------------------------
                  HL-Gap            0.1038191 Eh            2.8251 eV

Wiberg/Mayer (AO) data.
largest (>0.10) Wiberg bond orders for each atom

     #   Z sym  total        # sym  WBO       # sym  WBO       # sym  WBO
 ---------------------------------------------------------------------------
     1   6 C    3.854 --    27 H    0.985    26 H    0.979    28 H    0.979
                             2 O    0.879
     2   8 O    2.215 --     3 C    1.105     1 C    0.879     4 O    0.129
     3   6 C    3.853 --     4 O    1.654     2 O    1.105     5 C    1.010
     4   8 O    1.947 --     3 C    1.654     2 O    0.129
     5   6 C    3.924 --     6 C    1.524    24 N    1.081     3 C    1.010
     6   6 C    3.910 --     5 C    1.524     7 O    1.115     8 C    1.024
     7   8 O    2.093 --     6 C    1.115    29 H    0.800
     8   6 C    3.917 --     9 O    1.607    10 N    1.152     6 C    1.024
     9   8 O    1.886 --     8 C    1.607
    10   7 N    3.014 --    11 C    1.516     8 C    1.152
    11   6 C    3.931 --    10 N    1.516    24 N    1.256    12 C    0.970
    12   6 C    3.931 --    13 C    0.991    14 C    0.986    11 C    0.970
                            15 N    0.919
    13   6 C    3.989 --    12 C    0.991    32 H    0.984    31 H    0.984
                            30 H    0.983
    14   6 C    3.988 --    12 C    0.986    33 H    0.985    34 H    0.981
                            35 H    0.978
    15   7 N    3.345 --    16 C    1.239    12 C    0.919    36 H    0.895
                            17 O    0.172
    16   6 C    3.915 --    17 O    1.595    15 N    1.239    18 C    0.993
    17   8 O    1.910 --    16 C    1.595    15 N    0.172
    18   6 C    3.872 --    19 N    1.623    23 O    1.046    16 C    0.993
    19   7 N    3.000 --    18 C    1.623    20 N    1.199
    20   7 N    2.982 --    21 C    1.611    19 N    1.199
    21   6 C    3.868 --    20 N    1.611    23 O    1.071    22 C    1.032
    22   6 C    3.986 --    21 C    1.032    39 H    0.982    37 H    0.963
                            38 H    0.962
    23   8 O    2.315 --    21 C    1.071    18 C    1.046
    24   7 N    3.521 --    11 C    1.256     5 C    1.081    25 C    0.923
    25   6 C    3.918 --    40 H    0.978    42 H    0.973    41 H    0.973
                            24 N    0.923
    26   1 H    1.005 --     1 C    0.979
    27   1 H    1.008 --     1 C    0.985
    28   1 H    1.006 --     1 C    0.979
    29   1 H    0.852 --     7 O    0.800
    30   1 H    1.006 --    13 C    0.983
    31   1 H    1.011 --    13 C    0.984
    32   1 H    1.010 --    13 C    0.984
    33   1 H    1.001 --    14 C    0.985
    34   1 H    1.001 --    14 C    0.981
    35   1 H    1.012 --    14 C    0.978
    36   1 H    0.939 --    15 N    0.895
    37   1 H    0.997 --    22 C    0.963
    38   1 H    0.996 --    22 C    0.962
    39   1 H    0.998 --    22 C    0.982
    40   1 H    1.002 --    25 C    0.978
    41   1 H    1.008 --    25 C    0.973
    42   1 H    1.011 --    25 C    0.973
 ---------------------------------------------------------------------------

           -------------------------------------------------
          | TOTAL ENERGY              -82.998220576861 Eh   |
          | GRADIENT NORM               0.000946739418 Eh/α |
          | HOMO-LUMO GAP               2.825062236013 eV   |
           -------------------------------------------------

 * finished run on 2023/06/20 at 18:12:27.620
