   * xtb version 6.5.1 (579679a) compiled by 'ehlert@majestix' on 2022-07-11
          program call               : /lustre/hpc/kemi/ree/PhD/git/ReactivityQM/dep/xtb-6.5.1/bin/xtb --gfn 1 /lustre/hpc/kemi/ree/PhD/git/ReactivityQM/calculations/R03/reac02prodN07/conf05/R03_reac02prodN07_conf05_gfn1.xyz --opt --vfukui --chrg 1 --uhf 0 --alpb DMSO

   ID    Z sym.   atoms
    1    6 C      1, 3, 5, 7-10, 12, 14, 17-19, 22, 23, 25
    2    8 O      2, 4, 13, 20, 24, 26
    3    7 N      6, 11, 15, 16, 21
    4    1 H      27-46

      * Solvation model:               ALPB
        Solvent                        DMSO
        Solvent mass                       7.8130E+01 g/mol
          :  Hamiltonian                  GFN1-xTB          :
 * total energy  :   -86.3385041 Eh     change       -0.1983835E-10 Eh
 * total energy  :   -86.3557039 Eh     change       -0.1719986E-01 Eh
 * total energy  :   -86.3612138 Eh     change       -0.5509864E-02 Eh
 * total energy  :   -86.3621579 Eh     change       -0.9441446E-03 Eh
 * total energy  :   -86.3626728 Eh     change       -0.5148390E-03 Eh
 * total energy  :   -86.3628730 Eh     change       -0.2001867E-03 Eh
 * total energy  :   -86.3631015 Eh     change       -0.2285018E-03 Eh
 * total energy  :   -86.3633015 Eh     change       -0.2000668E-03 Eh
 * total energy  :   -86.3634569 Eh     change       -0.1553911E-03 Eh
 * total energy  :   -86.3635527 Eh     change       -0.9582387E-04 Eh
 * total energy  :   -86.3640740 Eh     change       -0.7260372E-05 Eh
 * total energy  :   -86.3640813 Eh     change       -0.7335193E-05 Eh
 * total energy  :   -86.3640868 Eh     change       -0.5561954E-05 Eh
 * total energy  :   -86.3640958 Eh     change       -0.8975791E-05 Eh
 * total energy  :   -86.3641094 Eh     change       -0.1356261E-04 Eh
 * total energy  :   -86.3641179 Eh     change       -0.8538101E-05 Eh
 * total energy  :   -86.3641250 Eh     change       -0.7042233E-05 Eh
 * total energy  :   -86.3641332 Eh     change       -0.8198965E-05 Eh
 * total energy  :   -86.3641378 Eh     change       -0.4606887E-05 Eh
   *** GEOMETRY OPTIMIZATION CONVERGED AFTER 37 ITERATIONS ***

 final structure:
================
46
 xtb: 6.5.1 (579679a)
C            6.24727122940949        2.06669069690899        2.25619378415773
O            5.32417062292437        1.75897465841997        1.20629305929521
C            4.33076751005122        0.92915977259100        1.51215678059981
O            4.18865771175642        0.43657185968807        2.60801973786831
C            3.40864527906248        0.66781117682197        0.36715296266971
N            2.40201293552227       -0.21296241907921        0.65764393414968
C            1.50337740622056       -0.53583354301213       -0.21145936558418
C            0.46494268854485       -1.54962806949036        0.25029791325323
C            0.65382346651739       -2.87767108076260       -0.49486182731574
C            0.60456896010965       -1.77357002723310        1.76188770623944
N           -0.87234711982112       -0.97569354633788       -0.00076768689698
C           -2.01232429533525       -1.65450063679584        0.19014289692399
O           -2.13539084999015       -2.81547605895908        0.51527905703993
C           -3.22692117013405       -0.80733553834500       -0.07929538648990
N           -4.46964150934270       -1.16812875609451        0.01367766928231
N           -5.17537720433426       -0.08139891404181       -0.34819130251694
C           -6.62494661852251       -0.12187536249701       -0.35444853619111
C           -4.36048676887069        0.90765943446730       -0.64886811465796
C           -4.68036906355880        2.26799905406237       -1.10842062068752
O           -3.12509407834316        0.47469519483056       -0.48721926496796
N            1.51351692097954       -0.02633359734699       -1.48665674461460
C            0.55181333139165       -0.33503924299131       -2.54601847847603
C            2.49556103341408        0.86220340175519       -1.88908099046703
O            2.52991271791737        1.32138529331368       -3.02500366858783
C            3.48377907113128        1.22000677886242       -0.88092488598872
O            4.41577797734616        2.08989456520492       -1.27955713264821
H            6.98117505694252        2.75050487957306        1.83386505347287
H            6.73463113533280        1.15361616284259        2.60689132511127
H            5.72199555450135        2.53966200799179        3.08943769620427
H            0.03358152716262       -3.65165920345166       -0.04730853236201
H            1.69860098519173       -3.17662959055421       -0.41856108349632
H            0.39036033794320       -2.78449683871895       -1.54473338016923
H            1.59041857820195       -2.18023535178035        1.98161340377087
H           -0.15686253668430       -2.47435491681486        2.09875388142278
H            0.48495008284406       -0.82964600349677        2.29040278124428
H           -0.92859067085539        0.01771833534528       -0.14635510450284
H           -6.98495249743887        0.35388072603106       -1.26357398525009
H           -6.93104441587482       -1.16453696484311       -0.31703146310435
H           -6.99737030698365        0.41363137194913        0.51841836253247
H           -4.85727692967959        2.25380556761617       -2.18678022117764
H           -3.84143285175058        2.93063242365272       -0.90322340930027
H           -5.58198433299530        2.63184996607590       -0.61818946937641
H            0.25458060131424        0.60576938526934       -3.00894512179720
H           -0.32007718147411       -0.83559612858897       -2.14625840331270
H            1.03949277658995       -0.96102296661182       -3.29396193668856
H            4.23410490368823        2.33950204454627       -2.20518688860878

          :  Hamiltonian                  GFN1-xTB          :
         :: total energy             -86.364137774147 Eh    ::
         :: gradient norm              0.000906709956 Eh/a0 ::
         :: HOMO-LUMO gap              2.001211557820 eV    ::
         :: SCC energy               -87.209476951666 Eh    ::
         :: -> Gsolv                  -0.129248257751 Eh    ::
         :: repulsion energy           0.873720228789 Eh    ::

    * Orbital Energies and Occupations

         #    Occupation            Energy/Eh            Energy/eV
      -------------------------------------------------------------
         1        2.0000           -0.9411405             -25.6097
       ...           ...                  ...                  ...
        58        2.0000           -0.5259623             -14.3122
        59        2.0000           -0.5216820             -14.1957
        60        2.0000           -0.5183749             -14.1057
        61        2.0000           -0.5157639             -14.0346
        62        2.0000           -0.5120381             -13.9333
        63        2.0000           -0.4988147             -13.5734
        64        2.0000           -0.4942087             -13.4481
        65        2.0000           -0.4890351             -13.3073
        66        2.0000           -0.4818833             -13.1127
        67        2.0000           -0.4775131             -12.9938
        68        2.0000           -0.4649384             -12.6516
        69        2.0000           -0.4539073             -12.3514
        70        2.0000           -0.4357353             -11.8570 (HOMO)
        71                         -0.3621921              -9.8557 (LUMO)
        72                         -0.3461451              -9.4191
        73                         -0.3282729              -8.9328
        74                         -0.2922274              -7.9519
        75                         -0.2453929              -6.6775
        76                         -0.2446050              -6.6560
        77                         -0.1853903              -5.0447
        78                         -0.1733506              -4.7171
        79                         -0.1629164              -4.4332
        80                         -0.1490770              -4.0566
        81                         -0.1392243              -3.7885
       ...                                ...                  ...
       144                          0.7280768              19.8120
      -------------------------------------------------------------
                  HL-Gap            0.0735432 Eh            2.0012 eV

Wiberg/Mayer (AO) data.
largest (>0.10) Wiberg bond orders for each atom

     #   Z sym  total        # sym  WBO       # sym  WBO       # sym  WBO
 ---------------------------------------------------------------------------
     1   6 C    3.870 --    27 H    0.986    29 H    0.980    28 H    0.980
                             2 O    0.895
     2   8 O    2.206 --     3 C    1.119     1 C    0.895     4 O    0.136
     3   6 C    3.852 --     4 O    1.658     2 O    1.119     5 C    0.996
     4   8 O    1.920 --     3 C    1.658     2 O    0.136
     5   6 C    3.962 --    25 C    1.494     6 N    1.184     3 C    0.996
     6   7 N    3.036 --     7 C    1.583     5 C    1.184
     7   6 C    3.933 --     6 N    1.583    21 N    1.164     8 C    0.976
     8   6 C    3.918 --    10 C    0.989     9 C    0.983     7 C    0.976
                            11 N    0.903
     9   6 C    3.985 --     8 C    0.983    31 H    0.983    32 H    0.981
                            30 H    0.978
    10   6 C    3.986 --     8 C    0.989    35 H    0.984    34 H    0.983
                            33 H    0.982
    11   7 N    3.380 --    12 C    1.285     8 C    0.903    36 H    0.890
                            13 O    0.195
    12   6 C    3.925 --    13 O    1.611    11 N    1.285    14 C    0.955
    13   8 O    1.939 --    12 C    1.611    11 N    0.195
    14   6 C    3.840 --    15 N    1.619    20 O    1.051    12 C    0.955
    15   7 N    2.985 --    14 C    1.619    16 N    1.151
    16   7 N    3.631 --    18 C    1.427    15 N    1.151    17 C    0.908
    17   6 C    3.883 --    38 H    0.977    37 H    0.974    39 H    0.965
                            16 N    0.908
    18   6 C    3.839 --    16 N    1.427    20 O    1.144    19 C    1.042
    19   6 C    3.960 --    18 C    1.042    41 H    0.966    42 H    0.962
                            40 H    0.932
    20   8 O    2.372 --    18 C    1.144    14 C    1.051
    21   7 N    3.508 --     7 C    1.164    23 C    1.129    22 C    0.927
                            24 O    0.135
    22   6 C    3.919 --    44 H    0.979    45 H    0.974    43 H    0.974
                            21 N    0.927
    23   6 C    3.914 --    24 O    1.562    21 N    1.129    25 C    1.073
    24   8 O    1.904 --    23 C    1.562    21 N    0.135
    25   6 C    3.922 --     5 C    1.494    26 O    1.112    23 C    1.073
    26   8 O    2.089 --    25 C    1.112    46 H    0.803
    27   1 H    1.010 --     1 C    0.986
    28   1 H    1.007 --     1 C    0.980
    29   1 H    1.007 --     1 C    0.980
    30   1 H    1.007 --     9 C    0.978
    31   1 H    1.000 --     9 C    0.983
    32   1 H    1.000 --     9 C    0.981
    33   1 H    1.009 --    10 C    0.982
    34   1 H    1.003 --    10 C    0.983
    35   1 H    1.007 --    10 C    0.984
    36   1 H    0.931 --    11 N    0.890
    37   1 H    0.989 --    17 C    0.974
    38   1 H    0.992 --    17 C    0.977
    39   1 H    0.989 --    17 C    0.965
    40   1 H    0.983 --    19 C    0.932
    41   1 H    0.985 --    19 C    0.966
    42   1 H    0.987 --    19 C    0.962
    43   1 H    1.004 --    22 C    0.974
    44   1 H    1.007 --    22 C    0.979
    45   1 H    1.000 --    22 C    0.974
    46   1 H    0.845 --    26 O    0.803
 ---------------------------------------------------------------------------

           -------------------------------------------------
          | TOTAL ENERGY              -86.364137774147 Eh   |
          | GRADIENT NORM               0.000906709956 Eh/α |
          | HOMO-LUMO GAP               2.001211557820 eV   |
           -------------------------------------------------

 * finished run on 2023/06/20 at 15:42:23.223
