   * xtb version 6.5.1 (579679a) compiled by 'ehlert@majestix' on 2022-07-11
          program call               : /lustre/hpc/kemi/ree/PhD/git/ReactivityQM/dep/xtb-6.5.1/bin/xtb --gfn 1 /lustre/hpc/kemi/ree/PhD/git/ReactivityQM/calculations/RaltegravirCLI/reac01prodE02/conf04/RaltegravirCLI_reac01prodE02_conf04_gfn1.xyz --opt --vfukui --chrg -1 --uhf 0 --alpb DMSO

   ID    Z sym.   atoms
    1    6 C      1-3, 6, 7
    2    7 N      4, 5
    3    8 O      8, 10
    4   17 Cl     9
    5    1 H      11-16

      * Solvation model:               ALPB
        Solvent                        DMSO
        Solvent mass                       7.8130E+01 g/mol
          :  Hamiltonian                  GFN1-xTB          :
 * total energy  :   -34.1646810 Eh     change       -0.1894307E-10 Eh
 * total energy  :   -34.1688109 Eh     change       -0.4129869E-02 Eh
 * total energy  :   -34.1708711 Eh     change       -0.2060237E-02 Eh
 * total energy  :   -34.1712223 Eh     change       -0.3512029E-03 Eh
 * total energy  :   -34.1714337 Eh     change       -0.2114456E-03 Eh
 * total energy  :   -34.1714662 Eh     change       -0.3241205E-04 Eh
 * total energy  :   -34.1714768 Eh     change       -0.1063849E-04 Eh
 * total energy  :   -34.1714802 Eh     change       -0.3373672E-05 Eh
   *** GEOMETRY OPTIMIZATION CONVERGED AFTER 8 ITERATIONS ***

 final structure:
================
16
 xtb: 6.5.1 (579679a)
C           -1.52614883626960       -0.80374388499051        0.89550450133171
C           -0.63427040508135        0.04308774448363       -0.02145141116040
C           -1.33717358279175        1.33820192503461       -0.44807444023331
N           -0.28087015942868       -0.73945836533508       -1.21951783657984
N            0.98825483122987       -0.87342592300404       -1.25404027284684
C            1.56860220897033       -0.26647840759943       -0.20289899387307
C            2.91042810006074       -0.19557313102478        0.10285061178154
O            3.51865338145421        0.32305285839313        1.02370657542253
Cl           3.91650613317504       -1.07696517150836       -1.17666128879191
O            0.59846586332508        0.33367027641710        0.61637539768709
H           -1.76854788473463       -0.24714923417641        1.79863941222955
H           -0.99910280023840       -1.71616791794280        1.16978592777126
H           -2.44508096860311       -1.06485704214785        0.37526996005893
H           -1.59008076783328        1.93294725844010        0.42746624368088
H           -0.67387788608241        1.91460927150885       -1.09099936509211
H           -2.24575522715206        1.09824874345179       -0.99595602138603

          :  Hamiltonian                  GFN1-xTB          :
         :: total energy             -34.171480172928 Eh    ::
         :: gradient norm              0.000749591986 Eh/a0 ::
         :: HOMO-LUMO gap              2.085607944854 eV    ::
         :: SCC energy               -34.430209615077 Eh    ::
         :: -> Gsolv                  -0.086989860758 Eh    ::
         :: repulsion energy           0.266296047385 Eh    ::

    * Orbital Energies and Occupations

         #    Occupation            Energy/Eh            Energy/eV
      -------------------------------------------------------------
         1        2.0000           -0.8705532             -23.6890
       ...           ...                  ...                  ...
        16        2.0000           -0.5165617             -14.0564
        17        2.0000           -0.5018066             -13.6549
        18        2.0000           -0.4945060             -13.4562
        19        2.0000           -0.4921934             -13.3933
        20        2.0000           -0.4830722             -13.1451
        21        2.0000           -0.4614081             -12.5556
        22        2.0000           -0.4567113             -12.4277
        23        2.0000           -0.4520401             -12.3006
        24        2.0000           -0.4486287             -12.2078
        25        2.0000           -0.4377860             -11.9128
        26        2.0000           -0.4280041             -11.6466
        27        2.0000           -0.3890540             -10.5867
        28        2.0000           -0.3415205              -9.2932 (HOMO)
        29                         -0.2648758              -7.2076 (LUMO)
        30                         -0.1780818              -4.8459
        31                         -0.1490634              -4.0562
        32                         -0.1103336              -3.0023
        33                         -0.1047443              -2.8502
        34                         -0.0633610              -1.7241
        35                         -0.0521886              -1.4201
        36                         -0.0341574              -0.9295
        37                         -0.0319164              -0.8685
        38                         -0.0021186              -0.0576
        39                         -0.0017674              -0.0481
       ...                                ...                  ...
        57                          0.7660661              20.8457
      -------------------------------------------------------------
                  HL-Gap            0.0766447 Eh            2.0856 eV

Wiberg/Mayer (AO) data.
largest (>0.10) Wiberg bond orders for each atom

     #   Z sym  total        # sym  WBO       # sym  WBO       # sym  WBO
 ---------------------------------------------------------------------------
     1   6 C    3.995 --    13 H    0.987    11 H    0.986    12 H    0.985
                             2 C    0.979
     2   6 C    3.898 --     3 C    0.979     1 C    0.979     4 N    0.972
                            10 O    0.927
     3   6 C    3.995 --    16 H    0.987    14 H    0.986    15 H    0.985
                             2 C    0.979
     4   7 N    2.947 --     5 N    1.585     2 C    0.972     7 C    0.118
                             6 C    0.116
     5   7 N    3.027 --     4 N    1.585     6 C    1.294
     6   6 C    3.856 --     7 C    1.357     5 N    1.294    10 O    0.936
                             4 N    0.116     8 O    0.109
     7   6 C    3.899 --     8 O    1.594     6 C    1.357     9 Cl   0.758
                             4 N    0.118
     8   8 O    1.949 --     7 C    1.594     9 Cl   0.116     6 C    0.109
     9  17 Cl   0.927 --     7 C    0.758     8 O    0.116
    10   8 O    2.057 --     6 C    0.936     2 C    0.927
    11   1 H    1.007 --     1 C    0.986
    12   1 H    1.011 --     1 C    0.985
    13   1 H    1.008 --     1 C    0.987
    14   1 H    1.006 --     3 C    0.986
    15   1 H    1.011 --     3 C    0.985
    16   1 H    1.008 --     3 C    0.987
 ---------------------------------------------------------------------------

           -------------------------------------------------
          | TOTAL ENERGY              -34.171480172928 Eh   |
          | GRADIENT NORM               0.000749591986 Eh/α |
          | HOMO-LUMO GAP               2.085607944854 eV   |
           -------------------------------------------------

 * finished run on 2023/06/20 at 14:52:31.130
