   * xtb version 6.5.1 (579679a) compiled by 'ehlert@majestix' on 2022-07-11
          program call               : /lustre/hpc/kemi/ree/PhD/git/ReactivityQM/dep/xtb-6.5.1/bin/xtb --gfn 1 /lustre/hpc/kemi/ree/PhD/git/ReactivityQM/calculations/RaltegravirCLI/reac02prodE01/conf16/RaltegravirCLI_reac02prodE01_conf16_gfn1.xyz --opt --vfukui --chrg -1 --uhf 0 --alpb DMSO

   ID    Z sym.   atoms
    1    6 C      1, 3-6, 9-11, 14-18, 20-22, 24
    2    7 N      2, 7, 8, 13
    3    8 O      12, 23, 25
    4    9 F      19
    5    1 H      26-47

      * Solvation model:               ALPB
        Solvent                        DMSO
        Solvent mass                       7.8130E+01 g/mol
          :  Hamiltonian                  GFN1-xTB          :
 * total energy  :   -80.1868642 Eh     change       -0.9109158E-11 Eh
 * total energy  :   -80.1973199 Eh     change       -0.1045572E-01 Eh
 * total energy  :   -80.2000002 Eh     change       -0.2680299E-02 Eh
 * total energy  :   -80.2005366 Eh     change       -0.5363390E-03 Eh
 * total energy  :   -80.2008340 Eh     change       -0.2974219E-03 Eh
 * total energy  :   -80.2010026 Eh     change       -0.1685729E-03 Eh
 * total energy  :   -80.2011345 Eh     change       -0.1319613E-03 Eh
 * total energy  :   -80.2012151 Eh     change       -0.8055473E-04 Eh
 * total energy  :   -80.2012660 Eh     change       -0.5089918E-04 Eh
 * total energy  :   -80.2013071 Eh     change       -0.4110842E-04 Eh
 * total energy  :   -80.2014750 Eh     change       -0.1628306E-04 Eh
 * total energy  :   -80.2014932 Eh     change       -0.1827918E-04 Eh
 * total energy  :   -80.2015082 Eh     change       -0.1499265E-04 Eh
 * total energy  :   -80.2015227 Eh     change       -0.1450524E-04 Eh
 * total energy  :   -80.2015281 Eh     change       -0.5320264E-05 Eh
 * total energy  :   -80.2015374 Eh     change       -0.9314714E-05 Eh
 * total energy  :   -80.2015443 Eh     change       -0.6902504E-05 Eh
 * total energy  :   -80.2015495 Eh     change       -0.5187725E-05 Eh
 * total energy  :   -80.2015544 Eh     change       -0.4961949E-05 Eh
   *** GEOMETRY OPTIMIZATION CONVERGED AFTER 26 ITERATIONS ***

 final structure:
================
47
 xtb: 6.5.1 (579679a)
C           -4.40358914835646       -1.66766849653298       -0.29244989023416
N           -3.04171934460284       -1.14252850851003       -0.22943942248756
C           -2.74019455291493        0.19802119698521       -0.24478663740449
C           -3.82588198879612        1.27201565258343       -0.26406621427411
C           -4.34816710360585        1.47121022025653        1.16672542300218
C           -3.21779498372024        2.59280932532766       -0.76617980026006
N           -4.93803051545472        0.88501145159335       -1.13095104950170
N           -1.51992473333609        0.62456356214479       -0.18336907126224
C           -0.45039151688878       -0.22054268200322       -0.11643345283135
C            0.97697018440796        0.47518347161923       -0.00621682759577
C            1.55550584698011       -0.03543202354230        1.37415203008676
O            0.95396698077679        1.76737421747073       -0.10950828202551
N            1.76379029833498       -0.21351053278718       -1.14253072254847
C            3.02398729066199        0.46266146220081       -1.43397827651137
C            4.15136677048116        0.06767699594021       -0.50005973016352
C            4.56046201692301       -1.26454051348472       -0.42678279165460
C            5.58452088062940       -1.65314422500624        0.42502330728800
C            6.19425490872792       -0.68327047833882        1.19936377893213
F            7.19393009603596       -1.05078466528367        2.02832228201409
C            5.82598004920277        0.64798224318517        1.15126536580805
C            4.79646373407713        1.01516887668970        0.29358758346204
C           -0.69322812525807       -1.56454703277425       -0.11123068767560
O            0.29313401525668       -2.51183357092805       -0.04090207930095
C           -2.02936690089807       -2.09131601048947       -0.17811402843504
O           -2.27048305175469       -3.30796516849741       -0.18265298461124
H           -4.38194553313325       -2.71039398674536        0.02597179456258
H           -4.78067209556212       -1.60844732314090       -1.31301802547846
H           -5.06121243071414       -1.10387827634309        0.36219955635934
H           -4.82203763535467        0.56620830196514        1.54295879894250
H           -5.08208608021907        2.27567447090311        1.18181453551407
H           -3.52403733688934        1.73555183158848        1.82915901754975
H           -2.41683674127385        2.92004391532496       -0.10275493822778
H           -3.99124892115689        3.35777866717631       -0.79800186113906
H           -2.81072454474243        2.46117271734785       -1.76826624885554
H           -4.68504229217580        1.02279507536780       -2.10094703321616
H           -5.73180432353276        1.47827655860115       -0.94045880977785
H            0.84997287279941        0.23110768488577        2.16096297355103
H            1.72354680617237       -1.10992404588902        1.38718305451741
H            2.49503475219963        0.47985323847098        1.56302052805056
H            1.95901496787543       -1.17312823495588       -0.86313640738262
H            2.85893779067307        1.54774516112838       -1.39152958365160
H            3.32017231804512        0.20544925168596       -2.46045272826639
H            4.07747794936950       -2.01258076207616       -1.04592896581836
H            5.90823427804085       -2.68389468785941        0.48606701549685
H            6.33464396591098        1.37697256285407        1.76878047152493
H            4.49696270862324        2.05687573109389        0.24333236438131
H           -0.13191258186727       -3.38585661919716       -0.04574133045464

          :  Hamiltonian                  GFN1-xTB          :
         :: total energy             -80.201554427378 Eh    ::
         :: gradient norm              0.000226739591 Eh/a0 ::
         :: HOMO-LUMO gap              1.698595802181 eV    ::
         :: SCC energy               -81.055842837613 Eh    ::
         :: -> Gsolv                  -0.120618897354 Eh    ::
         :: repulsion energy           0.885585009122 Eh    ::

    * Orbital Energies and Occupations

         #    Occupation            Energy/Eh            Energy/eV
      -------------------------------------------------------------
         1        2.0000           -0.8487759             -23.0964
       ...           ...                  ...                  ...
        56        2.0000           -0.4550374             -12.3822
        57        2.0000           -0.4503967             -12.2559
        58        2.0000           -0.4335127             -11.7965
        59        2.0000           -0.4322855             -11.7631
        60        2.0000           -0.4308222             -11.7233
        61        2.0000           -0.4243988             -11.5485
        62        2.0000           -0.4131839             -11.2433
        63        2.0000           -0.4078487             -11.0981
        64        2.0000           -0.3998517             -10.8805
        65        2.0000           -0.3858513             -10.4995
        66        2.0000           -0.3636518              -9.8955
        67        2.0000           -0.3362889              -9.1509
        68        2.0000           -0.3270251              -8.8988 (HOMO)
        69                         -0.2646028              -7.2002 (LUMO)
        70                         -0.2555743              -6.9545
        71                         -0.2452352              -6.6732
        72                         -0.2385803              -6.4921
        73                         -0.1336984              -3.6381
        74                         -0.1260666              -3.4304
        75                         -0.1232444              -3.3537
        76                         -0.1155942              -3.1455
        77                         -0.1091069              -2.9690
        78                         -0.0953102              -2.5935
        79                         -0.0923227              -2.5122
       ...                                ...                  ...
       144                          0.6970689              18.9682
      -------------------------------------------------------------
                  HL-Gap            0.0624222 Eh            1.6986 eV

Wiberg/Mayer (AO) data.
largest (>0.10) Wiberg bond orders for each atom

     #   Z sym  total        # sym  WBO       # sym  WBO       # sym  WBO
 ---------------------------------------------------------------------------
     1   6 C    3.936 --    28 H    0.979    27 H    0.978    26 H    0.976
                             2 N    0.938
     2   7 N    3.497 --     3 C    1.167    24 C    1.117     1 C    0.938
                            25 O    0.122
     3   6 C    3.931 --     8 N    1.567     2 N    1.167     4 C    0.974
     4   6 C    3.966 --     6 C    0.990     5 C    0.985     7 N    0.981
                             3 C    0.974
     5   6 C    3.995 --    31 H    0.986     4 C    0.985    30 H    0.984
                            29 H    0.980
     6   6 C    3.995 --     4 C    0.990    33 H    0.987    34 H    0.985
                            32 H    0.982
     7   7 N    2.977 --     4 C    0.981    35 H    0.944    36 H    0.943
     8   7 N    3.036 --     3 C    1.567     9 C    1.212
     9   6 C    3.913 --    22 C    1.513     8 N    1.212    10 C    0.879
    10   6 C    3.936 --    12 O    1.238    11 C    0.916     9 C    0.879
                            13 N    0.847
    11   6 C    3.988 --    38 H    0.988    37 H    0.987    39 H    0.984
                            10 C    0.916
    12   8 O    1.511 --    10 C    1.238
    13   7 N    2.981 --    14 C    0.990    40 H    0.952    10 C    0.847
    14   6 C    3.981 --    15 C    0.994    13 N    0.990    41 H    0.970
                            42 H    0.969
    15   6 C    3.983 --    21 C    1.412    16 C    1.408    14 C    0.994
    16   6 C    3.994 --    17 C    1.446    15 C    1.408    43 H    0.972
                            20 C    0.110
    17   6 C    3.992 --    16 C    1.446    18 C    1.400    44 H    0.971
                            21 C    0.109
    18   6 C    3.855 --    20 C    1.405    17 C    1.400    19 F    0.910
    19   9 F    1.034 --    18 C    0.910
    20   6 C    3.992 --    21 C    1.438    18 C    1.405    45 H    0.971
                            16 C    0.110
    21   6 C    3.994 --    20 C    1.438    15 C    1.412    46 H    0.972
                            17 C    0.109
    22   6 C    3.907 --     9 C    1.513    24 C    1.142    23 O    1.026
    23   8 O    2.024 --    22 C    1.026    47 H    0.827
    24   6 C    3.913 --    25 O    1.490    22 C    1.142     2 N    1.117
    25   8 O    1.843 --    24 C    1.490     2 N    0.122
    26   1 H    1.014 --     1 C    0.976
    27   1 H    1.022 --     1 C    0.978
    28   1 H    1.023 --     1 C    0.979
    29   1 H    1.006 --     5 C    0.980
    30   1 H    1.001 --     5 C    0.984
    31   1 H    1.005 --     5 C    0.986
    32   1 H    1.020 --     6 C    0.982
    33   1 H    1.005 --     6 C    0.987
    34   1 H    1.009 --     6 C    0.985
    35   1 H    0.961 --     7 N    0.944
    36   1 H    0.958 --     7 N    0.943
    37   1 H    1.017 --    11 C    0.987
    38   1 H    1.016 --    11 C    0.988
    39   1 H    1.025 --    11 C    0.984
    40   1 H    0.991 --    13 N    0.952
    41   1 H    1.035 --    14 C    0.970
    42   1 H    1.022 --    14 C    0.969
    43   1 H    1.003 --    16 C    0.972
    44   1 H    1.000 --    17 C    0.971
    45   1 H    1.000 --    20 C    0.971
    46   1 H    1.005 --    21 C    0.972
    47   1 H    0.872 --    23 O    0.827
 ---------------------------------------------------------------------------

           -------------------------------------------------
          | TOTAL ENERGY              -80.201554427378 Eh   |
          | GRADIENT NORM               0.000226739591 Eh/α |
          | HOMO-LUMO GAP               1.698595802181 eV   |
           -------------------------------------------------

 * finished run on 2023/06/20 at 14:56:13.734
