   * xtb version 6.5.1 (579679a) compiled by 'ehlert@majestix' on 2022-07-11
          program call               : /lustre/hpc/kemi/ree/PhD/git/ReactivityQM/dep/xtb-6.5.1/bin/xtb --gfn 1 /lustre/hpc/kemi/ree/PhD/git/ReactivityQM/calculations/R02deprot/reac01/conf03/R02deprot_reac01_conf03_gfn1.xyz --opt --vfukui --chrg -1 --uhf 0 --alpb DMSO

   ID    Z sym.   atoms
    1    6 C      1, 3, 5, 7-10, 12, 14, 17, 18, 21, 23
    2    8 O      2, 4, 13, 19, 22, 24
    3    7 N      6, 11, 15, 16, 20
    4    1 H      25-38

      * Solvation model:               ALPB
        Solvent                        DMSO
        Solvent mass                       7.8130E+01 g/mol
          :  Hamiltonian                  GFN1-xTB          :
 * total energy  :   -79.5999941 Eh     change       -0.2964384E-10 Eh
 * total energy  :   -79.6094051 Eh     change       -0.9410982E-02 Eh
 * total energy  :   -79.6125479 Eh     change       -0.3142768E-02 Eh
 * total energy  :   -79.6130637 Eh     change       -0.5158393E-03 Eh
 * total energy  :   -79.6134633 Eh     change       -0.3996177E-03 Eh
 * total energy  :   -79.6136917 Eh     change       -0.2283691E-03 Eh
 * total energy  :   -79.6139590 Eh     change       -0.2672968E-03 Eh
 * total energy  :   -79.6142166 Eh     change       -0.2575807E-03 Eh
 * total energy  :   -79.6144538 Eh     change       -0.2372250E-03 Eh
 * total energy  :   -79.6146803 Eh     change       -0.2264491E-03 Eh
 * total energy  :   -79.6159590 Eh     change       -0.7275912E-05 Eh
 * total energy  :   -79.6159672 Eh     change       -0.8189166E-05 Eh
 * total energy  :   -79.6159738 Eh     change       -0.6638545E-05 Eh
 * total energy  :   -79.6159794 Eh     change       -0.5576078E-05 Eh
 * total energy  :   -79.6159862 Eh     change       -0.6771604E-05 Eh
 * total energy  :   -79.6159949 Eh     change       -0.8766956E-05 Eh
 * total energy  :   -79.6160039 Eh     change       -0.8999583E-05 Eh
 * total energy  :   -79.6160117 Eh     change       -0.7762479E-05 Eh
 * total energy  :   -79.6160155 Eh     change       -0.3853277E-05 Eh
   *** GEOMETRY OPTIMIZATION CONVERGED AFTER 44 ITERATIONS ***

 final structure:
================
38
 xtb: 6.5.1 (579679a)
C           -1.87009080604901        3.44993977972777       -1.08810759030003
O           -1.70313014871596        2.07892013694294       -0.74139682872041
C           -2.82263700537308        1.41831308822011       -0.38467717225065
O           -3.90483828679122        1.96929576324602       -0.34926994716535
C           -2.56388558220681       -0.00351749714464       -0.07646508456613
N           -1.25626496395255       -0.41568376205861       -0.11374605377451
C           -1.01237043542004       -1.68615614078480        0.11765619518937
C            0.44079931923133       -2.13735090187039        0.02606197801451
C            0.64701165094161       -2.82097861992294       -1.33434064688550
C            0.77165495870591       -3.09447159581864        1.17662006485491
N            1.27520347120945       -0.93763304405720        0.11446491608718
C            2.60906172411568       -0.94134228051573        0.05958644247719
O            3.31977064297799       -1.93017489086589       -0.08071064534787
C            3.20960150926183        0.41578630091133        0.20743371974683
N            4.47088765343550        0.71861183004473        0.16931168709775
N            4.56013320024836        2.06373158258198        0.38426341117678
C            3.34860497807694        2.49598216365383        0.54212941701399
C            2.91495825332053        3.88380716573058        0.81508056131367
O            2.44636741110086        1.50577254889920        0.44000333752991
N           -1.89292612648960       -2.64933244526785        0.38371145182916
C           -3.20413470066986       -2.31853619417320        0.45607366967298
O           -4.12112431537498       -3.12460120883615        0.70835098961591
C           -3.54739341082886       -0.91386173050843        0.20976204709797
O           -4.86624877644372       -0.62858557584306        0.27339200307626
H           -2.55903858757745        3.54977591785862       -1.93178911987042
H           -2.26275973644849        4.01464505308466       -0.23810367018418
H           -0.88730190339560        3.82776256789415       -1.36329875655750
H            1.66376311590365       -3.19949812878024       -1.42645275961265
H           -0.05208558539298       -3.65190998056397       -1.42270734954140
H            0.45692954777637       -2.11027130508637       -2.13799283831658
H            0.05844192202735       -3.91832778833341        1.16541084035255
H            1.77957526193629       -3.49222240623279        1.07150353287106
H            0.69200497686652       -2.57278367078811        2.12980708928784
H            0.76864605641774       -0.05958892094584        0.18001079518479
H            2.34597927283997        3.92030944261805        1.74360833905051
H            2.27266621097219        4.24195028117128        0.01099579256995
H            3.78670884457834        4.52802921455240        0.89658069997211
H           -5.31253761082003       -1.47580374875352        0.48424948201616

          :  Hamiltonian                  GFN1-xTB          :
         :: total energy             -79.616015541218 Eh    ::
         :: gradient norm              0.000381427691 Eh/a0 ::
         :: HOMO-LUMO gap              2.008489325216 eV    ::
         :: SCC energy               -80.335706509703 Eh    ::
         :: -> Gsolv                  -0.105568202891 Eh    ::
         :: repulsion energy           0.742751810362 Eh    ::

    * Orbital Energies and Occupations

         #    Occupation            Energy/Eh            Energy/eV
      -------------------------------------------------------------
         1        2.0000           -0.8574220             -23.3316
       ...           ...                  ...                  ...
        52        2.0000           -0.4757884             -12.9469
        53        2.0000           -0.4726513             -12.8615
        54        2.0000           -0.4701865             -12.7944
        55        2.0000           -0.4533060             -12.3351
        56        2.0000           -0.4503504             -12.2547
        57        2.0000           -0.4482217             -12.1967
        58        2.0000           -0.4411152             -12.0034
        59        2.0000           -0.4369154             -11.8891
        60        2.0000           -0.4318836             -11.7522
        61        2.0000           -0.4177786             -11.3683
        62        2.0000           -0.4040223             -10.9940
        63        2.0000           -0.3736116             -10.1665
        64        2.0000           -0.3716086             -10.1120 (HOMO)
        65                         -0.2977980              -8.1035 (LUMO)
        66                         -0.2763344              -7.5194
        67                         -0.2504464              -6.8150
        68                         -0.2287018              -6.2233
        69                         -0.1896020              -5.1593
        70                         -0.1861316              -5.0649
        71                         -0.1419248              -3.8620
        72                         -0.1258404              -3.4243
        73                         -0.1087177              -2.9584
        74                         -0.1045518              -2.8450
        75                         -0.1023547              -2.7852
       ...                                ...                  ...
       124                          0.7522102              20.4687
      -------------------------------------------------------------
                  HL-Gap            0.0738106 Eh            2.0085 eV

Wiberg/Mayer (AO) data.
largest (>0.10) Wiberg bond orders for each atom

     #   Z sym  total        # sym  WBO       # sym  WBO       # sym  WBO
 ---------------------------------------------------------------------------
     1   6 C    3.888 --    27 H    0.987    25 H    0.980    26 H    0.980
                             2 O    0.914
     2   8 O    2.178 --     3 C    1.077     1 C    0.914     4 O    0.123
     3   6 C    3.838 --     4 O    1.636     2 O    1.077     5 C    1.031
     4   8 O    1.900 --     3 C    1.636     2 O    0.123
     5   6 C    3.962 --    23 C    1.479     6 N    1.194     3 C    1.031
     6   7 N    3.018 --     7 C    1.467     5 C    1.194
     7   6 C    3.958 --     6 N    1.467    20 N    1.363     8 C    0.971
     8   6 C    3.928 --    10 C    0.990     9 C    0.980     7 C    0.971
                            11 N    0.920
     9   6 C    3.992 --    30 H    0.986    29 H    0.985    28 H    0.983
                             8 C    0.980
    10   6 C    3.993 --     8 C    0.990    33 H    0.987    32 H    0.984
                            31 H    0.983
    11   7 N    3.390 --    12 C    1.308     8 C    0.920    34 H    0.877
                            13 O    0.187
    12   6 C    3.925 --    13 O    1.553    11 N    1.308    14 C    0.983
    13   8 O    1.875 --    12 C    1.553    11 N    0.187
    14   6 C    3.868 --    15 N    1.627    19 O    1.049    12 C    0.983
    15   7 N    2.994 --    14 C    1.627    16 N    1.192
    16   7 N    2.980 --    17 C    1.618    15 N    1.192
    17   6 C    3.872 --    16 N    1.618    19 O    1.073    18 C    1.030
    18   6 C    3.988 --    17 C    1.030    37 H    0.983    35 H    0.965
                            36 H    0.964
    19   8 O    2.316 --    17 C    1.073    14 C    1.049
    20   7 N    2.984 --     7 C    1.363    21 C    1.251    22 O    0.124
    21   6 C    3.930 --    22 O    1.472    20 N    1.251    23 C    1.071
    22   8 O    1.809 --    21 C    1.472    20 N    0.124
    23   6 C    3.906 --     5 C    1.479    24 O    1.074    21 C    1.071
    24   8 O    2.052 --    23 C    1.074    38 H    0.816
    25   1 H    1.011 --     1 C    0.980
    26   1 H    1.011 --     1 C    0.980
    27   1 H    1.014 --     1 C    0.987
    28   1 H    1.012 --     9 C    0.983
    29   1 H    1.009 --     9 C    0.985
    30   1 H    1.006 --     9 C    0.986
    31   1 H    1.021 --    10 C    0.983
    32   1 H    1.012 --    10 C    0.984
    33   1 H    1.006 --    10 C    0.987
    34   1 H    0.970 --    11 N    0.877
    35   1 H    0.998 --    18 C    0.965
    36   1 H    0.998 --    18 C    0.964
    37   1 H    0.999 --    18 C    0.983
    38   1 H    0.876 --    24 O    0.816
 ---------------------------------------------------------------------------

           -------------------------------------------------
          | TOTAL ENERGY              -79.616015541218 Eh   |
          | GRADIENT NORM               0.000381427691 Eh/α |
          | HOMO-LUMO GAP               2.008489325216 eV   |
           -------------------------------------------------

 * finished run on 2023/06/20 at 17:32:17.834
