                         Program Version 5.0.1 -  RELEASE  -
|  1> # ORCA input file
|  2> ! SP r2SCAN-3c CPCM
|  3>
|  4> %maxcore 1875.0
|  5> %pal nprocs 4 end
|  6> %cpcm smd true SMDsolvent "DMSO" end
|  7>
|  8> *xyz -1 1
|  9> C      -5.152620    2.101519   -1.730863
| 10> O      -4.028323    1.338235   -1.304064
| 11> C      -3.787285    1.334283    0.022451
| 12> O      -4.496594    1.964931    0.805446
| 13> C      -2.639111    0.532425    0.419087
| 14> N      -1.935836   -0.095110   -0.573948
| 15> C      -0.948126   -0.871030   -0.257512
| 16> C      -0.091312   -1.485964   -1.333100
| 17> C       0.132068   -2.985698   -1.119541
| 18> C      -0.722600   -1.248817   -2.707315
| 19> N       1.211612   -0.772218   -1.324411
| 20> C       1.925489   -0.700731   -0.093719
| 21> O       2.490231   -1.874722    0.385897
| 22> C       3.801914   -2.173760   -0.091337
| 23> C       2.319563    0.546574    0.347300
| 24> N       1.829055    1.716617   -0.089742
| 25> N       2.453573    2.692077    0.658051
| 26> C       3.250584    2.103209    1.479513
| 27> C       4.145197    2.735092    2.483098
| 28> O       3.230095    0.742974    1.360808
| 29> N      -0.537911   -1.032231    1.041898
| 30> C      -1.161643   -0.428814    2.135253
| 31> O      -0.743046   -0.646271    3.274397
| 32> C      -2.273513    0.403670    1.761462
| 33> O      -2.963749    0.997668    2.769592
| 34> H      -6.071273    1.706555   -1.288492
| 35> H      -5.197001    2.019543   -2.815478
| 36> H      -5.038718    3.149100   -1.438064
| 37> H      -0.813825   -3.516736   -1.221126
| 38> H       0.544711   -3.195313   -0.135063
| 39> H       0.828845   -3.356667   -1.869580
| 40> H      -1.681945   -1.760668   -2.770599
| 41> H      -0.888098   -0.184036   -2.871045
| 42> H      -0.063296   -1.629523   -3.485608
| 43> H       1.063540    0.180645   -1.662010
| 44> H       3.812114   -2.252869   -1.184992
| 45> H       4.090119   -3.131959    0.343202
| 46> H       4.516881   -1.402674    0.219942
| 47> H       5.189337    2.527626    2.245547
| 48> H       3.943052    2.340689    3.479660
| 49> H       3.988262    3.811529    2.482052
| 50> H       0.192058   -1.696264    1.257431
| 51> H      -3.722476    1.497114    2.395520
| 52> **                         ****END OF INPUT****

CARTESIAN COORDINATES (ANGSTROEM)
---------------------------------
  C     -5.152620    2.101519   -1.730863
  O     -4.028323    1.338235   -1.304064
  C     -3.787285    1.334283    0.022451
  O     -4.496594    1.964931    0.805446
  C     -2.639111    0.532425    0.419087
  N     -1.935836   -0.095110   -0.573948
  C     -0.948126   -0.871030   -0.257512
  C     -0.091312   -1.485964   -1.333100
  C      0.132068   -2.985698   -1.119541
  C     -0.722600   -1.248817   -2.707315
  N      1.211612   -0.772218   -1.324411
  C      1.925489   -0.700731   -0.093719
  O      2.490231   -1.874722    0.385897
  C      3.801914   -2.173760   -0.091337
  C      2.319563    0.546574    0.347300
  N      1.829055    1.716617   -0.089742
  N      2.453573    2.692077    0.658051
  C      3.250584    2.103209    1.479513
  C      4.145197    2.735092    2.483098
  O      3.230095    0.742974    1.360808
  N     -0.537911   -1.032231    1.041898
  C     -1.161643   -0.428814    2.135253
  O     -0.743046   -0.646271    3.274397
  C     -2.273513    0.403670    1.761462
  O     -2.963749    0.997668    2.769592
  H     -6.071273    1.706555   -1.288492
  H     -5.197001    2.019543   -2.815478
  H     -5.038718    3.149100   -1.438064
  H     -0.813825   -3.516736   -1.221126
  H      0.544711   -3.195313   -0.135063
  H      0.828845   -3.356667   -1.869580
  H     -1.681945   -1.760668   -2.770599
  H     -0.888098   -0.184036   -2.871045
  H     -0.063296   -1.629523   -3.485608
  H      1.063540    0.180645   -1.662010
  H      3.812114   -2.252869   -1.184992
  H      4.090119   -3.131959    0.343202
  H      4.516881   -1.402674    0.219942
  H      5.189337    2.527626    2.245547
  H      3.943052    2.340689    3.479660
  H      3.988262    3.811529    2.482052
  H      0.192058   -1.696264    1.257431
  H     -3.722476    1.497114    2.395520

 Total Charge           Charge          ....   -1
 Multiplicity           Mult            ....    1
 Number of Electrons    NEL             ....  186
 Basis Dimension        Dim             ....  620

ORBITAL ENERGIES
----------------

  NO   OCC          E(Eh)            E(eV)
   0   2.0000     -19.005913      -517.1772
   1   2.0000     -18.994500      -516.8666
   2   2.0000     -18.973962      -516.3077
   3   2.0000     -18.955274      -515.7992
   4   2.0000     -18.941496      -515.4243
   5   2.0000     -18.908019      -514.5134
   6   2.0000     -14.205097      -386.5404
   7   2.0000     -14.160242      -385.3198
   8   2.0000     -14.156702      -385.2234
   9   2.0000     -14.148377      -384.9969
  10   2.0000     -14.136065      -384.6619
  11   2.0000     -10.156784      -276.3802
  12   2.0000     -10.125239      -275.5218
  13   2.0000     -10.098439      -274.7925
  14   2.0000     -10.097793      -274.7749
  15   2.0000     -10.097662      -274.7713
  16   2.0000     -10.088585      -274.5243
  17   2.0000     -10.073558      -274.1154
  18   2.0000     -10.072291      -274.0810
  19   2.0000     -10.071789      -274.0673
  20   2.0000     -10.067477      -273.9500
  21   2.0000     -10.058563      -273.7074
  22   2.0000     -10.028961      -272.9019
  23   2.0000     -10.011093      -272.4157
  24   2.0000     -10.009865      -272.3823
  25   2.0000      -1.085819       -29.5466
  26   2.0000      -1.068615       -29.0785
  27   2.0000      -1.023461       -27.8498
  28   2.0000      -0.998232       -27.1633
  29   2.0000      -0.992173       -26.9984
  30   2.0000      -0.977128       -26.5890
  31   2.0000      -0.942896       -25.6575
  32   2.0000      -0.916535       -24.9402
  33   2.0000      -0.873542       -23.7703
  34   2.0000      -0.858411       -23.3586
  35   2.0000      -0.787220       -21.4213
  36   2.0000      -0.756144       -20.5757
  37   2.0000      -0.724377       -19.7113
  38   2.0000      -0.698815       -19.0157
  39   2.0000      -0.682877       -18.5820
  40   2.0000      -0.664737       -18.0884
  41   2.0000      -0.651180       -17.7195
  42   2.0000      -0.639668       -17.4063
  43   2.0000      -0.618252       -16.8235
  44   2.0000      -0.614225       -16.7139
  45   2.0000      -0.563922       -15.3451
  46   2.0000      -0.543538       -14.7904
  47   2.0000      -0.539757       -14.6875
  48   2.0000      -0.532025       -14.4771
  49   2.0000      -0.524156       -14.2630
  50   2.0000      -0.509004       -13.8507
  51   2.0000      -0.482646       -13.1335
  52   2.0000      -0.478691       -13.0259
  53   2.0000      -0.463055       -12.6004
  54   2.0000      -0.449088       -12.2203
  55   2.0000      -0.444610       -12.0984
  56   2.0000      -0.442231       -12.0337
  57   2.0000      -0.437874       -11.9151
  58   2.0000      -0.428740       -11.6666
  59   2.0000      -0.421839       -11.4788
  60   2.0000      -0.412231       -11.2174
  61   2.0000      -0.406973       -11.0743
  62   2.0000      -0.398319       -10.8388
  63   2.0000      -0.392045       -10.6681
  64   2.0000      -0.389208       -10.5909
  65   2.0000      -0.377901       -10.2832
  66   2.0000      -0.372795       -10.1443
  67   2.0000      -0.370094       -10.0708
  68   2.0000      -0.367680       -10.0051
  69   2.0000      -0.361176        -9.8281
  70   2.0000      -0.358623        -9.7586
  71   2.0000      -0.350037        -9.5250
  72   2.0000      -0.345455        -9.4003
  73   2.0000      -0.342766        -9.3271
  74   2.0000      -0.332578        -9.0499
  75   2.0000      -0.329372        -8.9627
  76   2.0000      -0.321873        -8.7586
  77   2.0000      -0.317637        -8.6434
  78   2.0000      -0.307132        -8.3575
  79   2.0000      -0.304320        -8.2810
  80   2.0000      -0.294453        -8.0125
  81   2.0000      -0.275259        -7.4902
  82   2.0000      -0.273684        -7.4473
  83   2.0000      -0.266625        -7.2552
  84   2.0000      -0.261281        -7.1098
  85   2.0000      -0.249114        -6.7787
  86   2.0000      -0.232738        -6.3331
  87   2.0000      -0.232110        -6.3160
  88   2.0000      -0.227125        -6.1804
  89   2.0000      -0.224790        -6.1169
  90   2.0000      -0.215485        -5.8636
  91   2.0000      -0.193581        -5.2676
  92   2.0000      -0.108872        -2.9626
  93   0.0000      -0.083431        -2.2703
  94   0.0000      -0.020600        -0.5606
  95   0.0000       0.010529         0.2865
  96   0.0000       0.023542         0.6406
  97   0.0000       0.041980         1.1423

MULLIKEN ATOMIC CHARGES
-----------------------
   0 C :   -0.319837
   1 O :   -0.189135
   2 C :    0.207720
   3 O :   -0.487622
   4 C :    0.083277
   5 N :   -0.136070
   6 C :    0.101851
   7 C :    0.091455
   8 C :   -0.523964
   9 C :   -0.575295
  10 N :   -0.238169
  11 C :   -0.424938
  12 O :   -0.202585
  13 C :   -0.334618
  14 C :    0.179155
  15 N :   -0.261943
  16 N :   -0.347579
  17 C :    0.319730
  18 C :   -0.657945
  19 O :   -0.094818
  20 N :    0.022306
  21 C :   -0.032029
  22 O :   -0.415649
  23 C :    0.021342
  24 O :   -0.374738
  25 H :    0.173290
  26 H :    0.173449
  27 H :    0.173274
  28 H :    0.177555
  29 H :    0.168462
  30 H :    0.180570
  31 H :    0.183612
  32 H :    0.178343
  33 H :    0.174192
  34 H :    0.321155
  35 H :    0.155544
  36 H :    0.160322
  37 H :    0.156791
  38 H :    0.180887
  39 H :    0.180221
  40 H :    0.190822
  41 H :    0.297633
  42 H :    0.363976
Sum of atomic charges:   -1.0000000

LOEWDIN ATOMIC CHARGES
----------------------
   0 C :   -0.041141
   1 O :   -0.580440
   2 C :    0.403043
   3 O :   -0.492895
   4 C :    0.173787
   5 N :   -0.588058
   6 C :    0.338592
   7 C :    0.081712
   8 C :   -0.356815
   9 C :   -0.357528
  10 N :   -0.672815
  11 C :    0.261546
  12 O :   -0.698341
  13 C :   -0.065046
  14 C :    0.358705
  15 N :   -0.496800
  16 N :   -0.454120
  17 C :    0.317057
  18 C :   -0.335809
  19 O :   -0.437866
  20 N :   -0.488204
  21 C :    0.347038
  22 O :   -0.490032
  23 C :    0.247427
  24 O :   -0.475911
  25 H :    0.179644
  26 H :    0.184100
  27 H :    0.180053
  28 H :    0.165696
  29 H :    0.174194
  30 H :    0.170942
  31 H :    0.170295
  32 H :    0.173491
  33 H :    0.164990
  34 H :    0.289096
  35 H :    0.164633
  36 H :    0.175212
  37 H :    0.166267
  38 H :    0.176619
  39 H :    0.176630
  40 H :    0.181802
  41 H :    0.303434
  42 H :    0.305814

  Mayer bond orders larger than 0.100000
B(  0-C ,  1-O ) :   0.8350 B(  0-C , 25-H ) :   0.9576 B(  0-C , 26-H ) :   0.9631
B(  0-C , 27-H ) :   0.9585 B(  1-O ,  2-C ) :   1.1431 B(  2-C ,  3-O ) :   1.6917
B(  2-C ,  4-C ) :   1.1301 B(  4-C ,  5-N ) :   1.0440 B(  4-C , 23-C ) :   1.1648
B(  5-N ,  6-C ) :   1.7000 B(  6-C ,  7-C ) :   0.9030 B(  6-C , 20-N ) :   1.0730
B(  7-C ,  8-C ) :   1.0276 B(  7-C ,  9-C ) :   0.9219 B(  7-C , 10-N ) :   0.7935
B(  8-C , 28-H ) :   0.9739 B(  8-C , 29-H ) :   0.9297 B(  8-C , 30-H ) :   0.9771
B(  9-C , 31-H ) :   0.9771 B(  9-C , 32-H ) :   0.9636 B(  9-C , 33-H ) :   0.9736
B( 10-N , 11-C ) :   0.9022 B( 10-N , 14-C ) :   0.1200 B( 10-N , 34-H ) :   0.8655
B( 11-C , 12-O ) :   1.1231 B( 11-C , 14-C ) :   1.2616 B( 11-C , 20-N ) :   0.1805
B( 12-O , 13-C ) :   0.8481 B( 13-C , 35-H ) :   0.9674 B( 13-C , 36-H ) :   0.9675
B( 13-C , 37-H ) :   0.9628 B( 14-C , 15-N ) :   1.4810 B( 14-C , 19-O ) :   1.0839
B( 15-N , 16-N ) :   1.2409 B( 16-N , 17-C ) :   1.7543 B( 17-C , 18-C ) :   0.8042
B( 17-C , 19-O ) :   0.9991 B( 18-C , 38-H ) :   0.9498 B( 18-C , 39-H ) :   0.9587
B( 18-C , 40-H ) :   1.0003 B( 20-N , 21-C ) :   0.9798 B( 20-N , 41-H ) :   0.8814
B( 21-C , 22-O ) :   2.0546 B( 21-C , 23-C ) :   1.0316 B( 23-C , 24-O ) :   1.1176
B( 24-O , 42-H ) :   0.7744

Dispersion correction           -0.020047487
FINAL SINGLE POINT ENERGY     -1269.315894115779

DIPOLE MOMENT
-------------
                                X             Y             Z
Electronic contribution:     -8.07147       6.05516      11.39803
Nuclear contribution   :      7.77642      -7.86618     -13.49115
                        -----------------------------------------
Total Dipole Moment    :     -0.29505      -1.81102      -2.09312
                        -----------------------------------------
Magnitude (a.u.)       :      2.78352
Magnitude (Debye)      :      7.07515

Rotational constants in cm-1:     0.010296     0.005090     0.004376
Rotational constants in MHz :   308.680150   152.582169   131.197308

                             ****ORCA TERMINATED NORMALLY****
TOTAL RUN TIME: 0 days 0 hours 2 minutes 42 seconds 629 msec
