   * xtb version 6.5.1 (579679a) compiled by 'ehlert@majestix' on 2022-07-11
          program call               : /lustre/hpc/kemi/ree/PhD/git/ReactivityQM/dep/xtb-6.5.1/bin/xtb --gfn 1 /lustre/hpc/kemi/ree/PhD/git/ReactivityQM/calculations/R02/reac01prodE07/conf15/R02_reac01prodE07_conf15_gfn1.xyz --opt --vfukui --chrg -1 --uhf 0 --alpb DMSO

   ID    Z sym.   atoms
    1    6 C      1, 3, 5, 7-10, 12, 14, 15, 18, 19, 22, 24
    2    8 O      2, 4, 13, 20, 23, 25
    3    7 N      6, 11, 16, 17, 21
    4    1 H      26-43

      * Solvation model:               ALPB
        Solvent                        DMSO
        Solvent mass                       7.8130E+01 g/mol
          :  Hamiltonian                  GFN1-xTB          :
 * total energy  :   -83.8179451 Eh     change       -0.4120423E-08 Eh
 * total energy  :   -83.8299477 Eh     change       -0.1200264E-01 Eh
 * total energy  :   -83.8350729 Eh     change       -0.5125257E-02 Eh
 * total energy  :   -83.8360145 Eh     change       -0.9415460E-03 Eh
 * total energy  :   -83.8366350 Eh     change       -0.6205211E-03 Eh
 * total energy  :   -83.8369839 Eh     change       -0.3488412E-03 Eh
 * total energy  :   -83.8373103 Eh     change       -0.3264892E-03 Eh
 * total energy  :   -83.8375634 Eh     change       -0.2530412E-03 Eh
 * total energy  :   -83.8377545 Eh     change       -0.1910705E-03 Eh
 * total energy  :   -83.8379191 Eh     change       -0.1646632E-03 Eh
 * total energy  :   -83.8465136 Eh     change       -0.1665304E-04 Eh
 * total energy  :   -83.8465299 Eh     change       -0.1627415E-04 Eh
 * total energy  :   -83.8465513 Eh     change       -0.2147408E-04 Eh
 * total energy  :   -83.8465722 Eh     change       -0.2088955E-04 Eh
 * total energy  :   -83.8465846 Eh     change       -0.1233366E-04 Eh
 * total energy  :   -83.8465937 Eh     change       -0.9182557E-05 Eh
 * total energy  :   -83.8466023 Eh     change       -0.8559768E-05 Eh
 * total energy  :   -83.8466089 Eh     change       -0.6553536E-05 Eh
 * total energy  :   -83.8466137 Eh     change       -0.4857435E-05 Eh
   *** GEOMETRY OPTIMIZATION CONVERGED AFTER 62 ITERATIONS ***

 final structure:
================
43
 xtb: 6.5.1 (579679a)
C           -5.15262005512733        2.10151948817686       -1.73086285500203
O           -4.02832251491047        1.33823543372721       -1.30406389349809
C           -3.78728481702635        1.33428255291140        0.02245078388809
O           -4.49659359310745        1.96493142286100        0.80544600735199
C           -2.63911062447527        0.53242509091557        0.41908739642231
N           -1.93583640605718       -0.09511034391568       -0.57394801703952
C           -0.94812562125068       -0.87102954313648       -0.25751166578297
C           -0.09131247378530       -1.48596389539950       -1.33310006083781
C            0.13206825998393       -2.98569825502872       -1.11954064875070
C           -0.72260021939890       -1.24881711148415       -2.70731516404990
N            1.21161226870155       -0.77221819933022       -1.32441066917740
C            1.92548896691215       -0.70073115333063       -0.09371876212223
O            2.49023130602014       -1.87472199934797        0.38589695257832
C            3.80191355892263       -2.17376009331415       -0.09133730035420
C            2.31956258372289        0.54657407372637        0.34730001151304
N            1.82905482224416        1.71661685281537       -0.08974164446123
N            2.45357343180219        2.69207719266326        0.65805107879347
C            3.25058434717597        2.10320923128202        1.47951255157378
C            4.14519682877234        2.73509194000714        2.48309786433827
O            3.23009534761928        0.74297395548812        1.36080834130673
N           -0.53791067801144       -1.03223119701280        1.04189824085433
C           -1.16164256293854       -0.42881354493518        2.13525279038456
O           -0.74304631379457       -0.64627082146013        3.27439663188827
C           -2.27351317749735        0.40366997094598        1.76146215438654
O           -2.96374942097713        0.99766836867828        2.76959205323676
H           -6.07127277562071        1.70655455603401       -1.28849176520015
H           -5.19700051240526        2.01954286745156       -2.81547781882984
H           -5.03871803781378        3.14910001668056       -1.43806393594214
H           -0.81382548787596       -3.51673588927786       -1.22112633217456
H            0.54471100149884       -3.19531282392102       -0.13506265086776
H            0.82884487998184       -3.35666687546740       -1.86958036916075
H           -1.68194464840191       -1.76066801701810       -2.77059871232840
H           -0.88809771694617       -0.18403637709455       -2.87104457583940
H           -0.06329582876643       -1.62952272516574       -3.48560760522489
H            1.06354034588880        0.18064512792883       -1.66201038689436
H            3.81211413946084       -2.25286878656073       -1.18499221732532
H            4.09011922874911       -3.13195883286902        0.34320164039523
H            4.51688143824616       -1.40267420706247        0.21994151414951
H            5.18933706929621        2.52762564991811        2.24554695556726
H            3.94305169499814        2.34068914355156        3.47965983711536
H            3.98826221372571        3.81152857984757        2.48205186793766
H            0.19205795101313       -1.69626360076633        1.25743118399971
H           -3.72247619853744        1.49711377726516        2.39552019319438

          :  Hamiltonian                  GFN1-xTB          :
         :: total energy             -83.846613716974 Eh    ::
         :: gradient norm              0.000468509856 Eh/a0 ::
         :: HOMO-LUMO gap              0.271680294778 eV    ::
         :: SCC energy               -84.593415382944 Eh    ::
         :: -> Gsolv                  -0.109459965317 Eh    ::
         :: repulsion energy           0.774417983290 Eh    ::

    * Orbital Energies and Occupations

         #    Occupation            Energy/Eh            Energy/eV
      -------------------------------------------------------------
         1        2.0000           -0.8163833             -22.2149
       ...           ...                  ...                  ...
        56        2.0000           -0.4735927             -12.8871
        57        2.0000           -0.4596066             -12.5065
        58        2.0000           -0.4515587             -12.2875
        59        2.0000           -0.4443741             -12.0920
        60        2.0000           -0.4372221             -11.8974
        61        2.0000           -0.4313259             -11.7370
        62        2.0000           -0.4236554             -11.5283
        63        2.0000           -0.4197201             -11.4212
        64        2.0000           -0.4153299             -11.3017
        65        2.0000           -0.4009432             -10.9102
        66        2.0000           -0.3970651             -10.8047
        67        2.0000           -0.3932753             -10.7016
        68        1.9896           -0.3085717              -8.3967 (HOMO)
        69        0.0104           -0.2985876              -8.1250 (LUMO)
        70                         -0.2504447              -6.8149
        71                         -0.2107819              -5.7357
        72                         -0.2068452              -5.6285
        73                         -0.1656200              -4.5067
        74                         -0.1286577              -3.5010
        75                         -0.1260035              -3.4287
        76                         -0.1236231              -3.3640
        77                         -0.1160045              -3.1566
        78                         -0.1115461              -3.0353
        79                         -0.1107847              -3.0146
       ...                                ...                  ...
       136                          0.7125788              19.3903
      -------------------------------------------------------------
                  HL-Gap            0.0099841 Eh            0.2717 eV

Wiberg/Mayer (AO) data.
largest (>0.10) Wiberg bond orders for each atom

     #   Z sym  total        # sym  WBO       # sym  WBO       # sym  WBO
 ---------------------------------------------------------------------------
     1   6 C    3.886 --    27 H    0.987    26 H    0.980    28 H    0.980
                             2 O    0.913
     2   8 O    2.158 --     3 C    1.072     1 C    0.913     4 O    0.110
     3   6 C    3.784 --     4 O    1.546     5 C    1.089     2 O    1.072
     4   8 O    1.860 --     3 C    1.546     2 O    0.110
     5   6 C    3.940 --    24 C    1.358     6 N    1.193     3 C    1.089
     6   7 N    3.021 --     7 C    1.558     5 C    1.193
     7   6 C    3.923 --     6 N    1.558    21 N    1.138     8 C    0.985
     8   6 C    3.963 --    10 C    1.001     9 C    0.993     7 C    0.985
                            11 N    0.920
     9   6 C    3.994 --     8 C    0.993    29 H    0.987    31 H    0.984
                            30 H    0.978
    10   6 C    3.996 --     8 C    1.001    34 H    0.987    32 H    0.986
                            33 H    0.983
    11   7 N    3.095 --    12 C    1.012    35 H    0.930     8 C    0.920
    12   6 C    3.725 --    15 C    1.378    11 N    1.012    13 O    0.958
    13   8 O    2.023 --    12 C    0.958    14 C    0.923
    14   6 C    3.909 --    37 H    0.986    36 H    0.984    38 H    0.983
                            13 O    0.923
    15   6 C    3.872 --    12 C    1.378    16 N    1.343    20 O    0.983
    16   7 N    2.850 --    15 C    1.343    17 N    1.155
    17   7 N    2.981 --    18 C    1.663    16 N    1.155
    18   6 C    3.852 --    17 N    1.663    19 C    1.022    20 O    1.019
    19   6 C    3.994 --    18 C    1.022    41 H    0.986    40 H    0.973
                            39 H    0.971
    20   8 O    2.209 --    18 C    1.019    15 C    0.983
    21   7 N    3.432 --     7 C    1.138    22 C    1.075    42 H    0.889
                            23 O    0.113
    22   6 C    3.913 --    23 O    1.525    24 C    1.146    21 N    1.075
    23   8 O    1.834 --    22 C    1.525    21 N    0.113
    24   6 C    3.887 --     5 C    1.358    22 C    1.146    25 O    1.063
    25   8 O    2.004 --    24 C    1.063    43 H    0.797
    26   1 H    1.010 --     1 C    0.980
    27   1 H    1.014 --     1 C    0.987
    28   1 H    1.010 --     1 C    0.980
    29   1 H    1.004 --     9 C    0.987
    30   1 H    1.014 --     9 C    0.978
    31   1 H    1.007 --     9 C    0.984
    32   1 H    1.008 --    10 C    0.986
    33   1 H    1.013 --    10 C    0.983
    34   1 H    1.006 --    10 C    0.987
    35   1 H    0.983 --    11 N    0.930
    36   1 H    1.015 --    14 C    0.984
    37   1 H    1.017 --    14 C    0.986
    38   1 H    1.017 --    14 C    0.983
    39   1 H    1.002 --    19 C    0.971
    40   1 H    1.002 --    19 C    0.973
    41   1 H    1.005 --    19 C    0.986
    42   1 H    0.959 --    21 N    0.889
    43   1 H    0.873 --    25 O    0.797
 ---------------------------------------------------------------------------

           -------------------------------------------------
          | TOTAL ENERGY              -83.846613716974 Eh   |
          | GRADIENT NORM               0.000468509856 Eh/α |
          | HOMO-LUMO GAP               0.271680294778 eV   |
           -------------------------------------------------

 * finished run on 2023/06/20 at 15:03:35.938
