   * xtb version 6.5.1 (579679a) compiled by 'ehlert@majestix' on 2022-07-11
          program call               : /lustre/hpc/kemi/ree/PhD/git/ReactivityQM/dep/xtb-6.5.1/bin/xtb --gfn 1 /lustre/hpc/kemi/ree/PhD/git/ReactivityQM/calculations/R02oxygendeprot/reac01prodN02/conf11/R02oxygendeprot_reac01prodN02_conf11_gfn1.xyz --opt --vfukui --chrg 0 --uhf 0 --alpb DMSO

   ID    Z sym.   atoms
    1    6 C      1, 3, 5, 7-10, 12, 14, 15, 18, 19, 22, 24
    2    8 O      2, 4, 13, 20, 23, 25
    3    7 N      6, 11, 16, 17, 21
    4    1 H      26-42

      * Solvation model:               ALPB
        Solvent                        DMSO
        Solvent mass                       7.8130E+01 g/mol
          :  Hamiltonian                  GFN1-xTB          :
 * total energy  :   -82.9415946 Eh     change       -0.5810818E-10 Eh
 * total energy  :   -82.9598145 Eh     change       -0.1821993E-01 Eh
 * total energy  :   -82.9676446 Eh     change       -0.7830088E-02 Eh
 * total energy  :   -82.9688773 Eh     change       -0.1232696E-02 Eh
 * total energy  :   -82.9696745 Eh     change       -0.7972567E-03 Eh
 * total energy  :   -82.9699778 Eh     change       -0.3032419E-03 Eh
 * total energy  :   -82.9702714 Eh     change       -0.2936809E-03 Eh
 * total energy  :   -82.9704837 Eh     change       -0.2122563E-03 Eh
 * total energy  :   -82.9706310 Eh     change       -0.1473141E-03 Eh
 * total energy  :   -82.9707546 Eh     change       -0.1235480E-03 Eh
 * total energy  :   -82.9714923 Eh     change       -0.1962222E-04 Eh
 * total energy  :   -82.9715063 Eh     change       -0.1394097E-04 Eh
 * total energy  :   -82.9715164 Eh     change       -0.1014252E-04 Eh
 * total energy  :   -82.9715280 Eh     change       -0.1163278E-04 Eh
 * total energy  :   -82.9715357 Eh     change       -0.7612278E-05 Eh
 * total energy  :   -82.9715408 Eh     change       -0.5174191E-05 Eh
 * total energy  :   -82.9715478 Eh     change       -0.6994381E-05 Eh
 * total energy  :   -82.9715545 Eh     change       -0.6709891E-05 Eh
 * total energy  :   -82.9715590 Eh     change       -0.4454077E-05 Eh
   *** GEOMETRY OPTIMIZATION CONVERGED AFTER 42 ITERATIONS ***

 final structure:
================
42
 xtb: 6.5.1 (579679a)
C            6.37224114349390       -1.23990846751561        2.30047249500981
O            5.24972225462598       -0.37913463218094        2.15057752420577
C            4.32728434329866       -0.76480035234682        1.23983505447158
O            4.46873464298027       -1.79885722992132        0.60027407531147
C            3.19287743906178        0.14236389984397        1.10023749214083
N            2.29187362535148       -0.28007362419409        0.14517937781025
C            1.23857639123014        0.39896774889433       -0.11063325781365
C            0.28578749977247       -0.05747286842761       -1.19431393640246
C            0.32033740843966        0.92907886097151       -2.36829795011782
C            0.64920312955269       -1.47664939454215       -1.63335016782464
N           -1.07815220514537       -0.05220219841393       -0.60346505666150
C           -2.19022595742487       -0.38037551573963       -1.21035889240303
O           -2.14790076098031       -0.79507696607240       -2.44397533255872
C           -3.31822802642231       -1.18604288451695       -3.17744330332459
C           -3.41942084401717       -0.25956069855332       -0.46369987124450
N           -4.64488613588627       -0.53937197252366       -0.81822956552251
N           -5.43419869512660       -0.24361522437518        0.23190484064583
C           -4.65784294549095        0.20472324389300        1.18078267076711
C           -5.04856079690238        0.66302910508053        2.52727320293193
O           -3.37441370719514        0.21486249204230        0.79944771624432
N            0.94879540593533        1.58229640963658        0.54226120051966
C            1.75209985344753        2.11832813891204        1.52493797195078
O            1.42614903274620        3.16659558977544        2.06747927185432
C            3.00975390474848        1.33718554146065        1.84814091546098
O            3.77314602934023        1.78283297023047        2.71889752892377
H            7.00709137201310       -0.80500082441924        3.07159844071658
H            6.92783997882136       -1.31552264773176        1.36057105601104
H            6.05272494383722       -2.24189314299294        2.60314900631919
H           -0.31895164489805        0.59034410765390       -3.17925599185103
H           -0.01405196608012        1.91129519430268       -2.04096727223722
H            1.34372545271254        1.00451200476342       -2.73384337709016
H            0.52869069360504       -2.16536685250686       -0.79877512181862
H            0.02596332733467       -1.80010551525789       -2.46187259486804
H            1.69282918791973       -1.48445813690836       -1.94654522807479
H           -1.16765382927401        0.25668504966058        0.35679481705089
H           -4.00521456520286       -0.34287125235662       -3.26139433168436
H           -3.81421476941276       -2.01762580301462       -2.67471630050760
H           -2.95774749703875       -1.48861737378310       -4.15870141679855
H           -4.57300568233727        0.03734197016507        3.28325298638816
H           -4.71045274886267        1.68804048229957        2.68068718187180
H           -6.12923691009802        0.61074220857329        2.63414754134989
H            0.11891362752959        2.09884756013359        0.31193760084537

          :  Hamiltonian                  GFN1-xTB          :
         :: total energy             -82.971558987982 Eh    ::
         :: gradient norm              0.000720077898 Eh/a0 ::
         :: HOMO-LUMO gap              0.214156158840 eV    ::
         :: SCC energy               -83.747800779620 Eh    ::
         :: -> Gsolv                  -0.104057801312 Eh    ::
         :: repulsion energy           0.801590232235 Eh    ::

    * Orbital Energies and Occupations

         #    Occupation            Energy/Eh            Energy/eV
      -------------------------------------------------------------
         1        2.0000           -0.8979725             -24.4351
       ...           ...                  ...                  ...
        55        2.0000           -0.5076501             -13.8139
        56        2.0000           -0.5029466             -13.6859
        57        2.0000           -0.4982035             -13.5568
        58        2.0000           -0.4919942             -13.3878
        59        2.0000           -0.4836590             -13.1610
        60        2.0000           -0.4798104             -13.0563
        61        2.0000           -0.4699634             -12.7884
        62        2.0000           -0.4670225             -12.7083
        63        2.0000           -0.4520470             -12.3008
        64        2.0000           -0.4438659             -12.0782
        65        2.0000           -0.4298659             -11.6972
        66        2.0000           -0.3889707             -10.5844
        67        1.9687           -0.3768723             -10.2552 (HOMO)
        68        0.0313           -0.3690022             -10.0411 (LUMO)
        69                         -0.2843656              -7.7380
        70                         -0.2790114              -7.5923
        71                         -0.2546454              -6.9293
        72                         -0.2494595              -6.7881
        73                         -0.2057180              -5.5979
        74                         -0.1587161              -4.3189
        75                         -0.1522012              -4.1416
        76                         -0.1368323              -3.7234
        77                         -0.1341238              -3.6497
        78                         -0.1238647              -3.3705
       ...                                ...                  ...
       134                          0.7545388              20.5320
      -------------------------------------------------------------
                  HL-Gap            0.0078701 Eh            0.2142 eV

Wiberg/Mayer (AO) data.
largest (>0.10) Wiberg bond orders for each atom

     #   Z sym  total        # sym  WBO       # sym  WBO       # sym  WBO
 ---------------------------------------------------------------------------
     1   6 C    3.894 --    26 H    0.987    27 H    0.980    28 H    0.980
                             2 O    0.920
     2   8 O    2.167 --     3 C    1.060     1 C    0.920     4 O    0.113
     3   6 C    3.850 --     4 O    1.584     5 C    1.099     2 O    1.060
     4   8 O    1.855 --     3 C    1.584     2 O    0.113
     5   6 C    3.895 --    24 C    1.260     6 N    1.166     3 C    1.099
                            25 O    0.124
     6   7 N    3.036 --     7 C    1.628     5 C    1.166
     7   6 C    3.924 --     6 N    1.628    21 N    1.089     8 C    0.978
     8   6 C    3.893 --    10 C    0.990     9 C    0.979     7 C    0.978
                            11 N    0.874
     9   6 C    3.981 --    30 H    0.983    29 H    0.982    31 H    0.981
                             8 C    0.979
    10   6 C    3.983 --     8 C    0.990    33 H    0.984    32 H    0.984
                            34 H    0.979
    11   7 N    3.471 --    12 C    1.455    35 H    0.874     8 C    0.874
                            13 O    0.108
    12   6 C    3.880 --    11 N    1.455    13 O    1.188    15 C    1.089
    13   8 O    2.271 --    12 C    1.188    14 C    0.864    11 N    0.108
    14   6 C    3.831 --    38 H    0.980    37 H    0.974    36 H    0.974
                            13 O    0.864
    15   6 C    3.882 --    16 N    1.543    12 C    1.089    20 O    1.047
    16   7 N    3.015 --    15 C    1.543    17 N    1.247
    17   7 N    2.986 --    18 C    1.554    16 N    1.247
    18   6 C    3.847 --    17 N    1.554    20 O    1.086    19 C    1.039
    19   6 C    3.979 --    18 C    1.039    41 H    0.980    40 H    0.956
                            39 H    0.954
    20   8 O    2.329 --    18 C    1.086    15 C    1.047
    21   7 N    3.412 --    22 C    1.143     7 C    1.089    42 H    0.896
                            23 O    0.133
    22   6 C    3.871 --    23 O    1.599    21 N    1.143    24 C    0.962
    23   8 O    1.875 --    22 C    1.599    21 N    0.133
    24   6 C    3.937 --    25 O    1.538     5 C    1.260    22 C    0.962
    25   8 O    1.833 --    24 C    1.538     5 C    0.124
    26   1 H    1.015 --     1 C    0.987
    27   1 H    1.013 --     1 C    0.980
    28   1 H    1.013 --     1 C    0.980
    29   1 H    1.003 --     9 C    0.982
    30   1 H    0.999 --     9 C    0.983
    31   1 H    0.999 --     9 C    0.981
    32   1 H    1.005 --    10 C    0.984
    33   1 H    1.005 --    10 C    0.984
    34   1 H    1.012 --    10 C    0.979
    35   1 H    0.925 --    11 N    0.874
    36   1 H    1.008 --    14 C    0.974
    37   1 H    1.009 --    14 C    0.974
    38   1 H    1.003 --    14 C    0.980
    39   1 H    0.992 --    19 C    0.954
    40   1 H    0.992 --    19 C    0.956
    41   1 H    0.995 --    19 C    0.980
    42   1 H    0.940 --    21 N    0.896
 ---------------------------------------------------------------------------

           -------------------------------------------------
          | TOTAL ENERGY              -82.971558987982 Eh   |
          | GRADIENT NORM               0.000720077898 Eh/α |
          | HOMO-LUMO GAP               0.214156158840 eV   |
           -------------------------------------------------

 * finished run on 2023/06/21 at 17:18:08.635
