   * xtb version 6.5.1 (579679a) compiled by 'ehlert@majestix' on 2022-07-11
          program call               : /lustre/hpc/kemi/ree/PhD/git/ReactivityQM/dep/xtb-6.5.1/bin/xtb --gfn 1 /lustre/hpc/kemi/ree/PhD/git/ReactivityQM/calculations/R02oxygendeprot/reac01prodE04/conf09/R02oxygendeprot_reac01prodE04_conf09_gfn1.xyz --opt --vfukui --chrg -2 --uhf 0 --alpb DMSO

   ID    Z sym.   atoms
    1    6 C      1, 3, 5, 6, 8-11, 13, 15, 18, 19, 22, 24
    2    8 O      2, 4, 14, 20, 23, 25
    3    7 N      7, 12, 16, 17, 21
    4    1 H      26-42

      * Solvation model:               ALPB
        Solvent                        DMSO
        Solvent mass                       7.8130E+01 g/mol
          :  Hamiltonian                  GFN1-xTB          :
 * total energy  :   -83.5801468 Eh     change       -0.6281198E-11 Eh
 * total energy  :   -83.6013794 Eh     change       -0.2123258E-01 Eh
 * total energy  :   -83.6086142 Eh     change       -0.7234783E-02 Eh
 * total energy  :   -83.6102872 Eh     change       -0.1672998E-02 Eh
 * total energy  :   -83.6112554 Eh     change       -0.9682365E-03 Eh
 * total energy  :   -83.6116366 Eh     change       -0.3811566E-03 Eh
 * total energy  :   -83.6118838 Eh     change       -0.2471777E-03 Eh
 * total energy  :   -83.6121378 Eh     change       -0.2539909E-03 Eh
 * total energy  :   -83.6124242 Eh     change       -0.2864307E-03 Eh
 * total energy  :   -83.6127136 Eh     change       -0.2893706E-03 Eh
 * total energy  :   -83.6150311 Eh     change       -0.1309611E-04 Eh
 * total energy  :   -83.6150481 Eh     change       -0.1696926E-04 Eh
 * total energy  :   -83.6150706 Eh     change       -0.2250653E-04 Eh
 * total energy  :   -83.6150776 Eh     change       -0.6991332E-05 Eh
 * total energy  :   -83.6150948 Eh     change       -0.1721016E-04 Eh
 * total energy  :   -83.6151035 Eh     change       -0.8675170E-05 Eh
 * total energy  :   -83.6151110 Eh     change       -0.7514606E-05 Eh
 * total energy  :   -83.6151164 Eh     change       -0.5387460E-05 Eh
 * total energy  :   -83.6151189 Eh     change       -0.2576920E-05 Eh
   *** GEOMETRY OPTIMIZATION CONVERGED AFTER 43 ITERATIONS ***

 final structure:
================
42
 xtb: 6.5.1 (579679a)
C           -2.82155641802941        2.11498600173449        2.52426619769630
O           -2.38875228883477        1.25948541700561        1.47488845370821
C           -2.92636712476495        1.50619681847969        0.25205638819389
O           -3.71151116625702        2.42956187716787        0.07978539371358
C           -2.56997830486577        0.46815978578345       -0.79630765748299
C           -2.65332348468906        1.08984760015511       -2.19356830012029
N           -1.24050377786409       -0.08013186794745       -0.58452983279688
C           -1.11191263050411       -1.03422302554523        0.26414548485151
C            0.28550161295902       -1.53851320052262        0.61494406459035
C            0.55876136506416       -1.23303139201930        2.09905700535754
C            0.39742834385790       -3.04639764554690        0.34372726145761
N            1.22082378237892       -0.82317372528054       -0.24100968603191
C            2.59183448106020       -0.86253424755717       -0.06458203063357
O            3.17329388469235       -1.74066475201217        0.60754239590265
C            3.24687112912281        0.18869811620816       -0.78990273197552
N            2.65025270680051        1.14426227954305       -1.50493662843356
N            3.64771158996580        1.94319015376899       -1.99354338153066
C            4.76959201417240        1.46050549019708       -1.57038983977088
C            6.12953867309191        1.99130035890265       -1.83657406600442
O            4.61634090353741        0.35365660686808       -0.80509522252447
N           -2.16073874744855       -1.60753530457337        0.90983547888639
C           -3.49842420026203       -1.56036516156881        0.37245818308237
O           -4.28487391479984       -2.47363005659802        0.76563162041151
C           -3.73116751127497       -0.54679985190526       -0.57688811001050
O           -4.80867540601801       -0.38405297814324       -1.24909627873252
H           -2.57473136939344        3.15721737476881        2.29885042772746
H           -2.30080939669864        1.80265889221613        3.42812998187815
H           -3.90306100944582        2.03303286956406        2.67271856656340
H           -1.88751300072589        1.85577355047250       -2.31420549853044
H           -2.50314945410320        0.31862635792439       -2.94865240976245
H           -3.63532714848374        1.53960630768941       -2.33891396304530
H            1.53959020837744       -1.60606652679358        2.38880410318899
H           -0.19366904540160       -1.71338503651439        2.72190349889936
H            0.52268641433033       -0.15718714567469        2.26922409408583
H            1.39801888806832       -3.39456473031676        0.59562331396859
H           -0.32273824066965       -3.59702383739890        0.94641340990799
H            0.20815608298097       -3.25044428922012       -0.71005276497013
H            0.84391547785586        0.02536263761923       -0.66095263019319
H            6.73549236801329        1.24578067854585       -2.35186535956632
H            6.05686748230475        2.88365396193650       -2.45360810422346
H            6.62925755636558        2.24052545398052       -0.90047604220161
H           -1.99314732445441       -2.40236181538074        1.50456921446557

          :  Hamiltonian                  GFN1-xTB          :
         :: total energy             -83.615118939026 Eh    ::
         :: gradient norm              0.000558755186 Eh/a0 ::
         :: HOMO-LUMO gap              0.042797904315 eV    ::
         :: SCC energy               -84.342502359526 Eh    ::
         :: -> Gsolv                  -0.271619869503 Eh    ::
         :: repulsion energy           0.754439948716 Eh    ::

    * Orbital Energies and Occupations

         #    Occupation            Energy/Eh            Energy/eV
      -------------------------------------------------------------
         1        2.0000           -0.8053191             -21.9138
       ...           ...                  ...                  ...
        56        2.0000           -0.4461210             -12.1396
        57        2.0000           -0.4431403             -12.0585
        58        2.0000           -0.4331350             -11.7862
        59        2.0000           -0.4245241             -11.5519
        60        2.0000           -0.4109649             -11.1829
        61        2.0000           -0.4076807             -11.0936
        62        2.0000           -0.4044194             -11.0048
        63        2.0000           -0.3996490             -10.8750
        64        2.0000           -0.3893778             -10.5955
        65        2.0000           -0.3807405             -10.3605
        66        2.0000           -0.3753859             -10.2148
        67        2.0000           -0.3445938              -9.3769
        68        1.3918           -0.2688603              -7.3161 (HOMO)
        69        0.6082           -0.2672875              -7.2733 (LUMO)
        70                         -0.2223025              -6.0492
        71                         -0.2133142              -5.8046
        72                         -0.2032698              -5.5313
        73                         -0.1421998              -3.8695
        74                         -0.1261753              -3.4334
        75                         -0.1222932              -3.3278
        76                         -0.1137548              -3.0954
        77                         -0.1049002              -2.8545
        78                         -0.0982590              -2.6738
        79                         -0.0883650              -2.4045
       ...                                ...                  ...
       134                          0.7150457              19.4574
      -------------------------------------------------------------
                  HL-Gap            0.0015728 Eh            0.0428 eV

Wiberg/Mayer (AO) data.
largest (>0.10) Wiberg bond orders for each atom

     #   Z sym  total        # sym  WBO       # sym  WBO       # sym  WBO
 ---------------------------------------------------------------------------
     1   6 C    3.898 --    27 H    0.987    26 H    0.981    28 H    0.981
                             2 O    0.922
     2   8 O    2.148 --     3 C    1.047     1 C    0.922     4 O    0.107
     3   6 C    3.782 --     4 O    1.592     2 O    1.047     5 C    0.949
     4   8 O    1.859 --     3 C    1.592     2 O    0.107
     5   6 C    3.957 --     6 C    0.991     7 N    0.978     3 C    0.949
                            24 C    0.873
     6   6 C    3.991 --     5 C    0.991    29 H    0.989    30 H    0.988
                            31 H    0.984
     7   7 N    2.963 --     8 C    1.649     5 C    0.978    21 N    0.149
     8   6 C    3.933 --     7 N    1.649    21 N    1.180     9 C    0.970
     9   6 C    3.952 --    11 C    0.987    10 C    0.979     8 C    0.970
                            12 N    0.950
    10   6 C    3.991 --    34 H    0.987    33 H    0.986    32 H    0.981
                             9 C    0.979
    11   6 C    3.992 --     9 C    0.987    37 H    0.987    36 H    0.985
                            35 H    0.981
    12   7 N    3.185 --    13 C    1.128     9 C    0.950    38 H    0.895
                            14 O    0.122
    13   6 C    3.772 --    14 O    1.447    15 C    1.130    12 N    1.128
    14   8 O    1.701 --    13 C    1.447    12 N    0.122
    15   6 C    3.692 --    16 N    1.411    13 C    1.130    20 O    0.982
    16   7 N    2.759 --    15 C    1.411    17 N    1.185
    17   7 N    2.980 --    18 C    1.628    16 N    1.185
    18   6 C    3.822 --    17 N    1.628    20 O    1.051    19 C    1.024
    19   6 C    3.994 --    18 C    1.024    40 H    0.986    41 H    0.971
                            39 H    0.971
    20   8 O    2.190 --    18 C    1.051    15 C    0.982
    21   7 N    3.317 --     8 C    1.180    22 C    0.944    42 H    0.914
                             7 N    0.149
    22   6 C    3.746 --    23 O    1.379    24 C    1.264    21 N    0.944
    23   8 O    1.596 --    22 C    1.379
    24   6 C    3.743 --    25 O    1.361    22 C    1.264     5 C    0.873
    25   8 O    1.571 --    24 C    1.361
    26   1 H    1.014 --     1 C    0.981
    27   1 H    1.016 --     1 C    0.987
    28   1 H    1.013 --     1 C    0.981
    29   1 H    1.011 --     6 C    0.989
    30   1 H    1.013 --     6 C    0.988
    31   1 H    1.027 --     6 C    0.984
    32   1 H    1.016 --    10 C    0.981
    33   1 H    1.006 --    10 C    0.986
    34   1 H    1.007 --    10 C    0.987
    35   1 H    1.020 --    11 C    0.981
    36   1 H    1.005 --    11 C    0.985
    37   1 H    1.009 --    11 C    0.987
    38   1 H    0.997 --    12 N    0.895
    39   1 H    1.001 --    19 C    0.971
    40   1 H    1.004 --    19 C    0.986
    41   1 H    1.001 --    19 C    0.971
    42   1 H    0.969 --    21 N    0.914
 ---------------------------------------------------------------------------

           -------------------------------------------------
          | TOTAL ENERGY              -83.615118939026 Eh   |
          | GRADIENT NORM               0.000558755186 Eh/α |
          | HOMO-LUMO GAP               0.042797904315 eV   |
           -------------------------------------------------

 * finished run on 2023/06/21 at 17:04:48.539
