                         Program Version 5.0.1 -  RELEASE  -
|  1> # ORCA input file
|  2> ! SP r2SCAN-3c CPCM
|  3>
|  4> %maxcore 1875.0
|  5> %pal nprocs 4 end
|  6> %cpcm smd true SMDsolvent "DMSO" end
|  7>
|  8> *xyz 1 1
|  9> C       3.773764    0.502465    0.620890
| 10> O       2.362012    0.359719    0.360187
| 11> C       1.959526   -0.735895   -0.210756
| 12> O       2.607386   -1.675915   -0.563284
| 13> C       0.437694   -0.705360   -0.409998
| 14> N      -0.274349   -1.704498   -1.031031
| 15> N      -1.485560   -1.358424   -1.024488
| 16> C      -1.638577   -0.100435   -0.391122
| 17> C      -2.507303   -0.221343    0.871471
| 18> C      -2.187195    0.949432   -1.371001
| 19> O      -0.306173    0.239560   -0.023498
| 20> H       4.331964    0.327781   -0.299868
| 21> H       3.909083    1.520167    0.977482
| 22> H       4.072091   -0.221138    1.380648
| 23> H      -2.061096   -0.952833    1.541830
| 24> H      -2.550981    0.751073    1.356111
| 25> H      -3.504022   -0.540916    0.577062
| 26> H      -2.238637    1.907809   -0.859998
| 27> H      -1.520497    1.018994   -2.227766
| 28> H      -3.179133    0.639755   -1.690995
| 29> **                         ****END OF INPUT****

CARTESIAN COORDINATES (ANGSTROEM)
---------------------------------
  C      3.773764    0.502465    0.620890
  O      2.362012    0.359719    0.360187
  C      1.959526   -0.735895   -0.210756
  O      2.607386   -1.675915   -0.563284
  C      0.437694   -0.705360   -0.409998
  N     -0.274349   -1.704498   -1.031031
  N     -1.485560   -1.358424   -1.024488
  C     -1.638577   -0.100435   -0.391122
  C     -2.507303   -0.221343    0.871471
  C     -2.187195    0.949432   -1.371001
  O     -0.306173    0.239560   -0.023498
  H      4.331964    0.327781   -0.299868
  H      3.909083    1.520167    0.977482
  H      4.072091   -0.221138    1.380648
  H     -2.061096   -0.952833    1.541830
  H     -2.550981    0.751073    1.356111
  H     -3.504022   -0.540916    0.577062
  H     -2.238637    1.907809   -0.859998
  H     -1.520497    1.018994   -2.227766
  H     -3.179133    0.639755   -1.690995

 Total Charge           Charge          ....    1
 Multiplicity           Mult            ....    1
 Number of Electrons    NEL             ....   82
 Basis Dimension        Dim             ....  279

ORBITAL ENERGIES
----------------

  NO   OCC          E(Eh)            E(eV)
   0   2.0000     -19.137039      -520.7453
   1   2.0000     -19.054663      -518.5038
   2   2.0000     -18.998454      -516.9742
   3   2.0000     -14.302439      -389.1891
   4   2.0000     -14.288928      -388.8215
   5   2.0000     -10.255869      -279.0764
   6   2.0000     -10.230049      -278.3738
   7   2.0000     -10.200527      -277.5704
   8   2.0000     -10.100965      -274.8612
   9   2.0000     -10.069803      -274.0133
  10   2.0000     -10.069741      -274.0116
  11   2.0000      -1.233584       -33.5675
  12   2.0000      -1.135357       -30.8946
  13   2.0000      -1.078844       -29.3568
  14   2.0000      -1.048708       -28.5368
  15   2.0000      -0.888991       -24.1907
  16   2.0000      -0.771566       -20.9954
  17   2.0000      -0.746316       -20.3083
  18   2.0000      -0.710369       -19.3301
  19   2.0000      -0.695351       -18.9215
  20   2.0000      -0.661813       -18.0088
  21   2.0000      -0.616696       -16.7811
  22   2.0000      -0.557027       -15.1575
  23   2.0000      -0.555045       -15.1035
  24   2.0000      -0.499774       -13.5996
  25   2.0000      -0.493888       -13.4394
  26   2.0000      -0.488696       -13.2981
  27   2.0000      -0.471675       -12.8349
  28   2.0000      -0.440945       -11.9987
  29   2.0000      -0.428595       -11.6627
  30   2.0000      -0.419419       -11.4130
  31   2.0000      -0.412147       -11.2151
  32   2.0000      -0.403141       -10.9700
  33   2.0000      -0.398205       -10.8357
  34   2.0000      -0.388282       -10.5657
  35   2.0000      -0.385334       -10.4855
  36   2.0000      -0.365009        -9.9324
  37   2.0000      -0.360761        -9.8168
  38   2.0000      -0.321307        -8.7432
  39   2.0000      -0.314803        -8.5662
  40   2.0000      -0.303082        -8.2473
  41   0.0000      -0.226539        -6.1644
  42   0.0000      -0.124076        -3.3763
  43   0.0000      -0.009287        -0.2527
  44   0.0000       0.033499         0.9116
  45   0.0000       0.041031         1.1165

MULLIKEN ATOMIC CHARGES
-----------------------
   0 C :   -0.282799
   1 O :   -0.157787
   2 C :    0.069148
   3 O :   -0.342117
   4 C :    0.588751
   5 N :   -0.022167
   6 N :    0.028278
   7 C :    0.009255
   8 C :   -0.399304
   9 C :   -0.397350
  10 O :    0.032593
  11 H :    0.194413
  12 H :    0.197604
  13 H :    0.199061
  14 H :    0.200771
  15 H :    0.219061
  16 H :    0.221383
  17 H :    0.219127
  18 H :    0.200655
  19 H :    0.221426
Sum of atomic charges:    1.0000000

LOEWDIN ATOMIC CHARGES
----------------------
   0 C :   -0.006080
   1 O :   -0.521937
   2 C :    0.405660
   3 O :   -0.318328
   4 C :    0.570830
   5 N :   -0.176403
   6 N :   -0.183437
   7 C :    0.279085
   8 C :   -0.256074
   9 C :   -0.255951
  10 O :   -0.312390
  11 H :    0.196120
  12 H :    0.199579
  13 H :    0.196712
  14 H :    0.192232
  15 H :    0.197160
  16 H :    0.201928
  17 H :    0.197130
  18 H :    0.192130
  19 H :    0.202034

  Mayer bond orders larger than 0.100000
B(  0-C ,  1-O ) :   0.8136 B(  0-C , 11-H ) :   0.9435 B(  0-C , 12-H ) :   0.9528
B(  0-C , 13-H ) :   0.9390 B(  1-O ,  2-C ) :   1.1872 B(  2-C ,  3-O ) :   1.8690
B(  2-C ,  4-C ) :   0.9514 B(  4-C ,  5-N ) :   1.0838 B(  4-C , 10-O ) :   1.4463
B(  5-N ,  6-N ) :   1.7171 B(  6-N ,  7-C ) :   0.8267 B(  7-C ,  8-C ) :   0.9685
B(  7-C ,  9-C ) :   0.9708 B(  7-C , 10-O ) :   0.7269 B(  8-C , 14-H ) :   0.9106
B(  8-C , 15-H ) :   0.9377 B(  8-C , 16-H ) :   0.9305 B(  9-C , 17-H ) :   0.9379
B(  9-C , 18-H ) :   0.9095 B(  9-C , 19-H ) :   0.9306

Dispersion correction           -0.005965900
FINAL SINGLE POINT ENERGY      -568.869676280861

DIPOLE MOMENT
-------------
                                X             Y             Z
Electronic contribution:      3.48240      -5.31236      -2.16558
Nuclear contribution   :     -4.95948       7.35405       2.98370
                        -----------------------------------------
Total Dipole Moment    :     -1.47707       2.04169       0.81812
                        -----------------------------------------
Magnitude (a.u.)       :      2.64945
Magnitude (Debye)      :      6.73436

Rotational constants in cm-1:     0.083908     0.022144     0.019851
Rotational constants in MHz :  2515.490843   663.856495   595.116161

                             ****ORCA TERMINATED NORMALLY****
TOTAL RUN TIME: 0 days 0 hours 0 minutes 36 seconds 706 msec
