   * xtb version 6.5.1 (579679a) compiled by 'ehlert@majestix' on 2022-07-11
          program call               : /lustre/hpc/kemi/ree/PhD/git/ReactivityQM/dep/xtb-6.5.1/bin/xtb --gfn 1 /lustre/hpc/kemi/ree/PhD/git/ReactivityQM/calculations/R01/reac01prodN07/conf13/R01_reac01prodN07_conf13_gfn1.xyz --opt --vfukui --chrg 1 --uhf 0 --alpb DMSO

   ID    Z sym.   atoms
    1    6 C      1, 3, 5, 8-10
    2    8 O      2, 4, 11
    3    7 N      6, 7
    4    1 H      12-20

      * Solvation model:               ALPB
        Solvent                        DMSO
        Solvent mass                       7.8130E+01 g/mol
          :  Hamiltonian                  GFN1-xTB          :
 * total energy  :   -37.5579051 Eh     change       -0.3581135E-11 Eh
 * total energy  :   -37.5689678 Eh     change       -0.1106275E-01 Eh
 * total energy  :   -37.5735603 Eh     change       -0.4592505E-02 Eh
 * total energy  :   -37.5743341 Eh     change       -0.7738020E-03 Eh
 * total energy  :   -37.5748456 Eh     change       -0.5114941E-03 Eh
 * total energy  :   -37.5749684 Eh     change       -0.1227915E-03 Eh
 * total energy  :   -37.5750850 Eh     change       -0.1165305E-03 Eh
 * total energy  :   -37.5751578 Eh     change       -0.7284353E-04 Eh
 * total energy  :   -37.5751947 Eh     change       -0.3688811E-04 Eh
 * total energy  :   -37.5752148 Eh     change       -0.2007542E-04 Eh
 * total energy  :   -37.5752213 Eh     change       -0.6567242E-05 Eh
 * total energy  :   -37.5752258 Eh     change       -0.4416778E-05 Eh
   *** GEOMETRY OPTIMIZATION CONVERGED AFTER 12 ITERATIONS ***

 final structure:
================
20
 xtb: 6.5.1 (579679a)
C            3.77376402326155        0.50246548718413        0.62088989192317
O            2.36201205094939        0.35971915548337        0.36018731529173
C            1.95952561576317       -0.73589464525426       -0.21075643754271
O            2.60738616220277       -1.67591519214522       -0.56328410867966
C            0.43769383701882       -0.70535968479446       -0.40999758862129
N           -0.27434919956418       -1.70449821302940       -1.03103050172158
N           -1.48555975077651       -1.35842409607196       -1.02448839014719
C           -1.63857650631573       -0.10043525901687       -0.39112243642641
C           -2.50730268534948       -0.22134290086064        0.87147141779530
C           -2.18719469146790        0.94943210806258       -1.37100119076195
O           -0.30617253167164        0.23956012205180       -0.02349755880069
H            4.33196430485405        0.32778137398017       -0.29986784025985
H            3.90908324609904        1.52016725580506        0.97748231972221
H            4.07209119480993       -0.22113787954787        1.38064806154685
H           -2.06109622856308       -0.95283333065067        1.54183004112634
H           -2.55098140444354        0.75107285791512        1.35611127866204
H           -3.50402239872200       -0.54091596167258        0.57706175418390
H           -2.23863672823800        1.90780941684567       -0.85999759623618
H           -1.52049652007049        1.01899369810893       -2.22776575219389
H           -3.17913278977577        0.63975468760742       -1.69099467886027

          :  Hamiltonian                  GFN1-xTB          :
         :: total energy             -37.575225752941 Eh    ::
         :: gradient norm              0.000623964436 Eh/a0 ::
         :: HOMO-LUMO gap              1.781515629371 eV    ::
         :: SCC energy               -37.911071674945 Eh    ::
         :: -> Gsolv                  -0.082818515323 Eh    ::
         :: repulsion energy           0.344270674319 Eh    ::

    * Orbital Energies and Occupations

         #    Occupation            Energy/Eh            Energy/eV
      -------------------------------------------------------------
         1        2.0000           -0.9573391             -26.0505
       ...           ...                  ...                  ...
        18        2.0000           -0.6147880             -16.7292
        19        2.0000           -0.6117362             -16.6462
        20        2.0000           -0.6108380             -16.6217
        21        2.0000           -0.5875152             -15.9871
        22        2.0000           -0.5857434             -15.9389
        23        2.0000           -0.5790042             -15.7555
        24        2.0000           -0.5749436             -15.6450
        25        2.0000           -0.5686276             -15.4731
        26        2.0000           -0.5557781             -15.1235
        27        2.0000           -0.5516764             -15.0119
        28        2.0000           -0.5426796             -14.7671
        29        2.0000           -0.5355150             -14.5721
        30        2.0000           -0.5252995             -14.2941 (HOMO)
        31                         -0.4598300             -12.5126 (LUMO)
        32                         -0.3770118             -10.2590
        33                         -0.2803788              -7.6295
        34                         -0.1702025              -4.6314
        35                         -0.1644082              -4.4738
        36                         -0.1598682              -4.3502
        37                         -0.1203782              -3.2757
        38                         -0.1124604              -3.0602
        39                         -0.0979498              -2.6654
        40                         -0.0950633              -2.5868
        41                         -0.0923381              -2.5126
       ...                                ...                  ...
        62                          0.7357771              20.0215
      -------------------------------------------------------------
                  HL-Gap            0.0654695 Eh            1.7815 eV

Wiberg/Mayer (AO) data.
largest (>0.10) Wiberg bond orders for each atom

     #   Z sym  total        # sym  WBO       # sym  WBO       # sym  WBO
 ---------------------------------------------------------------------------
     1   6 C    3.819 --    13 H    0.982    12 H    0.973    14 H    0.970
                             2 O    0.853
     2   8 O    2.272 --     3 C    1.203     1 C    0.853     4 O    0.174
     3   6 C    3.882 --     4 O    1.710     2 O    1.203     5 C    0.898
     4   8 O    1.998 --     3 C    1.710     2 O    0.174
     5   6 C    3.790 --    11 O    1.391     6 N    1.202     3 C    0.898
     6   7 N    3.022 --     7 N    1.675     5 C    1.202
     7   7 N    2.995 --     6 N    1.675     8 C    1.075
     8   6 C    3.813 --     7 N    1.075    10 C    0.884     9 C    0.884
                            11 O    0.867
     9   6 C    3.941 --    15 H    0.978    17 H    0.975    16 H    0.974
                             8 C    0.884
    10   6 C    3.941 --    19 H    0.978    20 H    0.975    18 H    0.974
                             8 C    0.884
    11   8 O    2.439 --     5 C    1.391     8 C    0.867
    12   1 H    0.996 --     1 C    0.973
    13   1 H    1.002 --     1 C    0.982
    14   1 H    0.996 --     1 C    0.970
    15   1 H    0.989 --     9 C    0.978
    16   1 H    0.989 --     9 C    0.974
    17   1 H    0.989 --     9 C    0.975
    18   1 H    0.989 --    10 C    0.974
    19   1 H    0.989 --    10 C    0.978
    20   1 H    0.989 --    10 C    0.975
 ---------------------------------------------------------------------------

           -------------------------------------------------
          | TOTAL ENERGY              -37.575225752941 Eh   |
          | GRADIENT NORM               0.000623964436 Eh/α |
          | HOMO-LUMO GAP               1.781515629371 eV   |
           -------------------------------------------------

 * finished run on 2023/06/20 at 14:56:45.669
