   * xtb version 6.5.1 (579679a) compiled by 'ehlert@majestix' on 2022-07-11
          program call               : /lustre/hpc/kemi/ree/PhD/git/ReactivityQM/dep/xtb-6.5.1/bin/xtb --gfn 1 /lustre/hpc/kemi/ree/PhD/git/ReactivityQM/calculations/R02oxygendeprot/reac01prodN14/conf04/R02oxygendeprot_reac01prodN14_conf04_gfn1.xyz --opt --vfukui --chrg 0 --uhf 0 --alpb DMSO

   ID    Z sym.   atoms
    1    6 C      1, 3, 5, 6, 8, 9, 12-15, 17, 19, 22, 23
    2    8 O      2, 4, 7, 10, 18, 24
    3    7 N      11, 16, 20, 21, 25
    4    1 H      26-42

      * Solvation model:               ALPB
        Solvent                        DMSO
        Solvent mass                       7.8130E+01 g/mol
          :  Hamiltonian                  GFN1-xTB          :
 * total energy  :   -82.8922088 Eh     change       -0.8952838E-12 Eh
 * total energy  :   -82.9098956 Eh     change       -0.1768682E-01 Eh
 * total energy  :   -82.9198822 Eh     change       -0.9986537E-02 Eh
 * total energy  :   -82.9219605 Eh     change       -0.2078366E-02 Eh
 * total energy  :   -82.9234766 Eh     change       -0.1516077E-02 Eh
 * total energy  :   -82.9243062 Eh     change       -0.8296058E-03 Eh
 * total energy  :   -82.9251272 Eh     change       -0.8209827E-03 Eh
 * total energy  :   -82.9258599 Eh     change       -0.7326712E-03 Eh
 * total energy  :   -82.9265846 Eh     change       -0.7247622E-03 Eh
 * total energy  :   -82.9273217 Eh     change       -0.7370400E-03 Eh
 * total energy  :   -82.9759347 Eh     change       -0.1231354E-04 Eh
 * total energy  :   -82.9759722 Eh     change       -0.3743226E-04 Eh
 * total energy  :   -82.9759872 Eh     change       -0.1505920E-04 Eh
 * total energy  :   -82.9759954 Eh     change       -0.8176878E-05 Eh
 * total energy  :   -82.9760190 Eh     change       -0.2364852E-04 Eh
 * total energy  :   -82.9760344 Eh     change       -0.1538864E-04 Eh
 * total energy  :   -82.9760414 Eh     change       -0.6934107E-05 Eh
 * total energy  :   -82.9760486 Eh     change       -0.7255412E-05 Eh
 * total energy  :   -82.9760523 Eh     change       -0.3702769E-05 Eh
   *** GEOMETRY OPTIMIZATION CONVERGED AFTER 95 ITERATIONS ***

 final structure:
================
42
 xtb: 6.5.1 (579679a)
C           -6.72272461841680        0.30833302134466        0.85016361178421
O           -5.40966296613458        0.37556198379898        0.29144573024490
C           -4.48593526292505       -0.42678118363244        0.85036845436418
O           -4.73448048057332       -1.17317454052563        1.77544897103817
C           -3.17859703384333       -0.28253595537087        0.22537064620046
C           -2.85091567121958        0.53542718769200       -0.83612884266637
O           -3.31185762509404        1.34314288236070       -1.58402899611196
C           -0.50800500406908        1.46737950752778       -0.87489051979814
C           -0.60789550851368        2.09781931221719        0.46753783605105
O            0.05288461301619        1.90179299696161       -1.83222418371540
N           -1.23582169723417        0.19911161383119       -1.01976095222051
C           -1.04373403986741       -0.82170660671425        0.02994627530071
C            0.23368309998610       -1.60438793733174        0.15620504383330
C            0.27883658507630       -2.66565764458917       -0.95725059930714
C            0.26092575727820       -2.25499390492577        1.54430049701311
N            1.37615158192863       -0.70075185520442        0.00481587403215
C            2.66587977414937       -1.10952077879252        0.06937240625531
O            3.04338084889716       -2.23097575147577        0.34840908632651
C            3.57542636603654        0.02338141110131       -0.23581130899669
N            3.20548051992050        1.23409701404114       -0.53059397690363
N            4.34263164181997        1.95002840309013       -0.74771872144486
C            5.33533349303683        1.13040875521336       -0.57157359344688
C            6.78007650722101        1.42519102599876       -0.68835607930248
O            4.91408841117063       -0.10049608548145       -0.24568948556888
N           -2.11152605874701       -1.05358500329515        0.67462333511768
H           -7.12619770622263       -0.70280327617365        0.75056046543220
H           -7.33549657934485        1.01419222970704        0.29236687318390
H           -6.69903524907136        0.58379664935706        1.90781123260153
H            0.31184879967659        2.64039169619307        0.67440627653098
H           -0.80657600833106        1.36851306204834        1.24764265308003
H           -1.42706428271847        2.81809310137527        0.43608886002061
H           -1.08304236807797       -0.15269908779339       -1.96274647297872
H           -0.61141312971690       -3.28926259077220       -0.90381051609959
H            1.16207829050308       -3.28994099584688       -0.83416706172950
H            0.31908444091640       -2.17969739317338       -1.93012557225933
H            1.14096752550321       -2.88631636661218        1.64546989094570
H            0.27981177188050       -1.48367830866856        2.31259296186483
H           -0.63321429774636       -2.86284459696381        1.67377527729444
H            1.21644319575479        0.23636131469491       -0.33136518108768
H            7.26401670039388        1.30237909509362        0.28077469292849
H            6.91703130284588        2.44645965515476       -1.03492994042537
H            7.24713236084545        0.73302494454388       -1.38832494738800

          :  Hamiltonian                  GFN1-xTB          :
         :: total energy             -82.976052317803 Eh    ::
         :: gradient norm              0.000573667426 Eh/a0 ::
         :: HOMO-LUMO gap              2.623331788783 eV    ::
         :: SCC energy               -83.774724917760 Eh    ::
         :: -> Gsolv                  -0.056571008559 Eh    ::
         :: repulsion energy           0.825960221257 Eh    ::

    * Orbital Energies and Occupations

         #    Occupation            Energy/Eh            Energy/eV
      -------------------------------------------------------------
         1        2.0000           -0.8668264             -23.5875
       ...           ...                  ...                  ...
        55        2.0000           -0.5090508             -13.8520
        56        2.0000           -0.5077234             -13.8159
        57        2.0000           -0.5066181             -13.7858
        58        2.0000           -0.4956774             -13.4881
        59        2.0000           -0.4884322             -13.2909
        60        2.0000           -0.4859237             -13.2227
        61        2.0000           -0.4723405             -12.8530
        62        2.0000           -0.4689521             -12.7608
        63        2.0000           -0.4655256             -12.6676
        64        2.0000           -0.4624199             -12.5831
        65        2.0000           -0.4559929             -12.4082
        66        2.0000           -0.4526655             -12.3177
        67        2.0000           -0.4211835             -11.4610 (HOMO)
        68                         -0.3247778              -8.8377 (LUMO)
        69                         -0.3155178              -8.5857
        70                         -0.3056867              -8.3182
        71                         -0.2756279              -7.5002
        72                         -0.2595875              -7.0637
        73                         -0.2033706              -5.5340
        74                         -0.1684977              -4.5851
        75                         -0.1639142              -4.4603
        76                         -0.1579120              -4.2970
        77                         -0.1433339              -3.9003
        78                         -0.1429520              -3.8899
       ...                                ...                  ...
       134                          0.8535353              23.2259
      -------------------------------------------------------------
                  HL-Gap            0.0964057 Eh            2.6233 eV

Wiberg/Mayer (AO) data.
largest (>0.10) Wiberg bond orders for each atom

     #   Z sym  total        # sym  WBO       # sym  WBO       # sym  WBO
 ---------------------------------------------------------------------------
     1   6 C    3.878 --    27 H    0.986    28 H    0.981    26 H    0.981
                             2 O    0.904
     2   8 O    2.169 --     3 C    1.075     1 C    0.904     4 O    0.120
     3   6 C    3.864 --     4 O    1.617     5 C    1.078     2 O    1.075
     4   8 O    1.896 --     3 C    1.617     2 O    0.120
     5   6 C    3.885 --     6 C    1.361    25 N    1.109     3 C    1.078
                             7 O    0.140
     6   6 C    3.863 --     7 O    1.703     5 C    1.361    11 N    0.625
     7   8 O    2.053 --     6 C    1.703     5 C    0.140
     8   6 C    3.833 --    10 O    1.800     9 C    1.021    11 N    0.909
     9   6 C    3.984 --     8 C    1.021    30 H    0.976    29 H    0.965
                            31 H    0.935
    10   8 O    2.034 --     8 C    1.800
    11   7 N    3.543 --     8 C    0.909    12 C    0.873    32 H    0.868
                             6 C    0.625
    12   6 C    3.891 --    25 N    1.776    13 C    0.990    11 N    0.873
    13   6 C    3.933 --    12 C    0.990    15 C    0.986    14 C    0.968
                            16 N    0.923
    14   6 C    3.985 --    33 H    0.985    35 H    0.984    34 H    0.977
                            13 C    0.968
    15   6 C    3.986 --    13 C    0.986    37 H    0.985    38 H    0.984
                            36 H    0.980
    16   7 N    3.325 --    17 C    1.233    13 C    0.923    39 H    0.890
                            18 O    0.174
    17   6 C    3.914 --    18 O    1.606    16 N    1.233    19 C    0.990
    18   8 O    1.922 --    17 C    1.606    16 N    0.174
    19   6 C    3.877 --    20 N    1.606    24 O    1.066    17 C    0.990
    20   7 N    3.022 --    19 C    1.606    21 N    1.203
    21   7 N    2.981 --    22 C    1.602    20 N    1.203
    22   6 C    3.870 --    21 N    1.602    24 O    1.083    23 C    1.032
    23   6 C    3.986 --    22 C    1.032    41 H    0.982    42 H    0.965
                            40 H    0.961
    24   8 O    2.332 --    22 C    1.083    19 C    1.066
    25   7 N    3.059 --    12 C    1.776     5 C    1.109
    26   1 H    1.009 --     1 C    0.981
    27   1 H    1.012 --     1 C    0.986
    28   1 H    1.009 --     1 C    0.981
    29   1 H    0.995 --     9 C    0.965
    30   1 H    0.997 --     9 C    0.976
    31   1 H    0.990 --     9 C    0.935
    32   1 H    0.918 --    11 N    0.868
    33   1 H    1.000 --    14 C    0.985
    34   1 H    1.004 --    14 C    0.977
    35   1 H    1.000 --    14 C    0.984
    36   1 H    1.009 --    15 C    0.980
    37   1 H    1.003 --    15 C    0.985
    38   1 H    1.008 --    15 C    0.984
    39   1 H    0.960 --    16 N    0.890
    40   1 H    0.996 --    23 C    0.961
    41   1 H    0.998 --    23 C    0.982
    42   1 H    0.996 --    23 C    0.965
 ---------------------------------------------------------------------------

           -------------------------------------------------
          | TOTAL ENERGY              -82.976052317803 Eh   |
          | GRADIENT NORM               0.000573667426 Eh/α |
          | HOMO-LUMO GAP               2.623331788783 eV   |
           -------------------------------------------------

 * finished run on 2023/06/21 at 17:33:34.578
