   * xtb version 6.5.1 (579679a) compiled by 'ehlert@majestix' on 2022-07-11
          program call               : /lustre/hpc/kemi/ree/PhD/git/ReactivityQM/dep/xtb-6.5.1/bin/xtb --gfn 1 /lustre/hpc/kemi/ree/PhD/git/ReactivityQM/calculations/R03/reac01prodE04/conf08/R03_reac01prodE04_conf08_gfn1.xyz --opt --vfukui --chrg -1 --uhf 0 --alpb DMSO

   ID    Z sym.   atoms
    1    6 C      1, 2, 4-7, 9, 10
    2    9 F      3
    3    7 N      8
    4    1 H      11-21

      * Solvation model:               ALPB
        Solvent                        DMSO
        Solvent mass                       7.8130E+01 g/mol
          :  Hamiltonian                  GFN1-xTB          :
 * total energy  :   -31.4694766 Eh     change       -0.1918465E-10 Eh
 * total energy  :   -31.4755264 Eh     change       -0.6049797E-02 Eh
 * total energy  :   -31.4786316 Eh     change       -0.3105163E-02 Eh
 * total energy  :   -31.4805749 Eh     change       -0.1943285E-02 Eh
 * total energy  :   -31.4831062 Eh     change       -0.2531371E-02 Eh
 * total energy  :   -31.4885602 Eh     change       -0.5453982E-02 Eh
 * total energy  :   -31.4951204 Eh     change       -0.6560164E-02 Eh
 * total energy  :   -31.4982292 Eh     change       -0.3108770E-02 Eh
 * total energy  :   -31.5010934 Eh     change       -0.2864205E-02 Eh
 * total energy  :   -31.5032521 Eh     change       -0.2158686E-02 Eh
 * total energy  :   -31.5124564 Eh     change       -0.2244802E-04 Eh
 * total energy  :   -31.5124782 Eh     change       -0.2185369E-04 Eh
 * total energy  :   -31.5125136 Eh     change       -0.3537334E-04 Eh
 * total energy  :   -31.5125382 Eh     change       -0.2463282E-04 Eh
 * total energy  :   -31.5125540 Eh     change       -0.1575542E-04 Eh
 * total energy  :   -31.5125693 Eh     change       -0.1529735E-04 Eh
 * total energy  :   -31.5125780 Eh     change       -0.8731823E-05 Eh
 * total energy  :   -31.5125841 Eh     change       -0.6105309E-05 Eh
 * total energy  :   -31.5125884 Eh     change       -0.4311503E-05 Eh
   *** GEOMETRY OPTIMIZATION CONVERGED AFTER 59 ITERATIONS ***

 final structure:
================
21
 xtb: 6.5.1 (579679a)
C            3.10998673881181        0.07576221458315        0.13802101244439
C            1.62104807165528        0.01625817583806        0.30689951279088
F            3.63460156766408        1.36994523861370       -2.58274192651554
C            0.91633787435872       -1.16280656048152        0.06748957858436
C           -0.46481014445489       -1.20380936330428        0.19352717667137
C           -1.17893186665872       -0.06508048630237        0.55907166885807
C           -2.68477467024925       -0.10562912561973        0.66058574456481
N           -3.28489047422140       -0.10661868420367       -0.68274517472350
C           -0.47710248405196        1.11243894197967        0.80517878482179
C            0.90429139115479        1.15172307155600        0.68433106916319
H            3.56390368200305        0.69637463842559        0.91145316516755
H            3.35143686776887        0.52082238041280       -0.84094723555125
H            3.54928917479537       -0.92092201469993        0.18095750321196
H            1.45118268119098       -2.06475679537195       -0.21311877148666
H           -0.99274743518734       -2.13358797931287        0.01171211531754
H           -3.04948695304326        0.78005494168246        1.19070340483086
H           -3.00192666105322       -0.99731833671894        1.22223098139414
H           -4.28609688394022       -0.04557095829675       -0.56934719147230
H           -3.09713037240945       -1.00225592287326       -1.11758951911763
H           -1.01455454916720        2.00655428327017        1.10492014228372
H            1.43037344501044        2.07842034077299        0.89265695877700

          :  Hamiltonian                  GFN1-xTB          :
         :: total energy             -31.512588448507 Eh    ::
         :: gradient norm              0.000325257512 Eh/a0 ::
         :: HOMO-LUMO gap              2.427228584584 eV    ::
         :: SCC energy               -31.915534635560 Eh    ::
         :: -> Gsolv                  -0.130985222932 Eh    ::
         :: repulsion energy           0.412549523403 Eh    ::

    * Orbital Energies and Occupations

         #    Occupation            Energy/Eh            Energy/eV
      -------------------------------------------------------------
         1        2.0000           -0.7367972             -20.0493
       ...           ...                  ...                  ...
        16        2.0000           -0.5060203             -13.7695
        17        2.0000           -0.4950892             -13.4721
        18        2.0000           -0.4827846             -13.1372
        19        2.0000           -0.4746843             -12.9168
        20        2.0000           -0.4733089             -12.8794
        21        2.0000           -0.4488193             -12.2130
        22        2.0000           -0.4469227             -12.1614
        23        2.0000           -0.4213836             -11.4664
        24        2.0000           -0.4069808             -11.0745
        25        2.0000           -0.3955410             -10.7632
        26        2.0000           -0.3329422              -9.0598
        27        2.0000           -0.3329398              -9.0598
        28        2.0000           -0.3324832              -9.0473 (HOMO)
        29                         -0.2432842              -6.6201 (LUMO)
        30                         -0.2397490              -6.5239
        31                         -0.1199748              -3.2647
        32                         -0.1044466              -2.8421
        33                         -0.0998894              -2.7181
        34                         -0.0978470              -2.6626
        35                         -0.0854465              -2.3251
        36                         -0.0790673              -2.1515
        37                         -0.0727993              -1.9810
        38                         -0.0569538              -1.5498
        39                         -0.0416246              -1.1327
       ...                                ...                  ...
        62                          0.6640999              18.0711
      -------------------------------------------------------------
                  HL-Gap            0.0891990 Eh            2.4272 eV

Wiberg/Mayer (AO) data.
largest (>0.10) Wiberg bond orders for each atom

     #   Z sym  total        # sym  WBO       # sym  WBO       # sym  WBO
 ---------------------------------------------------------------------------
     1   6 C    3.989 --     2 C    1.030    13 H    0.986    11 H    0.982
                            12 H    0.931
     2   6 C    3.987 --     4 C    1.407    10 C    1.405     1 C    1.030
                             6 C    0.106
     3   9 F    0.096
     4   6 C    3.995 --     5 C    1.451     2 C    1.407    14 H    0.973
                             9 C    0.107
     5   6 C    3.996 --     4 C    1.451     6 C    1.414    15 H    0.974
                            10 C    0.109
     6   6 C    3.988 --     9 C    1.415     5 C    1.414     7 C    1.005
                             2 C    0.106
     7   6 C    3.979 --     6 C    1.005     8 N    0.984    16 H    0.981
                            17 H    0.972
     8   7 N    2.932 --     7 C    0.984    19 H    0.954    18 H    0.950
     9   6 C    3.996 --    10 C    1.452     6 C    1.415    20 H    0.973
                             4 C    0.107
    10   6 C    3.995 --     9 C    1.452     2 C    1.405    21 H    0.974
                             5 C    0.109
    11   1 H    1.007 --     1 C    0.982
    12   1 H    1.039 --     1 C    0.931
    13   1 H    1.006 --     1 C    0.986
    14   1 H    1.004 --     4 C    0.973
    15   1 H    1.002 --     5 C    0.974
    16   1 H    1.013 --     7 C    0.981
    17   1 H    1.005 --     7 C    0.972
    18   1 H    0.963 --     8 N    0.950
    19   1 H    0.969 --     8 N    0.954
    20   1 H    1.004 --     9 C    0.973
    21   1 H    1.003 --    10 C    0.974
 ---------------------------------------------------------------------------

           -------------------------------------------------
          | TOTAL ENERGY              -31.512588448507 Eh   |
          | GRADIENT NORM               0.000325257512 Eh/α |
          | HOMO-LUMO GAP               2.427228584584 eV   |
           -------------------------------------------------

 * finished run on 2023/06/20 at 15:13:48.357
