   * xtb version 6.5.1 (579679a) compiled by 'ehlert@majestix' on 2022-07-11
          program call               : /lustre/hpc/kemi/ree/PhD/git/ReactivityQM/dep/xtb-6.5.1/bin/xtb --gfn 1 /lustre/hpc/kemi/ree/PhD/git/ReactivityQM/calculations/R03/reac01prodN04/conf03/R03_reac01prodN04_conf03_gfn1.xyz --opt --vfukui --chrg 1 --uhf 0 --alpb DMSO

   ID    Z sym.   atoms
    1    6 C      1-5, 7-9
    2    7 N      6
    3    9 F      10
    4    1 H      11-21

      * Solvation model:               ALPB
        Solvent                        DMSO
        Solvent mass                       7.8130E+01 g/mol
          :  Hamiltonian                  GFN1-xTB          :
 * total energy  :   -30.7635261 Eh     change       -0.1168843E-10 Eh
 * total energy  :   -30.7677443 Eh     change       -0.4218210E-02 Eh
 * total energy  :   -30.7689098 Eh     change       -0.1165473E-02 Eh
 * total energy  :   -30.7690655 Eh     change       -0.1557087E-03 Eh
 * total energy  :   -30.7691989 Eh     change       -0.1333853E-03 Eh
 * total energy  :   -30.7692741 Eh     change       -0.7518096E-04 Eh
 * total energy  :   -30.7693791 Eh     change       -0.1050089E-03 Eh
 * total energy  :   -30.7693324 Eh     change        0.4666305E-04 Eh
 * total energy  :   -30.7694534 Eh     change       -0.1209970E-03 Eh
 * total energy  :   -30.7694993 Eh     change       -0.4583544E-04 Eh
 * total energy  :   -30.7696537 Eh     change       -0.2463563E-04 Eh
 * total energy  :   -30.7696656 Eh     change       -0.1196003E-04 Eh
 * total energy  :   -30.7696760 Eh     change       -0.1038278E-04 Eh
 * total energy  :   -30.7696876 Eh     change       -0.1157215E-04 Eh
 * total energy  :   -30.7697003 Eh     change       -0.1273106E-04 Eh
 * total energy  :   -30.7696987 Eh     change        0.1594203E-05 Eh
 * total energy  :   -30.7697064 Eh     change       -0.7715011E-05 Eh
 * total energy  :   -30.7697127 Eh     change       -0.6309329E-05 Eh
 * total energy  :   -30.7697159 Eh     change       -0.3166262E-05 Eh
   *** GEOMETRY OPTIMIZATION CONVERGED AFTER 23 ITERATIONS ***

 final structure:
================
21
 xtb: 6.5.1 (579679a)
C            2.22468668260106        1.51401573588555        0.50239585448692
C            1.32238644298722        0.57996046758356       -0.34448835423625
C           -0.09964440640210        0.62694790527447        0.02757361556598
C           -0.86210004425669       -0.50012777748632        0.19095000230511
C           -2.31986922243650       -0.38514482427760        0.56578887930459
N           -2.82679892806550        0.92722694489324        0.19221225879216
C           -0.26054103854959       -1.76597975961780        0.03729603682998
C            1.08382289704979       -1.91228861401632       -0.29940554713914
C            1.84668888891576       -0.78571414232044       -0.46239352127627
F            3.11500563640577       -0.89365882661778       -0.76032606630294
H            3.24456544748552        1.46600629365390        0.12709504422618
H            1.85604130063935        2.53408429355442        0.42882423041916
H            2.20151751374716        1.19182522628598        1.54095518765771
H            1.37326077595531        1.00217284105432       -1.36658872899676
H           -0.55589626610088        1.60348458663932        0.15812057160075
H           -2.88827757793018       -1.19794346928958        0.09644501392150
H           -2.40289203741502       -0.49716562154558        1.65137769857271
H           -3.03902446895131        0.93468061225503       -0.79546325104996
H           -3.68101658852546        1.10881223464262        0.69954288157791
H           -0.85954762125539       -2.65697790021938        0.19198223917614
H            1.52763361410105       -2.89421720633124       -0.41067504543493

          :  Hamiltonian                  GFN1-xTB          :
         :: total energy             -30.769715910854 Eh    ::
         :: gradient norm              0.000536416618 Eh/a0 ::
         :: HOMO-LUMO gap              0.340277318540 eV    ::
         :: SCC energy               -31.161757812880 Eh    ::
         :: -> Gsolv                  -0.081750803487 Eh    ::
         :: repulsion energy           0.401893466915 Eh    ::

    * Orbital Energies and Occupations

         #    Occupation            Energy/Eh            Energy/eV
      -------------------------------------------------------------
         1        2.0000           -0.9458060             -25.7367
       ...           ...                  ...                  ...
        15        2.0000           -0.5994912             -16.3130
        16        2.0000           -0.5958823             -16.2148
        17        2.0000           -0.5877414             -15.9933
        18        2.0000           -0.5807714             -15.8036
        19        2.0000           -0.5632773             -15.3276
        20        2.0000           -0.5564724             -15.1424
        21        2.0000           -0.5484992             -14.9254
        22        2.0000           -0.5455333             -14.8447
        23        2.0000           -0.5325701             -14.4920
        24        2.0000           -0.5276164             -14.3572
        25        2.0000           -0.5201488             -14.1540
        26        2.0000           -0.4966413             -13.5143
        27        1.9972           -0.4292019             -11.6792 (HOMO)
        28        0.0028           -0.4166970             -11.3389 (LUMO)
        29                         -0.3260067              -8.8711
        30                         -0.2464902              -6.7073
        31                         -0.1593510              -4.3362
        32                         -0.1534129              -4.1746
        33                         -0.1476341              -4.0173
        34                         -0.1366425              -3.7182
        35                         -0.1243974              -3.3850
        36                         -0.1171607              -3.1881
        37                         -0.1043252              -2.8388
        38                         -0.0929484              -2.5293
       ...                                ...                  ...
        62                          0.5452423              14.8368
      -------------------------------------------------------------
                  HL-Gap            0.0125050 Eh            0.3403 eV

Wiberg/Mayer (AO) data.
largest (>0.10) Wiberg bond orders for each atom

     #   Z sym  total        # sym  WBO       # sym  WBO       # sym  WBO
 ---------------------------------------------------------------------------
     1   6 C    3.965 --    13 H    0.983    12 H    0.983    11 H    0.982
                             2 C    0.916
     2   6 C    3.989 --     3 C    1.087     9 C    1.068     1 C    0.916
                            14 H    0.833
     3   6 C    3.950 --     4 C    1.544     2 C    1.087    15 H    0.956
     4   6 C    3.977 --     3 C    1.544     7 C    1.314     5 C    1.002
     5   6 C    3.977 --     6 N    1.007     4 C    1.002    16 H    0.963
                            17 H    0.954
     6   7 N    2.961 --     5 C    1.007    18 H    0.940    19 H    0.931
     7   6 C    3.944 --     8 C    1.403     4 C    1.314    20 H    0.964
     8   6 C    3.982 --     9 C    1.469     7 C    1.403    21 H    0.956
     9   6 C    3.841 --     8 C    1.469     2 C    1.068    10 F    1.030
    10   9 F    1.197 --     9 C    1.030
    11   1 H    0.996 --     1 C    0.982
    12   1 H    0.993 --     1 C    0.983
    13   1 H    0.995 --     1 C    0.983
    14   1 H    0.977 --     2 C    0.833
    15   1 H    1.010 --     3 C    0.956
    16   1 H    0.997 --     5 C    0.963
    17   1 H    1.002 --     5 C    0.954
    18   1 H    0.950 --     6 N    0.940
    19   1 H    0.945 --     6 N    0.931
    20   1 H    0.990 --     7 C    0.964
    21   1 H    0.984 --     8 C    0.956
 ---------------------------------------------------------------------------

           -------------------------------------------------
          | TOTAL ENERGY              -30.769715910854 Eh   |
          | GRADIENT NORM               0.000536416618 Eh/α |
          | HOMO-LUMO GAP               0.340277318540 eV   |
           -------------------------------------------------

 * finished run on 2023/06/20 at 15:14:34.586
