   * xtb version 6.5.1 (579679a) compiled by 'ehlert@majestix' on 2022-07-11
          program call               : /lustre/hpc/kemi/ree/PhD/git/ReactivityQM/dep/xtb-6.5.1/bin/xtb --gfn 1 /lustre/hpc/kemi/ree/PhD/git/ReactivityQM/calculations/RaltegravirCLI/reac02prodN14/conf04/RaltegravirCLI_reac02prodN14_conf04_gfn1.xyz --opt --vfukui --chrg 1 --uhf 0 --alpb DMSO

   ID    Z sym.   atoms
    1    6 C      1-3, 5, 7, 8, 11-15, 17-19, 21, 24, 25
    2    7 N      4, 6, 10, 23
    3    8 O      9, 20, 22
    4    9 F      16
    5    1 H      26-47

      * Solvation model:               ALPB
        Solvent                        DMSO
        Solvent mass                       7.8130E+01 g/mol
          :  Hamiltonian                  GFN1-xTB          :
 * total energy  :   -79.4639739 Eh     change       -0.7737810E-10 Eh
 * total energy  :   -79.4761372 Eh     change       -0.1216334E-01 Eh
 * total energy  :   -79.4803604 Eh     change       -0.4223176E-02 Eh
 * total energy  :   -79.4811743 Eh     change       -0.8139104E-03 Eh
 * total energy  :   -79.4815638 Eh     change       -0.3895463E-03 Eh
 * total energy  :   -79.4817203 Eh     change       -0.1564500E-03 Eh
 * total energy  :   -79.4818375 Eh     change       -0.1171957E-03 Eh
 * total energy  :   -79.4819219 Eh     change       -0.8441751E-04 Eh
 * total energy  :   -79.4819748 Eh     change       -0.5290255E-04 Eh
 * total energy  :   -79.4820107 Eh     change       -0.3595039E-04 Eh
 * total energy  :   -79.4823423 Eh     change       -0.4187236E-04 Eh
 * total energy  :   -79.4823812 Eh     change       -0.3886754E-04 Eh
 * total energy  :   -79.4823952 Eh     change       -0.1397838E-04 Eh
 * total energy  :   -79.4824177 Eh     change       -0.2252662E-04 Eh
 * total energy  :   -79.4824245 Eh     change       -0.6826543E-05 Eh
 * total energy  :   -79.4824403 Eh     change       -0.1576791E-04 Eh
 * total energy  :   -79.4824449 Eh     change       -0.4598392E-05 Eh
 * total energy  :   -79.4824554 Eh     change       -0.1047850E-04 Eh
 * total energy  :   -79.4824600 Eh     change       -0.4648186E-05 Eh
   *** GEOMETRY OPTIMIZATION CONVERGED AFTER 28 ITERATIONS ***

 final structure:
================
47
 xtb: 6.5.1 (579679a)
C           -2.92910543597481        2.13748381216032       -1.23507743507863
C           -3.19427308348172        1.20611462941820       -0.03883485811444
C           -2.88667395559186        1.94528914874171        1.27504426007342
N           -4.58547724942514        0.78293743527469       -0.03255585222331
C           -2.22015776789754        0.04408048991019       -0.13091067826010
N           -1.01908357734759        0.31389251078991       -0.41109271625598
C            0.02288627969537       -0.58692259854854       -0.48526084931859
C            1.31308134148272        0.06502427376532       -0.92188214496430
O            1.32424337018023        1.24201638520646       -1.24737444415738
N            2.39723016719273       -0.72335782594757       -0.94114595285414
C            3.69379127554719       -0.19818966967745       -1.36979811181034
C            4.49251822772801        0.30791225551010       -0.18774762718162
C            4.12725283034985        1.49623986912928        0.44323708166044
C            4.84956404864597        1.96818432415863        1.52922251983906
C            5.93808320530230        1.23273824394638        1.96390329551323
F            6.64403052984238        1.68534637890744        3.01165876544309
C            6.32822656909671        0.05110696312123        1.36073257057763
C            5.59139933033301       -0.40925703872662        0.27749989685817
C           -0.20321234419847       -1.89289634939093       -0.17628580374732
O            0.75239736003029       -2.83055190038521       -0.17436322369282
C           -1.52684413021108       -2.36429398992497        0.18245762207603
O           -1.79318026669840       -3.49487554869005        0.47606952282850
N           -2.65415029624217       -1.36426321793642        0.13130514972462
C           -3.52018372606798       -1.82997813429348       -0.99931478260824
C           -3.38575875518782       -1.48017168470016        1.42964189948128
H           -3.59723716852709        2.99427175195815       -1.17347673902516
H           -3.11550245881173        1.60691065193147       -2.16734286460429
H           -1.89572721301036        2.48290975372968       -1.22349010620644
H           -3.12225565973081        1.31465396484799        2.13003665958081
H           -3.49256716196667        2.84853690648567        1.32617704933150
H           -1.83306177648343        2.21873868223732        1.31324771816939
H           -5.12948764187086        1.39531401192020        0.55981521431506
H           -4.97331697167170        0.84165782826783       -0.96475877117679
H            2.36063132612820       -1.67671200657757       -0.62710687610467
H            4.22575982982394       -1.00538844394353       -1.87756329705947
H            3.50612724568749        0.61459771127762       -2.07861122441525
H            3.27288979338533        2.05655921733745        0.08223039047719
H            4.57599663442767        2.88774215079492        2.03053169440456
H            7.18557736452230       -0.49616388280372        1.73037473039824
H            5.87962236057800       -1.33324264947435       -0.20947203795893
H            0.40125128164659       -3.70501785007842        0.06495991302632
H           -4.44244453692528       -1.26081846555309       -0.97238409454946
H           -3.72196701364124       -2.88793637985271       -0.84829198929493
H           -2.98659695008382       -1.66695206265938       -1.93194580470171
H           -4.28062055392934       -0.86809352185723        1.36622428047614
H           -2.72840225559134       -1.13816349969767        2.22475221807726
H           -3.64527442105555       -2.52701363011004        1.56952883303762

          :  Hamiltonian                  GFN1-xTB          :
         :: total energy             -79.482460004180 Eh    ::
         :: gradient norm              0.000839183213 Eh/a0 ::
         :: HOMO-LUMO gap              1.280580050351 eV    ::
         :: SCC energy               -80.381571268817 Eh    ::
         :: -> Gsolv                  -0.113805832379 Eh    ::
         :: repulsion energy           0.930445966669 Eh    ::

    * Orbital Energies and Occupations

         #    Occupation            Energy/Eh            Energy/eV
      -------------------------------------------------------------
         1        2.0000           -0.8926443             -24.2901
       ...           ...                  ...                  ...
        55        2.0000           -0.5182755             -14.1030
        56        2.0000           -0.5151708             -14.0185
        57        2.0000           -0.5121483             -13.9363
        58        2.0000           -0.5088824             -13.8474
        59        2.0000           -0.5070534             -13.7976
        60        2.0000           -0.4870855             -13.2543
        61        2.0000           -0.4783561             -13.0167
        62        2.0000           -0.4751688             -12.9300
        63        2.0000           -0.4707109             -12.8087
        64        2.0000           -0.4562805             -12.4160
        65        2.0000           -0.4544713             -12.3668
        66        2.0000           -0.4423771             -12.0377
        67        2.0000           -0.4377405             -11.9115 (HOMO)
        68                         -0.3906800             -10.6309 (LUMO)
        69                         -0.3192676              -8.6877
        70                         -0.2789850              -7.5916
        71                         -0.2781184              -7.5680
        72                         -0.2718367              -7.3971
        73                         -0.2000462              -5.4435
        74                         -0.1630935              -4.4380
        75                         -0.1580377              -4.3004
        76                         -0.1512487              -4.1157
        77                         -0.1389268              -3.7804
        78                         -0.1344891              -3.6596
       ...                                ...                  ...
       144                          0.7099373              19.3184
      -------------------------------------------------------------
                  HL-Gap            0.0470605 Eh            1.2806 eV

Wiberg/Mayer (AO) data.
largest (>0.10) Wiberg bond orders for each atom

     #   Z sym  total        # sym  WBO       # sym  WBO       # sym  WBO
 ---------------------------------------------------------------------------
     1   6 C    3.988 --    27 H    0.985    26 H    0.983    28 H    0.981
                             2 C    0.973
     2   6 C    3.958 --     4 N    0.994     5 C    0.983     1 C    0.973
                             3 C    0.966
     3   6 C    3.986 --    31 H    0.984    29 H    0.983    30 H    0.979
                             2 C    0.966
     4   7 N    2.996 --     2 C    0.994    33 H    0.931    32 H    0.928
     5   6 C    3.888 --     6 N    1.774     2 C    0.983    23 N    0.870
     6   7 N    3.088 --     5 C    1.774     7 C    1.119
     7   6 C    3.954 --    19 C    1.531     6 N    1.119     8 C    0.976
     8   6 C    3.919 --     9 O    1.580    10 N    1.288     7 C    0.976
     9   8 O    1.898 --     8 C    1.580    10 N    0.187
    10   7 N    3.380 --     8 C    1.288    11 C    0.932    34 H    0.884
                             9 O    0.187
    11   6 C    3.937 --    12 C    0.992    35 H    0.976    36 H    0.967
                            10 N    0.932
    12   6 C    3.987 --    18 C    1.423    13 C    1.414    11 C    0.992
    13   6 C    3.992 --    14 C    1.448    12 C    1.414    37 H    0.969
                            17 C    0.111
    14   6 C    3.992 --    13 C    1.448    15 C    1.397    38 H    0.969
                            18 C    0.110
    15   6 C    3.861 --    17 C    1.403    14 C    1.397    16 F    0.927
    16   9 F    1.056 --    15 C    0.927
    17   6 C    3.991 --    18 C    1.440    15 C    1.403    39 H    0.969
                            13 C    0.111
    18   6 C    3.993 --    17 C    1.440    12 C    1.423    40 H    0.970
                            14 C    0.110
    19   6 C    3.924 --     7 C    1.531    20 O    1.096    21 C    1.076
    20   8 O    2.089 --    19 C    1.096    41 H    0.789
    21   6 C    3.870 --    22 O    1.753    19 C    1.076    23 N    0.861
    22   8 O    2.047 --    21 C    1.753
    23   7 N    3.622 --    25 C    0.878    24 C    0.870     5 C    0.870
                            21 C    0.861
    24   6 C    3.876 --    44 H    0.982    43 H    0.976    42 H    0.971
                            23 N    0.870
    25   6 C    3.875 --    46 H    0.983    47 H    0.976    45 H    0.968
                            23 N    0.878
    26   1 H    0.999 --     1 C    0.983
    27   1 H    1.000 --     1 C    0.985
    28   1 H    1.008 --     1 C    0.981
    29   1 H    1.000 --     3 C    0.983
    30   1 H    0.996 --     3 C    0.979
    31   1 H    1.002 --     3 C    0.984
    32   1 H    0.943 --     4 N    0.928
    33   1 H    0.949 --     4 N    0.931
    34   1 H    0.937 --    10 N    0.884
    35   1 H    1.001 --    11 C    0.976
    36   1 H    1.007 --    11 C    0.967
    37   1 H    1.009 --    13 C    0.969
    38   1 H    0.998 --    14 C    0.969
    39   1 H    0.997 --    17 C    0.969
    40   1 H    0.999 --    18 C    0.970
    41   1 H    0.818 --    20 O    0.789
    42   1 H    1.007 --    24 C    0.971
    43   1 H    0.994 --    24 C    0.976
    44   1 H    0.992 --    24 C    0.982
    45   1 H    1.016 --    25 C    0.968
    46   1 H    0.995 --    25 C    0.983
    47   1 H    0.996 --    25 C    0.976
 ---------------------------------------------------------------------------

           -------------------------------------------------
          | TOTAL ENERGY              -79.482460004180 Eh   |
          | GRADIENT NORM               0.000839183213 Eh/α |
          | HOMO-LUMO GAP               1.280580050351 eV   |
           -------------------------------------------------

 * finished run on 2023/06/20 at 15:36:01.347
