   * xtb version 6.5.1 (579679a) compiled by 'ehlert@majestix' on 2022-07-11
          program call               : /lustre/hpc/kemi/ree/PhD/git/ReactivityQM/dep/xtb-6.5.1/bin/xtb --gfn 1 /lustre/hpc/kemi/ree/PhD/git/ReactivityQM/calculations/RaltegravirCLI/reac01prodN07/conf01/RaltegravirCLI_reac01prodN07_conf01_gfn1.xyz --opt --vfukui --chrg 1 --uhf 0 --alpb DMSO

   ID    Z sym.   atoms
    1    6 C      1, 3, 5, 8, 9
    2    8 O      2, 10
    3   17 Cl     4
    4    7 N      6, 7
    5    1 H      11-16

      * Solvation model:               ALPB
        Solvent                        DMSO
        Solvent mass                       7.8130E+01 g/mol
          :  Hamiltonian                  GFN1-xTB          :
 * total energy  :   -33.4086888 Eh     change       -0.1795541E-10 Eh
 * total energy  :   -33.4155166 Eh     change       -0.6827799E-02 Eh
 * total energy  :   -33.4175480 Eh     change       -0.2031384E-02 Eh
 * total energy  :   -33.4180519 Eh     change       -0.5039198E-03 Eh
 * total energy  :   -33.4184760 Eh     change       -0.4240521E-03 Eh
 * total energy  :   -33.4187323 Eh     change       -0.2563982E-03 Eh
 * total energy  :   -33.4188935 Eh     change       -0.1611597E-03 Eh
 * total energy  :   -33.4189735 Eh     change       -0.8002899E-04 Eh
 * total energy  :   -33.4190027 Eh     change       -0.2920008E-04 Eh
 * total energy  :   -33.4190146 Eh     change       -0.1188961E-04 Eh
 * total energy  :   -33.4190172 Eh     change       -0.2616213E-05 Eh
   *** GEOMETRY OPTIMIZATION CONVERGED AFTER 11 ITERATIONS ***

 final structure:
================
16
 xtb: 6.5.1 (579679a)
C           -3.30322683054178        0.57967175954969       -0.40576463704693
O           -1.88735556674043        0.37922174645390       -0.29244307604817
C           -1.33919323612932       -0.75947538182382       -0.10573599141925
Cl          -2.22369584171219       -2.15976097221761        0.03432770298156
C            0.07970272846816       -0.79508259236638       -0.01808748822733
N            0.84808386876431       -1.84810029662818        0.18258684417102
N            2.10063113962113       -1.42068401361305        0.19886051634181
C            2.07146985059024       -0.11309071454837        0.00555774838385
C            3.21816978933809        0.80457899856582       -0.07382107850677
O            0.82884349322590        0.32260673304943       -0.13453941515387
H           -3.43888816699249        1.65311857655520       -0.51744496732966
H           -3.67329083257163        0.04316837554255       -1.28012422800577
H           -3.79588894005853        0.21028109825569        0.49410759575853
H            2.94022255881572        1.78396652140246        0.31109579413490
H            3.51264054173987        0.92242534087033       -1.11932610872551
H            4.06177544418304        0.39715582095212        0.47993978869157

          :  Hamiltonian                  GFN1-xTB          :
         :: total energy             -33.419017243801 Eh    ::
         :: gradient norm              0.000480076241 Eh/a0 ::
         :: HOMO-LUMO gap              2.395185154141 eV    ::
         :: SCC energy               -33.697493710480 Eh    ::
         :: -> Gsolv                  -0.080536387483 Eh    ::
         :: repulsion energy           0.285209819490 Eh    ::

    * Orbital Energies and Occupations

         #    Occupation            Energy/Eh            Energy/eV
      -------------------------------------------------------------
         1        2.0000           -1.0220906             -27.8125
       ...           ...                  ...                  ...
        15        2.0000           -0.6307953             -17.1648
        16        2.0000           -0.6010489             -16.3554
        17        2.0000           -0.5855136             -15.9326
        18        2.0000           -0.5808113             -15.8047
        19        2.0000           -0.5720134             -15.5653
        20        2.0000           -0.5595239             -15.2254
        21        2.0000           -0.5584460             -15.1961
        22        2.0000           -0.5574312             -15.1685
        23        2.0000           -0.5451493             -14.8343
        24        2.0000           -0.5336836             -14.5223
        25        2.0000           -0.5311698             -14.4539
        26        2.0000           -0.5020872             -13.6625
        27        2.0000           -0.4997578             -13.5991 (HOMO)
        28                         -0.4117364             -11.2039 (LUMO)
        29                         -0.3045906              -8.2883
        30                         -0.2839608              -7.7270
        31                         -0.2657921              -7.2326
        32                         -0.1737550              -4.7281
        33                         -0.1619161              -4.4060
        34                         -0.1479524              -4.0260
        35                         -0.1464415              -3.9849
        36                         -0.1455992              -3.9620
        37                         -0.1084757              -2.9518
        38                         -0.1023780              -2.7858
       ...                                ...                  ...
        57                          0.5223603              14.2141
      -------------------------------------------------------------
                  HL-Gap            0.0880214 Eh            2.3952 eV

Wiberg/Mayer (AO) data.
largest (>0.10) Wiberg bond orders for each atom

     #   Z sym  total        # sym  WBO       # sym  WBO       # sym  WBO
 ---------------------------------------------------------------------------
     1   6 C    3.807 --    11 H    0.977    13 H    0.966    12 H    0.964
                             2 O    0.847
     2   8 O    2.368 --     3 C    1.311     1 C    0.847     4 Cl   0.106
     3   6 C    3.884 --     2 O    1.311     4 Cl   1.221     5 C    1.174
     4  17 Cl   1.463 --     3 C    1.221     2 O    0.106
     5   6 C    3.889 --     6 N    1.458     3 C    1.174    10 O    1.042
     6   7 N    3.021 --     5 C    1.458     7 N    1.344
     7   7 N    2.994 --     8 C    1.452     6 N    1.344
     8   6 C    3.842 --     7 N    1.452    10 O    1.136     9 C    1.048
     9   6 C    3.973 --     8 C    1.048    16 H    0.970    14 H    0.966
                            15 H    0.934
    10   8 O    2.363 --     8 C    1.136     5 C    1.042
    11   1 H    0.997 --     1 C    0.977
    12   1 H    0.994 --     1 C    0.964
    13   1 H    0.996 --     1 C    0.966
    14   1 H    0.990 --     9 C    0.966
    15   1 H    0.986 --     9 C    0.934
    16   1 H    0.991 --     9 C    0.970
 ---------------------------------------------------------------------------

           -------------------------------------------------
          | TOTAL ENERGY              -33.419017243801 Eh   |
          | GRADIENT NORM               0.000480076241 Eh/α |
          | HOMO-LUMO GAP               2.395185154141 eV   |
           -------------------------------------------------

 * finished run on 2023/06/20 at 14:55:31.809
