   * xtb version 6.5.1 (579679a) compiled by 'ehlert@majestix' on 2022-07-11
          program call               : /lustre/hpc/kemi/ree/PhD/git/ReactivityQM/dep/xtb-6.5.1/bin/xtb --gfn 1 /lustre/hpc/kemi/ree/PhD/git/ReactivityQM/calculations/R02deprot/reac01prodN10/conf04/R02deprot_reac01prodN10_conf04_gfn1.xyz --opt --vfukui --chrg 0 --uhf 0 --alpb DMSO

   ID    Z sym.   atoms
    1    6 C      1, 3, 5, 6, 8-11, 13, 15, 18, 19, 22, 24
    2    8 O      2, 4, 14, 20, 23, 25
    3    7 N      7, 12, 16, 17, 21
    4    1 H      26-42

      * Solvation model:               ALPB
        Solvent                        DMSO
        Solvent mass                       7.8130E+01 g/mol
          :  Hamiltonian                  GFN1-xTB          :
 * total energy  :   -82.9309515 Eh     change       -0.3154810E-11 Eh
 * total energy  :   -82.9443145 Eh     change       -0.1336297E-01 Eh
 * total energy  :   -82.9498258 Eh     change       -0.5511274E-02 Eh
 * total energy  :   -82.9511242 Eh     change       -0.1298399E-02 Eh
 * total energy  :   -82.9518445 Eh     change       -0.7203348E-03 Eh
 * total energy  :   -82.9520592 Eh     change       -0.2147001E-03 Eh
 * total energy  :   -82.9521709 Eh     change       -0.1117285E-03 Eh
 * total energy  :   -82.9522363 Eh     change       -0.6533770E-04 Eh
 * total energy  :   -82.9522842 Eh     change       -0.4789241E-04 Eh
 * total energy  :   -82.9523304 Eh     change       -0.4622981E-04 Eh
 * total energy  :   -82.9546615 Eh     change       -0.6260720E-05 Eh
 * total energy  :   -82.9546675 Eh     change       -0.5992638E-05 Eh
 * total energy  :   -82.9546756 Eh     change       -0.8086032E-05 Eh
 * total energy  :   -82.9546850 Eh     change       -0.9458744E-05 Eh
 * total energy  :   -82.9546935 Eh     change       -0.8527726E-05 Eh
 * total energy  :   -82.9547002 Eh     change       -0.6674378E-05 Eh
 * total energy  :   -82.9547061 Eh     change       -0.5896621E-05 Eh
 * total energy  :   -82.9547118 Eh     change       -0.5661861E-05 Eh
 * total energy  :   -82.9547142 Eh     change       -0.2455094E-05 Eh
   *** GEOMETRY OPTIMIZATION CONVERGED AFTER 68 ITERATIONS ***

 final structure:
================
42
 xtb: 6.5.1 (579679a)
C           -5.88161067076811        0.69020636621477       -1.12492529025075
O           -4.96560199319645        0.33831164257755       -0.06974502891179
C           -3.69832335002908        0.26311169145969       -0.37534855903006
O           -3.19985964730519        0.47060020208856       -1.43948405010162
C           -2.84705915121498       -0.15939155432723        0.90842695489255
C           -3.69771584381776       -1.04260632194415        1.82510092788122
N           -1.72619496407645       -0.86690298628751        0.39383804896610
C           -0.60719830555079       -0.23849573428875        0.20452747344210
C            0.48908959431226       -1.03290380640211       -0.48890186558372
C            0.54610930852196       -2.45925997545690        0.06883922812929
C            0.16776801282686       -1.04145148277501       -1.99254935662389
N            1.75681449264334       -0.34979324212212       -0.25098798505397
C            2.94057598592559       -0.76880363846631       -0.72507008252761
O            3.12373128666813       -1.75760895717712       -1.41750966731587
C            4.03986467767636        0.13463379511200       -0.28616570425784
N            3.91247394685107        1.20584608367104        0.43711621465911
N            5.16612123108400        1.71242935351239        0.61424986642744
C            5.97785388809657        0.91616878362951       -0.01166316653845
C            7.44964845552004        1.02758403205409       -0.11591809560093
O            5.32774660862084       -0.09834396003833       -0.60126464442761
N           -0.30374874927703        1.04543244114252        0.51101714572278
C           -1.19958826115303        1.79998228727026        1.14926283146300
O           -1.06599896451120        2.95615466897613        1.55888525070486
C           -2.51591100934644        1.16042509142322        1.43448215438909
O           -3.35500675628373        1.88034099566042        2.08816190106752
H           -5.60182058501712        1.65701840173917       -1.54558324658297
H           -5.85526780603397       -0.07497201127318       -1.90184181622004
H           -6.86508912940195        0.73805627359616       -0.66455130826287
H           -3.07230030333119       -1.40019484243957        2.64037666633103
H           -4.52916081455859       -0.47084607426654        2.22948205602537
H           -4.07510368999264       -1.89391174403100        1.26402653620084
H           -0.43656888182413       -2.91834108920051       -0.02271224498759
H            0.82904044068641       -2.43623507229260        1.12019380871770
H            1.27112888022142       -3.05367078024624       -0.48417858940878
H           -0.82523514779576       -1.46297044986056       -2.14128002242997
H            0.89855774374818       -1.64263122295752       -2.53079162052600
H            0.18301337378273       -0.02394789020791       -2.38095931069810
H            1.71281725877369        0.50737920805886        0.29053484272526
H            7.74506485430126        1.11068557027203       -1.16157538603384
H            7.78875008291159        1.90492579855363        0.42934286347304
H            7.92121315122761        0.13619921099146        0.29735613258421
H           -2.92301624990021        2.75975593806576        2.26778213757642

          :  Hamiltonian                  GFN1-xTB          :
         :: total energy             -82.954714228496 Eh    ::
         :: gradient norm              0.000226204135 Eh/a0 ::
         :: HOMO-LUMO gap              1.257424826993 eV    ::
         :: SCC energy               -83.726298151480 Eh    ::
         :: -> Gsolv                  -0.054360957476 Eh    ::
         :: repulsion energy           0.797878760709 Eh    ::

    * Orbital Energies and Occupations

         #    Occupation            Energy/Eh            Energy/eV
      -------------------------------------------------------------
         1        2.0000           -0.8767265             -23.8569
       ...           ...                  ...                  ...
        55        2.0000           -0.5029996             -13.6873
        56        2.0000           -0.4992129             -13.5843
        57        2.0000           -0.4967552             -13.5174
        58        2.0000           -0.4890473             -13.3077
        59        2.0000           -0.4875432             -13.2667
        60        2.0000           -0.4796255             -13.0513
        61        2.0000           -0.4621715             -12.5763
        62        2.0000           -0.4566350             -12.4257
        63        2.0000           -0.4527747             -12.3206
        64        2.0000           -0.4471738             -12.1682
        65        2.0000           -0.4408865             -11.9971
        66        2.0000           -0.4331708             -11.7872
        67        2.0000           -0.4264401             -11.6040 (HOMO)
        68                         -0.3802306             -10.3466 (LUMO)
        69                         -0.3054417              -8.3115
        70                         -0.2953408              -8.0366
        71                         -0.2717796              -7.3955
        72                         -0.2547465              -6.9320
        73                         -0.1997638              -5.4358
        74                         -0.1935699              -5.2673
        75                         -0.1529978              -4.1633
        76                         -0.1418671              -3.8604
        77                         -0.1349630              -3.6725
        78                         -0.1204653              -3.2780
       ...                                ...                  ...
       134                          0.7325163              19.9328
      -------------------------------------------------------------
                  HL-Gap            0.0462095 Eh            1.2574 eV

Wiberg/Mayer (AO) data.
largest (>0.10) Wiberg bond orders for each atom

     #   Z sym  total        # sym  WBO       # sym  WBO       # sym  WBO
 ---------------------------------------------------------------------------
     1   6 C    3.839 --    28 H    0.983    26 H    0.979    27 H    0.979
                             2 O    0.860
     2   8 O    2.241 --     3 C    1.178     1 C    0.860     4 O    0.142
     3   6 C    3.851 --     4 O    1.727     2 O    1.178     5 C    0.767
     4   8 O    2.025 --     3 C    1.727     2 O    0.142
     5   6 C    3.968 --    24 C    1.058     7 N    1.027     6 C    0.955
                             3 C    0.767
     6   6 C    3.978 --    31 H    0.984    30 H    0.983    29 H    0.981
                             5 C    0.955
     7   7 N    3.001 --     8 C    1.591     5 C    1.027
     8   6 C    3.943 --     7 N    1.591    21 N    1.247     9 C    0.978
     9   6 C    3.936 --    10 C    0.987     8 C    0.978    11 C    0.973
                            12 N    0.929
    10   6 C    3.991 --     9 C    0.987    33 H    0.986    32 H    0.983
                            34 H    0.982
    11   6 C    3.990 --    37 H    0.986    35 H    0.985    36 H    0.981
                             9 C    0.973
    12   7 N    3.366 --    13 C    1.277     9 C    0.929    38 H    0.879
                            14 O    0.183
    13   6 C    3.921 --    14 O    1.578    12 N    1.277    15 C    0.985
    14   8 O    1.897 --    13 C    1.578    12 N    0.183
    15   6 C    3.873 --    16 N    1.615    20 O    1.063    13 C    0.985
    16   7 N    3.013 --    15 C    1.615    17 N    1.196
    17   7 N    2.980 --    18 C    1.609    16 N    1.196
    18   6 C    3.872 --    17 N    1.609    20 O    1.082    19 C    1.031
    19   6 C    3.987 --    18 C    1.031    40 H    0.983    41 H    0.964
                            39 H    0.964
    20   8 O    2.328 --    18 C    1.082    15 C    1.063
    21   7 N    3.027 --    22 C    1.307     8 C    1.247    23 O    0.162
                            24 C    0.109
    22   6 C    3.934 --    23 O    1.513    21 N    1.307    24 C    0.990
    23   8 O    1.883 --    22 C    1.513    21 N    0.162
    24   6 C    3.787 --    25 O    1.326     5 C    1.058    22 C    0.990
                            21 N    0.109
    25   8 O    2.250 --    24 C    1.326    42 H    0.747
    26   1 H    1.001 --     1 C    0.979
    27   1 H    1.001 --     1 C    0.979
    28   1 H    1.005 --     1 C    0.983
    29   1 H    0.999 --     6 C    0.981
    30   1 H    1.004 --     6 C    0.983
    31   1 H    1.001 --     6 C    0.984
    32   1 H    1.013 --    10 C    0.983
    33   1 H    1.003 --    10 C    0.986
    34   1 H    1.010 --    10 C    0.982
    35   1 H    1.007 --    11 C    0.985
    36   1 H    1.009 --    11 C    0.981
    37   1 H    1.003 --    11 C    0.986
    38   1 H    0.970 --    12 N    0.879
    39   1 H    0.997 --    19 C    0.964
    40   1 H    0.999 --    19 C    0.983
    41   1 H    0.997 --    19 C    0.964
    42   1 H    0.821 --    25 O    0.747
 ---------------------------------------------------------------------------

           -------------------------------------------------
          | TOTAL ENERGY              -82.954714228496 Eh   |
          | GRADIENT NORM               0.000226204135 Eh/α |
          | HOMO-LUMO GAP               1.257424826993 eV   |
           -------------------------------------------------

 * finished run on 2023/06/20 at 18:18:06.624
