   * xtb version 6.5.1 (579679a) compiled by 'ehlert@majestix' on 2022-07-11
          program call               : /lustre/hpc/kemi/ree/PhD/git/ReactivityQM/dep/xtb-6.5.1/bin/xtb --gfn 1 /lustre/hpc/kemi/ree/PhD/git/ReactivityQM/calculations/R02methylcation/reac01prodN07/conf15/R02methylcation_reac01prodN07_conf15_gfn1.xyz --opt --vfukui --chrg 0 --uhf 0 --alpb DMSO

   ID    Z sym.   atoms
    1    6 C      1, 3, 5, 7-10, 12, 14, 17-19, 22, 24
    2    8 O      2, 4, 13, 20, 23, 25
    3    7 N      6, 11, 15, 16, 21
    4    1 H      26-42

      * Solvation model:               ALPB
        Solvent                        DMSO
        Solvent mass                       7.8130E+01 g/mol
          :  Hamiltonian                  GFN1-xTB          :
 * total energy  :   -82.9523549 Eh     change       -0.3970371E-09 Eh
 * total energy  :   -82.9688970 Eh     change       -0.1654211E-01 Eh
 * total energy  :   -82.9758551 Eh     change       -0.6958012E-02 Eh
 * total energy  :   -82.9770263 Eh     change       -0.1171209E-02 Eh
 * total energy  :   -82.9778240 Eh     change       -0.7976895E-03 Eh
 * total energy  :   -82.9781313 Eh     change       -0.3073935E-03 Eh
 * total energy  :   -82.9784377 Eh     change       -0.3063219E-03 Eh
 * total energy  :   -82.9786740 Eh     change       -0.2363165E-03 Eh
 * total energy  :   -82.9788528 Eh     change       -0.1788144E-03 Eh
 * total energy  :   -82.9789707 Eh     change       -0.1179273E-03 Eh
 * total energy  :   -82.9796639 Eh     change       -0.2535390E-04 Eh
 * total energy  :   -82.9796880 Eh     change       -0.2412508E-04 Eh
 * total energy  :   -82.9797073 Eh     change       -0.1930340E-04 Eh
 * total energy  :   -82.9797241 Eh     change       -0.1670973E-04 Eh
 * total energy  :   -82.9797380 Eh     change       -0.1397592E-04 Eh
 * total energy  :   -82.9797486 Eh     change       -0.1054848E-04 Eh
 * total energy  :   -82.9797569 Eh     change       -0.8303340E-05 Eh
 * total energy  :   -82.9797638 Eh     change       -0.6947549E-05 Eh
 * total energy  :   -82.9797688 Eh     change       -0.4999036E-05 Eh
   *** GEOMETRY OPTIMIZATION CONVERGED AFTER 40 ITERATIONS ***

 final structure:
================
42
 xtb: 6.5.1 (579679a)
C            6.54396271683490        2.42197544482711        0.19410638621623
O            5.51517315430943        1.62333623786056        0.76323059440832
C            4.54800293703953        1.20731221757079       -0.09045744347897
O            4.58259357600912        1.51952846338174       -1.27476424481670
C            3.51420505098720        0.38171715227655        0.51917124801815
N            2.56594675283725       -0.04574050919793       -0.39073523550819
C            1.59643787318399       -0.79907608382865       -0.02627806702578
C            0.58217169034502       -1.26882594342588       -1.05484682507668
C            0.94406262950347       -0.68702830229868       -2.42202580978099
C            0.52143896986120       -2.79766895716170       -1.13374478194176
N           -0.75627167498232       -0.72217593766059       -0.71515013079240
C           -1.56520519688498       -1.17890956543342        0.23999452064675
O           -1.35092531117455       -2.06977295408777        1.04120552235142
C           -2.88072936851687       -0.44928731216926        0.28423448725829
N           -3.83449838181036       -0.62586417045544        1.14823101013554
N           -4.79995343021131        0.23590298529165        0.77969257042264
C           -6.04403046080500        0.29278524596776        1.51759097090806
C           -4.42470860173299        0.90700409608488       -0.28806388273017
C           -5.15693705121179        1.93939926211851       -1.03878229958149
O           -3.21596673892108        0.49646135945834       -0.61815418584357
N            1.45251903819919       -1.21794156303776        1.27908194373244
C            2.29245428807459       -0.83959512506820        2.29489791629827
O            2.07555982655919       -1.22455513312553        3.44128705326466
C            3.45662970735833        0.04200989692230        1.89699969485920
O            4.25669297200180        0.40164238625873        2.77858835015789
H            6.12588239276210        3.32634060563846       -0.25887689951851
H            7.08762207138894        1.86260701909879       -0.57401543474192
H            7.22225355917500        2.69326499213512        1.00264042116944
H            0.21417848283090       -0.99832726655063       -3.16616566462872
H            1.93083432101951       -1.04139438645122       -2.71773837665866
H            0.96839620151630        0.40075843046781       -2.37383778425223
H            1.47063787664694       -3.16880323717391       -1.51861018035528
H            0.34240291120465       -3.24268002163212       -0.15761661812136
H           -0.27666204033425       -3.09943661499713       -1.80936312997958
H           -1.09827949333683        0.01501277937956       -1.30747942482352
H           -5.85883793068113       -0.07894309603581        2.52278039696945
H           -6.38933313005252        1.32318699343409        1.54231433861886
H           -6.78022870757763       -0.33307296050691        1.01424674458241
H           -4.55749589950593        2.26963914729738       -1.88449156791928
H           -5.37659145501908        2.78800524159725       -0.38870871657692
H           -6.10650804324393        1.53643203722653       -1.39325346489609
H            0.66310391634786       -1.79522185398463        1.53025499902972

          :  Hamiltonian                  GFN1-xTB          :
         :: total energy             -82.979768826674 Eh    ::
         :: gradient norm              0.000429711369 Eh/a0 ::
         :: HOMO-LUMO gap              0.404864077729 eV    ::
         :: SCC energy               -83.767249453087 Eh    ::
         :: -> Gsolv                  -0.136143119791 Eh    ::
         :: repulsion energy           0.812521394635 Eh    ::

    * Orbital Energies and Occupations

         #    Occupation            Energy/Eh            Energy/eV
      -------------------------------------------------------------
         1        2.0000           -0.9360693             -25.4717
       ...           ...                  ...                  ...
        55        2.0000           -0.5048577             -13.7379
        56        2.0000           -0.5006188             -13.6225
        57        2.0000           -0.4963322             -13.5059
        58        2.0000           -0.4895016             -13.3200
        59        2.0000           -0.4823091             -13.1243
        60        2.0000           -0.4682835             -12.7426
        61        2.0000           -0.4668882             -12.7047
        62        2.0000           -0.4585733             -12.4784
        63        2.0000           -0.4425511             -12.0424
        64        2.0000           -0.4390865             -11.9482
        65        2.0000           -0.4206659             -11.4469
        66        2.0000           -0.3819392             -10.3931
        67        1.9992           -0.3699884             -10.0679 (HOMO)
        68        0.0008           -0.3551099              -9.6630 (LUMO)
        69                         -0.3417666              -9.2999
        70                         -0.2727175              -7.4210
        71                         -0.2459964              -6.6939
        72                         -0.2362321              -6.4282
        73                         -0.1995918              -5.4312
        74                         -0.1838336              -5.0024
        75                         -0.1711792              -4.6580
        76                         -0.1291021              -3.5130
        77                         -0.1241487              -3.3783
        78                         -0.1226206              -3.3367
       ...                                ...                  ...
       134                          0.7537025              20.5093
      -------------------------------------------------------------
                  HL-Gap            0.0148785 Eh            0.4049 eV

Wiberg/Mayer (AO) data.
largest (>0.10) Wiberg bond orders for each atom

     #   Z sym  total        # sym  WBO       # sym  WBO       # sym  WBO
 ---------------------------------------------------------------------------
     1   6 C    3.897 --    28 H    0.987    27 H    0.980    26 H    0.980
                             2 O    0.923
     2   8 O    2.163 --     3 C    1.052     1 C    0.923     4 O    0.111
     3   6 C    3.850 --     4 O    1.579     5 C    1.109     2 O    1.052
     4   8 O    1.853 --     3 C    1.579     2 O    0.111
     5   6 C    3.909 --    24 C    1.267     6 N    1.158     3 C    1.109
                            25 O    0.128
     6   7 N    3.033 --     7 C    1.628     5 C    1.158
     7   6 C    3.933 --     6 N    1.628    21 N    1.100     8 C    0.967
     8   6 C    3.913 --     9 C    1.002    10 C    0.990     7 C    0.967
                            11 N    0.888
     9   6 C    3.991 --     8 C    1.002    29 H    0.986    31 H    0.982
                            30 H    0.981
    10   6 C    3.988 --     8 C    0.990    34 H    0.985    32 H    0.984
                            33 H    0.979
    11   7 N    3.395 --    12 C    1.319    35 H    0.892     8 C    0.888
                            13 O    0.201
    12   6 C    3.926 --    13 O    1.576    11 N    1.319    14 C    0.957
    13   8 O    1.928 --    12 C    1.576    11 N    0.201
    14   6 C    3.832 --    15 N    1.613    20 O    1.050    12 C    0.957
    15   7 N    2.976 --    14 C    1.613    16 N    1.149
    16   7 N    3.632 --    18 C    1.428    15 N    1.149    17 C    0.911
    17   6 C    3.887 --    37 H    0.976    36 H    0.976    38 H    0.964
                            16 N    0.911
    18   6 C    3.841 --    16 N    1.428    20 O    1.145    19 C    1.041
    19   6 C    3.961 --    18 C    1.041    39 H    0.972    41 H    0.947
                            40 H    0.944
    20   8 O    2.371 --    18 C    1.145    14 C    1.050
    21   7 N    3.429 --    22 C    1.163     7 C    1.100    42 H    0.881
                            23 O    0.136
    22   6 C    3.879 --    23 O    1.579    21 N    1.163    24 C    0.967
    23   8 O    1.858 --    22 C    1.579    21 N    0.136
    24   6 C    3.941 --    25 O    1.525     5 C    1.267    22 C    0.967
    25   8 O    1.827 --    24 C    1.525     5 C    0.128
    26   1 H    1.014 --     1 C    0.980
    27   1 H    1.013 --     1 C    0.980
    28   1 H    1.015 --     1 C    0.987
    29   1 H    0.999 --     9 C    0.986
    30   1 H    1.009 --     9 C    0.981
    31   1 H    1.009 --     9 C    0.982
    32   1 H    1.002 --    10 C    0.984
    33   1 H    1.009 --    10 C    0.979
    34   1 H    1.000 --    10 C    0.985
    35   1 H    0.932 --    11 N    0.892
    36   1 H    0.992 --    17 C    0.976
    37   1 H    0.990 --    17 C    0.976
    38   1 H    0.989 --    17 C    0.964
    39   1 H    0.986 --    19 C    0.972
    40   1 H    0.986 --    19 C    0.944
    41   1 H    0.986 --    19 C    0.947
    42   1 H    0.950 --    21 N    0.881
 ---------------------------------------------------------------------------

           -------------------------------------------------
          | TOTAL ENERGY              -82.979768826674 Eh   |
          | GRADIENT NORM               0.000429711369 Eh/α |
          | HOMO-LUMO GAP               0.404864077729 eV   |
           -------------------------------------------------

 * finished run on 2023/06/21 at 17:38:12.790
