                         Program Version 5.0.1 -  RELEASE  -
|  1> # ORCA input file
|  2> ! SP r2SCAN-3c CPCM
|  3>
|  4> %maxcore 1875.0
|  5> %pal nprocs 4 end
|  6> %cpcm smd true SMDsolvent "DMSO" end
|  7>
|  8> *xyz 1 1
|  9> C       6.777316    1.567452   -0.866364
| 10> C       5.436131    1.830268   -0.302638
| 11> N       5.005138    2.918937    0.256365
| 12> N       3.710954    2.693171    0.611911
| 13> C       3.429615    1.480072    0.249886
| 14> C       2.151939    0.754065    0.412066
| 15> O       1.150837    1.267972    0.884829
| 16> N       2.199699   -0.515780   -0.054137
| 17> C       1.069548   -1.418120    0.149588
| 18> C       1.267197   -2.679814   -0.697697
| 19> C       1.021423   -1.799514    1.636885
| 20> C      -0.228116   -0.724410   -0.238534
| 21> N      -1.226312   -0.920668    0.562101
| 22> C      -2.454384   -0.356228    0.331032
| 23> C      -3.438585   -0.755673    1.308088
| 24> O      -3.397505   -1.559636    2.172088
| 25> O      -4.765445   -0.052076    1.111393
| 26> C      -5.888639   -0.849526    1.583402
| 27> C      -4.789583    1.323913    1.594234
| 28> C      -2.641792    0.443216   -0.771360
| 29> O      -3.772874    1.055943   -1.084343
| 30> C      -1.534467    0.646731   -1.705518
| 31> O      -1.676910    1.336502   -2.704269
| 32> N      -0.355970    0.009083   -1.392477
| 33> C       0.704557    0.238750   -2.377645
| 34> O       4.487603    0.879834   -0.336887
| 35> H       7.221738    0.701262   -0.376947
| 36> H       6.693186    1.345052   -1.929994
| 37> H       7.413722    2.437770   -0.723859
| 38> H       3.079925   -0.914893   -0.334245
| 39> H       0.412793   -3.341436   -0.563263
| 40> H       1.362699   -2.443470   -1.754610
| 41> H       2.168544   -3.196497   -0.372670
| 42> H       1.981898   -2.219777    1.928443
| 43> H       0.239449   -2.537095    1.806485
| 44> H       0.814737   -0.918097    2.242114
| 45> H      -5.817000   -1.813313    1.085146
| 46> H      -6.788983   -0.320868    1.282716
| 47> H      -5.833398   -0.958755    2.666152
| 48> H      -3.867165    1.797098    1.270336
| 49> H      -4.872945    1.323761    2.680751
| 50> H      -5.648518    1.798902    1.127021
| 51> H      -3.657512    1.529845   -1.935859
| 52> H       1.507363   -0.475707   -2.254748
| 53> H       1.084583    1.253351   -2.255338
| 54> H       0.263512    0.138398   -3.369048
| 55> **                         ****END OF INPUT****

CARTESIAN COORDINATES (ANGSTROEM)
---------------------------------
  C      6.777316    1.567452   -0.866364
  C      5.436131    1.830268   -0.302638
  N      5.005138    2.918937    0.256365
  N      3.710954    2.693171    0.611911
  C      3.429615    1.480072    0.249886
  C      2.151939    0.754065    0.412066
  O      1.150837    1.267972    0.884829
  N      2.199699   -0.515780   -0.054137
  C      1.069548   -1.418120    0.149588
  C      1.267197   -2.679814   -0.697697
  C      1.021423   -1.799514    1.636885
  C     -0.228116   -0.724410   -0.238534
  N     -1.226312   -0.920668    0.562101
  C     -2.454384   -0.356228    0.331032
  C     -3.438585   -0.755673    1.308088
  O     -3.397505   -1.559636    2.172088
  O     -4.765445   -0.052076    1.111393
  C     -5.888639   -0.849526    1.583402
  C     -4.789583    1.323913    1.594234
  C     -2.641792    0.443216   -0.771360
  O     -3.772874    1.055943   -1.084343
  C     -1.534467    0.646731   -1.705518
  O     -1.676910    1.336502   -2.704269
  N     -0.355970    0.009083   -1.392477
  C      0.704557    0.238750   -2.377645
  O      4.487603    0.879834   -0.336887
  H      7.221738    0.701262   -0.376947
  H      6.693186    1.345052   -1.929994
  H      7.413722    2.437770   -0.723859
  H      3.079925   -0.914893   -0.334245
  H      0.412793   -3.341436   -0.563263
  H      1.362699   -2.443470   -1.754610
  H      2.168544   -3.196497   -0.372670
  H      1.981898   -2.219777    1.928443
  H      0.239449   -2.537095    1.806485
  H      0.814737   -0.918097    2.242114
  H     -5.817000   -1.813313    1.085146
  H     -6.788983   -0.320868    1.282716
  H     -5.833398   -0.958755    2.666152
  H     -3.867165    1.797098    1.270336
  H     -4.872945    1.323761    2.680751
  H     -5.648518    1.798902    1.127021
  H     -3.657512    1.529845   -1.935859
  H      1.507363   -0.475707   -2.254748
  H      1.084583    1.253351   -2.255338
  H      0.263512    0.138398   -3.369048

 Total Charge           Charge          ....    1
 Multiplicity           Mult            ....    1
 Number of Electrons    NEL             ....  192
 Basis Dimension        Dim             ....  649

ORBITAL ENERGIES
----------------

  NO   OCC          E(Eh)            E(eV)
   0   2.0000     -19.109210      -519.9880
   1   2.0000     -19.069662      -518.9119
   2   2.0000     -19.032653      -517.9048
   3   2.0000     -19.013000      -517.3700
   4   2.0000     -18.957209      -515.8519
   5   2.0000     -18.944624      -515.5094
   6   2.0000     -14.256365      -387.9354
   7   2.0000     -14.209242      -386.6531
   8   2.0000     -14.207891      -386.6164
   9   2.0000     -14.200602      -386.4180
  10   2.0000     -14.178287      -385.8108
  11   2.0000     -10.220868      -278.1239
  12   2.0000     -10.167065      -276.6599
  13   2.0000     -10.163809      -276.5713
  14   2.0000     -10.155032      -276.3325
  15   2.0000     -10.150986      -276.2224
  16   2.0000     -10.147397      -276.1247
  17   2.0000     -10.143694      -276.0239
  18   2.0000     -10.124016      -275.4885
  19   2.0000     -10.115638      -275.2605
  20   2.0000     -10.112557      -275.1767
  21   2.0000     -10.112351      -275.1711
  22   2.0000     -10.071612      -274.0625
  23   2.0000     -10.047279      -273.4004
  24   2.0000     -10.032819      -273.0069
  25   2.0000     -10.021753      -272.7058
  26   2.0000      -1.159382       -31.5484
  27   2.0000      -1.148286       -31.2465
  28   2.0000      -1.091043       -29.6888
  29   2.0000      -1.075951       -29.2781
  30   2.0000      -1.043813       -28.4036
  31   2.0000      -1.033578       -28.1251
  32   2.0000      -0.985829       -26.8258
  33   2.0000      -0.979812       -26.6620
  34   2.0000      -0.921664       -25.0798
  35   2.0000      -0.908669       -24.7261
  36   2.0000      -0.836297       -22.7568
  37   2.0000      -0.808132       -21.9904
  38   2.0000      -0.764689       -20.8082
  39   2.0000      -0.749872       -20.4051
  40   2.0000      -0.736230       -20.0338
  41   2.0000      -0.716692       -19.5022
  42   2.0000      -0.706303       -19.2195
  43   2.0000      -0.673661       -18.3312
  44   2.0000      -0.669676       -18.2228
  45   2.0000      -0.661632       -18.0039
  46   2.0000      -0.653879       -17.7930
  47   2.0000      -0.606738       -16.5102
  48   2.0000      -0.594982       -16.1903
  49   2.0000      -0.593502       -16.1500
  50   2.0000      -0.584818       -15.9137
  51   2.0000      -0.573920       -15.6172
  52   2.0000      -0.547246       -14.8913
  53   2.0000      -0.539532       -14.6814
  54   2.0000      -0.526033       -14.3141
  55   2.0000      -0.520452       -14.1622
  56   2.0000      -0.504242       -13.7211
  57   2.0000      -0.498940       -13.5768
  58   2.0000      -0.485844       -13.2205
  59   2.0000      -0.480980       -13.0881
  60   2.0000      -0.467991       -12.7347
  61   2.0000      -0.463418       -12.6102
  62   2.0000      -0.453766       -12.3476
  63   2.0000      -0.442277       -12.0350
  64   2.0000      -0.441004       -12.0003
  65   2.0000      -0.427659       -11.6372
  66   2.0000      -0.422790       -11.5047
  67   2.0000      -0.421048       -11.4573
  68   2.0000      -0.412453       -11.2234
  69   2.0000      -0.411762       -11.2046
  70   2.0000      -0.404744       -11.0137
  71   2.0000      -0.402465       -10.9516
  72   2.0000      -0.394763       -10.7421
  73   2.0000      -0.391885       -10.6637
  74   2.0000      -0.388746       -10.5783
  75   2.0000      -0.384164       -10.4536
  76   2.0000      -0.383085       -10.4243
  77   2.0000      -0.373247       -10.1566
  78   2.0000      -0.367289        -9.9944
  79   2.0000      -0.363807        -9.8997
  80   2.0000      -0.357714        -9.7339
  81   2.0000      -0.355578        -9.6758
  82   2.0000      -0.348278        -9.4771
  83   2.0000      -0.345332        -9.3970
  84   2.0000      -0.341404        -9.2901
  85   2.0000      -0.329548        -8.9675
  86   2.0000      -0.318323        -8.6620
  87   2.0000      -0.317341        -8.6353
  88   2.0000      -0.294888        -8.0243
  89   2.0000      -0.274170        -7.4606
  90   2.0000      -0.271719        -7.3939
  91   2.0000      -0.270468        -7.3598
  92   2.0000      -0.266421        -7.2497
  93   2.0000      -0.257067        -6.9952
  94   2.0000      -0.249394        -6.7864
  95   2.0000      -0.231330        -6.2948
  96   0.0000      -0.137114        -3.7311
  97   0.0000      -0.093303        -2.5389
  98   0.0000      -0.056499        -1.5374
  99   0.0000      -0.029269        -0.7965
 100   0.0000      -0.023748        -0.6462

MULLIKEN ATOMIC CHARGES
-----------------------
   0 C :   -0.632769
   1 C :    0.401054
   2 N :   -0.288818
   3 N :   -0.158208
   4 C :    0.417571
   5 C :   -0.123602
   6 O :   -0.412791
   7 N :   -0.158241
   8 C :    0.023937
   9 C :   -0.487605
  10 C :   -0.597277
  11 C :    0.019581
  12 N :   -0.091765
  13 C :    0.134258
  14 C :    0.186330
  15 O :   -0.265560
  16 O :   -0.141408
  17 C :   -0.246691
  18 C :   -0.251629
  19 C :    0.122007
  20 O :   -0.341782
  21 C :    0.196336
  22 O :   -0.474241
  23 N :    0.300612
  24 C :   -0.442963
  25 O :   -0.056659
  26 H :    0.201566
  27 H :    0.202726
  28 H :    0.206074
  29 H :    0.321630
  30 H :    0.201815
  31 H :    0.185873
  32 H :    0.195208
  33 H :    0.185253
  34 H :    0.189272
  35 H :    0.198413
  36 H :    0.211311
  37 H :    0.212080
  38 H :    0.214862
  39 H :    0.211404
  40 H :    0.212166
  41 H :    0.220726
  42 H :    0.376176
  43 H :    0.210798
  44 H :    0.216728
  45 H :    0.196244
Sum of atomic charges:    1.0000000

LOEWDIN ATOMIC CHARGES
----------------------
   0 C :   -0.316450
   1 C :    0.381753
   2 N :   -0.357289
   3 N :   -0.330908
   4 C :    0.413042
   5 C :    0.381512
   6 O :   -0.433296
   7 N :   -0.591700
   8 C :    0.110312
   9 C :   -0.336244
  10 C :   -0.331862
  11 C :    0.387546
  12 N :   -0.552958
  13 C :    0.185883
  14 C :    0.477428
  15 O :   -0.278148
  16 O :   -0.741622
  17 C :    0.015005
  18 C :    0.016897
  19 C :    0.313990
  20 O :   -0.414739
  21 C :    0.385873
  22 O :   -0.459326
  23 N :   -0.614168
  24 C :   -0.060580
  25 O :   -0.388769
  26 H :    0.192299
  27 H :    0.192882
  28 H :    0.191787
  29 H :    0.303168
  30 H :    0.180753
  31 H :    0.173048
  32 H :    0.178209
  33 H :    0.170132
  34 H :    0.177744
  35 H :    0.180945
  36 H :    0.210520
  37 H :    0.210634
  38 H :    0.202927
  39 H :    0.214782
  40 H :    0.201705
  41 H :    0.211492
  42 H :    0.324477
  43 H :    0.208178
  44 H :    0.204614
  45 H :    0.208520

  Mayer bond orders larger than 0.100000
B(  0-C ,  1-C ) :   0.8220 B(  0-C , 26-H ) :   0.9444 B(  0-C , 27-H ) :   0.9407
B(  0-C , 28-H ) :   0.9895 B(  1-C ,  2-N ) :   1.6089 B(  1-C ,  4-C ) :   0.1277
B(  1-C , 25-O ) :   1.0669 B(  2-N ,  3-N ) :   1.2643 B(  2-N ,  5-C ) :   0.1139
B(  3-N ,  4-C ) :   1.7388 B(  4-C ,  5-C ) :   0.7838 B(  4-C ,  6-O ) :  -0.1030
B(  4-C , 25-O ) :   1.0816 B(  5-C ,  6-O ) :   1.8488 B(  5-C ,  7-N ) :   1.1508
B(  6-O , 11-C ) :   0.1259 B(  7-N ,  8-C ) :   0.7625 B(  7-N , 29-H ) :   0.8984
B(  8-C ,  9-C ) :   0.9895 B(  8-C , 10-C ) :   0.9212 B(  8-C , 11-C ) :   0.7778
B(  9-C , 30-H ) :   0.9666 B(  9-C , 31-H ) :   0.9278 B(  9-C , 32-H ) :   0.9617
B( 10-C , 33-H ) :   0.9691 B( 10-C , 34-H ) :   0.9613 B( 10-C , 35-H ) :   0.9621
B( 11-C , 12-N ) :   1.6795 B( 11-C , 19-C ) :   0.1106 B( 11-C , 23-N ) :   1.1923
B( 12-N , 13-C ) :   0.8992 B( 12-N , 14-C ) :   0.1069 B( 13-C , 14-C ) :   1.0302
B( 13-C , 19-C ) :   1.3661 B( 14-C , 15-O ) :   2.0592 B( 14-C , 16-O ) :   0.6620
B( 16-O , 17-C ) :   0.8137 B( 16-O , 18-C ) :   0.8095 B( 17-C , 36-H ) :   0.9395
B( 17-C , 37-H ) :   0.9306 B( 17-C , 38-H ) :   0.9266 B( 18-C , 39-H ) :   0.9253
B( 18-C , 40-H ) :   0.9245 B( 18-C , 41-H ) :   0.9369 B( 19-C , 20-O ) :   1.0558
B( 19-C , 21-C ) :   0.9877 B( 20-O , 42-H ) :   0.8040 B( 21-C , 22-O ) :   1.7999
B( 21-C , 23-N ) :   1.1320 B( 23-N , 24-C ) :   0.8451 B( 24-C , 43-H ) :   0.9264
B( 24-C , 44-H ) :   0.9294 B( 24-C , 45-H ) :   0.9320

Dispersion correction           -0.021408531
FINAL SINGLE POINT ENERGY     -1308.326717048716

DIPOLE MOMENT
-------------
                                X             Y             Z
Electronic contribution:     -1.76528       8.29221      -0.68089
Nuclear contribution   :     -2.76147     -11.22316      -0.01837
                        -----------------------------------------
Total Dipole Moment    :     -4.52675      -2.93095      -0.69926
                        -----------------------------------------
Magnitude (a.u.)       :      5.43791
Magnitude (Debye)      :     13.82207

Rotational constants in cm-1:     0.014830     0.003378     0.003260
Rotational constants in MHz :   444.580521   101.266362    97.746437

                             ****ORCA TERMINATED NORMALLY****
TOTAL RUN TIME: 0 days 0 hours 1 minutes 37 seconds 0 msec
