   * xtb version 6.5.1 (579679a) compiled by 'ehlert@majestix' on 2022-07-11
          program call               : /lustre/hpc/kemi/ree/PhD/git/ReactivityQM/dep/xtb-6.5.1/bin/xtb --gfn 1 /lustre/hpc/kemi/ree/PhD/git/ReactivityQM/calculations/R03/reac02prodN16/conf11/R03_reac02prodN16_conf11_gfn1.xyz --opt --vfukui --chrg 1 --uhf 0 --alpb DMSO

   ID    Z sym.   atoms
    1    6 C      1, 2, 5, 6, 9-12, 14, 15, 18-20, 22, 25
    2    7 N      3, 4, 8, 13, 24
    3    8 O      7, 16, 17, 21, 23, 26
    4    1 H      27-46

      * Solvation model:               ALPB
        Solvent                        DMSO
        Solvent mass                       7.8130E+01 g/mol
          :  Hamiltonian                  GFN1-xTB          :
 * total energy  :   -86.2811629 Eh     change       -0.2718537E-10 Eh
 * total energy  :   -86.2954693 Eh     change       -0.1430641E-01 Eh
 * total energy  :   -86.3011097 Eh     change       -0.5640403E-02 Eh
 * total energy  :   -86.3030459 Eh     change       -0.1936217E-02 Eh
 * total energy  :   -86.3044419 Eh     change       -0.1395969E-02 Eh
 * total energy  :   -86.3054942 Eh     change       -0.1052265E-02 Eh
 * total energy  :   -86.3063712 Eh     change       -0.8770398E-03 Eh
 * total energy  :   -86.3070710 Eh     change       -0.6997778E-03 Eh
 * total energy  :   -86.3074728 Eh     change       -0.4018242E-03 Eh
 * total energy  :   -86.3079074 Eh     change       -0.4346261E-03 Eh
 * total energy  :   -86.3129163 Eh     change       -0.1060610E-04 Eh
 * total energy  :   -86.3129438 Eh     change       -0.2745593E-04 Eh
 * total energy  :   -86.3129637 Eh     change       -0.1987676E-04 Eh
 * total energy  :   -86.3129782 Eh     change       -0.1451854E-04 Eh
 * total energy  :   -86.3129941 Eh     change       -0.1587058E-04 Eh
 * total energy  :   -86.3130087 Eh     change       -0.1465106E-04 Eh
 * total energy  :   -86.3130161 Eh     change       -0.7389353E-05 Eh
 * total energy  :   -86.3130218 Eh     change       -0.5656436E-05 Eh
 * total energy  :   -86.3130263 Eh     change       -0.4588584E-05 Eh
   *** GEOMETRY OPTIMIZATION CONVERGED AFTER 45 ITERATIONS ***

 final structure:
================
46
 xtb: 6.5.1 (579679a)
C            6.77731637962644        1.56745159735376       -0.86636379897348
C            5.43613077634368        1.83026777701034       -0.30263840036533
N            5.00513844915966        2.91893666101428        0.25636505706903
N            3.71095354113382        2.69317110564587        0.61191109000338
C            3.42961513852508        1.48007199279732        0.24988587652809
C            2.15193911010397        0.75406513920628        0.41206590476674
O            1.15083692433783        1.26797196540898        0.88482884898098
N            2.19969946458742       -0.51577977794420       -0.05413703388464
C            1.06954814243229       -1.41811960867997        0.14958750820436
C            1.26719702458916       -2.67981359601710       -0.69769656406673
C            1.02142258678124       -1.79951449511417        1.63688481027926
C           -0.22811586986236       -0.72440963504712       -0.23853384851076
N           -1.22631204943906       -0.92066830211001        0.56210052228521
C           -2.45438372864236       -0.35622771439594        0.33103220972513
C           -3.43858525072553       -0.75567333104120        1.30808789453039
O           -3.39750476364866       -1.55963628704428        2.17208769474949
O           -4.76544514542345       -0.05207619362444        1.11139305736780
C           -5.88863857042915       -0.84952567275952        1.58340239938358
C           -4.78958319895265        1.32391281631036        1.59423369094405
C           -2.64179200285147        0.44321644027899       -0.77136040314453
O           -3.77287440084739        1.05594317091851       -1.08434282755718
C           -1.53446720018752        0.64673140035222       -1.70551792174912
O           -1.67691001621580        1.33650220646117       -2.70426900163890
N           -0.35597003272348        0.00908329459519       -1.39247707984132
C            0.70455650956351        0.23874979382532       -2.37764529668674
O            4.48760289793770        0.87983363563879       -0.33688687503206
H            7.22173765499050        0.70126180530015       -0.37694677707213
H            6.69318580652895        1.34505212353121       -1.92999430996934
H            7.41372153802397        2.43776975279468       -0.72385925908727
H            3.07992466234095       -0.91489267008269       -0.33424512469162
H            0.41279284844697       -3.34143649695524       -0.56326250731312
H            1.36269850959526       -2.44346958626450       -1.75460963683018
H            2.16854430044054       -3.19649660985484       -0.37266997990063
H            1.98189793218855       -2.21977690327931        1.92844322037671
H            0.23944932472812       -2.53709514837542        1.80648495269526
H            0.81473658729365       -0.91809719751997        2.24211368891196
H           -5.81699982887716       -1.81331282030334        1.08514622981231
H           -6.78898309401283       -0.32086792664401        1.28271616202361
H           -5.83339771082015       -0.95875501935439        2.66615183594483
H           -3.86716539052589        1.79709841417949        1.27033597235320
H           -4.87294535959517        1.32376071429046        2.68075149902704
H           -5.64851812666142        1.79890217249033        1.12702124783032
H           -3.65751242455597        1.52984486345815       -1.93585893428688
H            1.50736272258814       -0.47570688294025       -2.25474754905582
H            1.08458294929383        1.25335133563183       -2.25533836519126
H            0.26351238357929        0.13839769660588       -3.36904787881914

          :  Hamiltonian                  GFN1-xTB          :
         :: total energy             -86.313026342099 Eh    ::
         :: gradient norm              0.000646129723 Eh/a0 ::
         :: HOMO-LUMO gap              2.030766709042 eV    ::
         :: SCC energy               -87.153677780621 Eh    ::
         :: -> Gsolv                  -0.112613134341 Eh    ::
         :: repulsion energy           0.870718683884 Eh    ::

    * Orbital Energies and Occupations

         #    Occupation            Energy/Eh            Energy/eV
      -------------------------------------------------------------
         1        2.0000           -0.9283903             -25.2628
       ...           ...                  ...                  ...
        58        2.0000           -0.5286292             -14.3847
        59        2.0000           -0.5189826             -14.1222
        60        2.0000           -0.5125400             -13.9469
        61        2.0000           -0.5098589             -13.8740
        62        2.0000           -0.5025280             -13.6745
        63        2.0000           -0.4891791             -13.3112
        64        2.0000           -0.4854034             -13.2085
        65        2.0000           -0.4780099             -13.0073
        66        2.0000           -0.4749616             -12.9244
        67        2.0000           -0.4658850             -12.6774
        68        2.0000           -0.4589571             -12.4889
        69        2.0000           -0.4561542             -12.4126
        70        2.0000           -0.4531161             -12.3299 (HOMO)
        71                         -0.3784868             -10.2992 (LUMO)
        72                         -0.3191850              -8.6855
        73                         -0.3097629              -8.4291
        74                         -0.2867732              -7.8035
        75                         -0.2606358              -7.0923
        76                         -0.2059024              -5.6029
        77                         -0.1941211              -5.2823
        78                         -0.1811362              -4.9290
        79                         -0.1726862              -4.6990
        80                         -0.1495587              -4.0697
        81                         -0.1430696              -3.8931
       ...                                ...                  ...
       144                          0.7521220              20.4663
      -------------------------------------------------------------
                  HL-Gap            0.0746293 Eh            2.0308 eV

Wiberg/Mayer (AO) data.
largest (>0.10) Wiberg bond orders for each atom

     #   Z sym  total        # sym  WBO       # sym  WBO       # sym  WBO
 ---------------------------------------------------------------------------
     1   6 C    3.985 --     2 C    1.033    29 H    0.982    27 H    0.963
                            28 H    0.961
     2   6 C    3.866 --     3 N    1.605    26 O    1.073     1 C    1.033
     3   7 N    2.982 --     2 C    1.605     4 N    1.204
     4   7 N    3.002 --     5 C    1.617     3 N    1.204
     5   6 C    3.876 --     4 N    1.617    26 O    1.047     6 C    1.001
     6   6 C    3.915 --     7 O    1.585     8 N    1.240     5 C    1.001
     7   8 O    1.892 --     6 C    1.585     8 N    0.170
     8   7 N    3.339 --     6 C    1.240     9 C    0.932    30 H    0.888
                             7 O    0.170
     9   6 C    3.936 --    11 C    0.986    10 C    0.982    12 C    0.976
                             8 N    0.932
    10   6 C    3.987 --    31 H    0.983     9 C    0.982    33 H    0.980
                            32 H    0.979
    11   6 C    3.987 --     9 C    0.986    34 H    0.985    35 H    0.984
                            36 H    0.982
    12   6 C    3.921 --    13 N    1.570    24 N    1.166     9 C    0.976
    13   7 N    3.026 --    12 C    1.570    14 C    1.164
    14   6 C    3.960 --    20 C    1.427    13 N    1.164    15 C    1.107
    15   6 C    3.799 --    16 O    1.824    14 C    1.107    17 O    0.727
    16   8 O    2.087 --    15 C    1.824
    17   8 O    2.476 --    18 C    0.819    19 C    0.812    15 C    0.727
    18   6 C    3.790 --    39 H    0.979    38 H    0.977    37 H    0.977
                            17 O    0.819
    19   6 C    3.787 --    41 H    0.980    42 H    0.976    40 H    0.975
                            17 O    0.812
    20   6 C    3.913 --    14 C    1.427    21 O    1.148    22 C    1.049
    21   8 O    2.125 --    20 C    1.148    43 H    0.779
    22   6 C    3.921 --    23 O    1.577    24 N    1.152    20 C    1.049
    23   8 O    1.921 --    22 C    1.577    24 N    0.144
    24   7 N    3.529 --    12 C    1.166    22 C    1.152    25 C    0.920
                            23 O    0.144
    25   6 C    3.910 --    44 H    0.978    46 H    0.973    45 H    0.971
                            24 N    0.920
    26   8 O    2.317 --     2 C    1.073     5 C    1.047
    27   1 H    0.996 --     1 C    0.963
    28   1 H    0.996 --     1 C    0.961
    29   1 H    0.998 --     1 C    0.982
    30   1 H    0.929 --     8 N    0.888
    31   1 H    0.999 --    10 C    0.983
    32   1 H    0.999 --    10 C    0.979
    33   1 H    0.995 --    10 C    0.980
    34   1 H    1.000 --    11 C    0.985
    35   1 H    1.009 --    11 C    0.984
    36   1 H    1.008 --    11 C    0.982
    37   1 H    0.995 --    18 C    0.977
    38   1 H    0.994 --    18 C    0.977
    39   1 H    0.997 --    18 C    0.979
    40   1 H    1.001 --    19 C    0.975
    41   1 H    0.992 --    19 C    0.980
    42   1 H    0.996 --    19 C    0.976
    43   1 H    0.824 --    21 O    0.779
    44   1 H    1.008 --    25 C    0.978
    45   1 H    0.998 --    25 C    0.971
    46   1 H    1.001 --    25 C    0.973
 ---------------------------------------------------------------------------

           -------------------------------------------------
          | TOTAL ENERGY              -86.313026342099 Eh   |
          | GRADIENT NORM               0.000646129723 Eh/α |
          | HOMO-LUMO GAP               2.030766709042 eV   |
           -------------------------------------------------

 * finished run on 2023/06/20 at 15:52:51.305
