   * xtb version 6.5.1 (579679a) compiled by 'ehlert@majestix' on 2022-07-11
          program call               : /lustre/hpc/kemi/ree/PhD/git/ReactivityQM/dep/xtb-6.5.1/bin/xtb --gfn 1 /lustre/hpc/kemi/ree/PhD/git/ReactivityQM/calculations/R03/reac02prodE10/conf10/R03_reac02prodE10_conf10_gfn1.xyz --opt --vfukui --chrg -1 --uhf 0 --alpb DMSO

   ID    Z sym.   atoms
    1    6 C      1, 3, 5, 7-10, 12, 14, 17-19, 22, 23, 25
    2    8 O      2, 4, 13, 20, 24, 26
    3    7 N      6, 11, 15, 16, 21
    4    1 H      27-46

      * Solvation model:               ALPB
        Solvent                        DMSO
        Solvent mass                       7.8130E+01 g/mol
          :  Hamiltonian                  GFN1-xTB          :
 * total energy  :   -86.9865890 Eh     change       -0.1728040E-10 Eh
 * total energy  :   -86.9989997 Eh     change       -0.1241068E-01 Eh
 * total energy  :   -87.0038441 Eh     change       -0.4844433E-02 Eh
 * total energy  :   -87.0045441 Eh     change       -0.6999381E-03 Eh
 * total energy  :   -87.0051954 Eh     change       -0.6513576E-03 Eh
 * total energy  :   -87.0053893 Eh     change       -0.1939126E-03 Eh
 * total energy  :   -87.0055584 Eh     change       -0.1690324E-03 Eh
 * total energy  :   -87.0056587 Eh     change       -0.1003542E-03 Eh
 * total energy  :   -87.0057084 Eh     change       -0.4969198E-04 Eh
 * total energy  :   -87.0057436 Eh     change       -0.3521032E-04 Eh
 * total energy  :   -87.0058301 Eh     change       -0.1741508E-04 Eh
 * total energy  :   -87.0058466 Eh     change       -0.1656821E-04 Eh
 * total energy  :   -87.0058595 Eh     change       -0.1284387E-04 Eh
 * total energy  :   -87.0058790 Eh     change       -0.1953434E-04 Eh
 * total energy  :   -87.0058930 Eh     change       -0.1395549E-04 Eh
 * total energy  :   -87.0059035 Eh     change       -0.1052264E-04 Eh
 * total energy  :   -87.0059139 Eh     change       -0.1037227E-04 Eh
 * total energy  :   -87.0059217 Eh     change       -0.7850082E-05 Eh
 * total energy  :   -87.0059260 Eh     change       -0.4263698E-05 Eh
   *** GEOMETRY OPTIMIZATION CONVERGED AFTER 22 ITERATIONS ***

 final structure:
================
46
 xtb: 6.5.1 (579679a)
C           -5.02323101823760        0.69969610559673       -3.52219791027839
O           -4.15013957245093        0.49821281312919       -2.42207335022684
C           -4.40707343890818        1.27914520908528       -1.31841682615208
O           -5.33524033229449        2.08719719738766       -1.32937266222220
C           -3.49390501616957        1.02443311053679       -0.22935414509844
N           -2.51282911405677        0.07566376583383       -0.43143957142672
C           -1.65300150639942       -0.23315250015104        0.48018569549389
C           -0.65209972245017       -1.33371985092182        0.11916217417755
C           -0.77488852826663       -1.63842145763992       -1.38550803351019
C           -0.99742830524101       -2.60106864548096        0.92011577772947
N            0.69563025928075       -0.85189269816794        0.43858877416001
C            1.83143596043256       -1.63795285847917        0.04829007638490
O            1.75411053484415       -2.87912473191248       -0.14253355474785
C            2.98638624999086       -0.86298241988495       -0.00971423569175
N            3.09500335666741        0.49887438906726        0.20543304211960
N            4.39214072716817        0.74816553945479        0.01677093225062
C            4.88502845027694        2.09641137474825        0.17516248429023
C            5.08555538010017       -0.32170337411788       -0.29597301879155
C            6.53976246231282       -0.42010349045292       -0.56067807516248
O            4.27309092896319       -1.39359822367531       -0.33557632189709
N           -1.65920103848398        0.36703747876493        1.72417484794226
C           -0.76407067337151        0.05175832739003        2.83353722745245
C           -2.62910039241555        1.33823844815880        2.04274271793028
O           -2.64891452386977        1.86233210096999        3.17629553573450
C           -3.54746739405255        1.66325199726434        1.01687761441906
O           -4.48509839168644        2.61094757570209        1.32327767831601
H           -6.05890846069118        0.47364142810092       -3.24565250635172
H           -4.97312903041214        1.73492721212621       -3.87686275890337
H           -4.70128174247505        0.02521164192381       -4.31515416122270
H           -0.08285676841174       -2.43242432266330       -1.66107035915178
H           -0.54828400018875       -0.74697226389069       -1.96964783397852
H           -1.78972132019862       -1.95916082523971       -1.61809517571534
H           -0.41059526843536       -3.44553343830834        0.56218546297415
H           -2.05575281163315       -2.83061078875585        0.79463848821722
H           -0.79292041044111       -2.46452410806233        1.97994997984655
H            0.81913470202573        0.11760627334618        0.16493297027191
H            4.05074338330380        2.72630904550898        0.47422627000890
H            5.66024888646347        2.11312825302978        0.93948629241742
H            5.30033689701876        2.44793936831765       -0.76819779877711
H            6.76309341100111       -1.40030654016552       -0.97654034077825
H            7.11122696205450       -0.28942290970152        0.36019256593728
H            6.85509184429059        0.35123855896734       -1.26287188699537
H           -1.29682580822726       -0.54534084339125        3.57755573630356
H            0.11401940234027       -0.48454266259260        2.48648310516573
H           -0.45056823692629        0.98766048946211        3.30004887478292
H           -4.31750397213949        2.89353324978423        2.23854020274964

          :  Hamiltonian                  GFN1-xTB          :
         :: total energy             -87.005925980956 Eh    ::
         :: gradient norm              0.000456516913 Eh/a0 ::
         :: HOMO-LUMO gap              0.039223488875 eV    ::
         :: SCC energy               -87.796997645410 Eh    ::
         :: -> Gsolv                  -0.127857380734 Eh    ::
         :: repulsion energy           0.819495866888 Eh    ::

    * Orbital Energies and Occupations

         #    Occupation            Energy/Eh            Energy/eV
      -------------------------------------------------------------
         1        2.0000           -0.8395246             -22.8446
       ...           ...                  ...                  ...
        59        2.0000           -0.4719729             -12.8430
        60        2.0000           -0.4656252             -12.6703
        61        2.0000           -0.4619302             -12.5698
        62        2.0000           -0.4465370             -12.1509
        63        2.0000           -0.4365218             -11.8784
        64        2.0000           -0.4287979             -11.6682
        65        2.0000           -0.4197430             -11.4218
        66        2.0000           -0.4168533             -11.3432
        67        2.0000           -0.4040418             -10.9945
        68        2.0000           -0.4037846             -10.9875
        69        2.0000           -0.3883049             -10.5663
        70        2.0000           -0.3838401             -10.4448
        71        1.3621           -0.2904124              -7.9025 (HOMO)
        72        0.6379           -0.2889709              -7.8633 (LUMO)
        73                         -0.2611879              -7.1073
        74                         -0.2393585              -6.5133
        75                         -0.1951039              -5.3090
        76                         -0.1536110              -4.1800
        77                         -0.1462219              -3.9789
        78                         -0.1391051              -3.7852
        79                         -0.1215603              -3.3078
        80                         -0.1180055              -3.2111
        81                         -0.1107724              -3.0143
        82                         -0.1009438              -2.7468
       ...                                ...                  ...
       144                          0.7175409              19.5253
      -------------------------------------------------------------
                  HL-Gap            0.0014414 Eh            0.0392 eV

Wiberg/Mayer (AO) data.
largest (>0.10) Wiberg bond orders for each atom

     #   Z sym  total        # sym  WBO       # sym  WBO       # sym  WBO
 ---------------------------------------------------------------------------
     1   6 C    3.902 --    29 H    0.987    27 H    0.980    28 H    0.980
                             2 O    0.931
     2   8 O    2.102 --     3 C    1.005     1 C    0.931     4 O    0.102
     3   6 C    3.743 --     4 O    1.540     5 C    1.130     2 O    1.005
     4   8 O    1.764 --     3 C    1.540     2 O    0.102
     5   6 C    3.812 --    25 C    1.309     6 N    1.151     3 C    1.130
     6   7 N    3.009 --     7 C    1.598     5 C    1.151
     7   6 C    3.902 --     6 N    1.598    21 N    1.137     8 C    0.972
     8   6 C    3.956 --     9 C    0.990    10 C    0.985     7 C    0.972
                            11 N    0.952
     9   6 C    3.993 --     8 C    0.990    31 H    0.986    32 H    0.985
                            30 H    0.982
    10   6 C    3.992 --    34 H    0.988     8 C    0.985    35 H    0.983
                            33 H    0.978
    11   7 N    3.101 --    12 C    0.995     8 C    0.952    36 H    0.928
    12   6 C    3.805 --    13 O    1.397    14 C    1.313    11 N    0.995
    13   8 O    1.657 --    12 C    1.397
    14   6 C    3.560 --    12 C    1.313    15 N    1.181    20 O    0.884
    15   7 N    2.681 --    14 C    1.181    16 N    1.160    18 C    0.199
    16   7 N    3.639 --    18 C    1.408    15 N    1.160    17 C    0.940
    17   6 C    3.936 --    37 H    0.983    38 H    0.979    39 H    0.978
                            16 N    0.940
    18   6 C    3.792 --    16 N    1.408    20 O    1.081    19 C    1.029
                            15 N    0.199
    19   6 C    3.987 --    18 C    1.029    40 H    0.980    42 H    0.971
                            41 H    0.962
    20   8 O    2.125 --    18 C    1.081    14 C    0.884
    21   7 N    3.360 --     7 C    1.137    23 C    1.047    22 C    0.943
    22   6 C    3.940 --    43 H    0.980    45 H    0.978    44 H    0.974
                            21 N    0.943
    23   6 C    3.834 --    24 O    1.449    25 C    1.215    21 N    1.047
    24   8 O    1.755 --    23 C    1.449
    25   6 C    3.737 --     5 C    1.309    23 C    1.215    26 O    1.035
    26   8 O    1.985 --    25 C    1.035    46 H    0.833
    27   1 H    1.014 --     1 C    0.980
    28   1 H    1.014 --     1 C    0.980
    29   1 H    1.016 --     1 C    0.987
    30   1 H    1.017 --     9 C    0.982
    31   1 H    1.013 --     9 C    0.986
    32   1 H    1.019 --     9 C    0.985
    33   1 H    1.024 --    10 C    0.978
    34   1 H    1.007 --    10 C    0.988
    35   1 H    1.008 --    10 C    0.983
    36   1 H    0.976 --    11 N    0.928
    37   1 H    1.006 --    17 C    0.983
    38   1 H    0.999 --    17 C    0.979
    39   1 H    0.999 --    17 C    0.978
    40   1 H    0.998 --    19 C    0.980
    41   1 H    0.995 --    19 C    0.962
    42   1 H    0.997 --    19 C    0.971
    43   1 H    1.005 --    22 C    0.980
    44   1 H    1.026 --    22 C    0.974
    45   1 H    1.014 --    22 C    0.978
    46   1 H    0.877 --    26 O    0.833
 ---------------------------------------------------------------------------

           -------------------------------------------------
          | TOTAL ENERGY              -87.005925980956 Eh   |
          | GRADIENT NORM               0.000456516913 Eh/α |
          | HOMO-LUMO GAP               0.039223488875 eV   |
           -------------------------------------------------

 * finished run on 2023/06/20 at 15:29:54.332
