   * xtb version 6.5.1 (579679a) compiled by 'ehlert@majestix' on 2022-07-11
          program call               : /lustre/hpc/kemi/ree/PhD/git/ReactivityQM/dep/xtb-6.5.1/bin/xtb --gfn 1 /lustre/hpc/kemi/ree/PhD/git/ReactivityQM/calculations/R02methylcation/reac01prodN01/conf01/R02methylcation_reac01prodN01_conf01_gfn1.xyz --opt --vfukui --chrg 0 --uhf 0 --alpb DMSO

   ID    Z sym.   atoms
    1    6 C      1, 3, 5, 7-10, 12, 14, 17, 18, 20, 22, 24
    2    8 O      2, 4, 13, 19, 23, 25
    3    7 N      6, 11, 15, 16, 21
    4    1 H      26-42

      * Solvation model:               ALPB
        Solvent                        DMSO
        Solvent mass                       7.8130E+01 g/mol
          :  Hamiltonian                  GFN1-xTB          :
 * total energy  :   -82.8827744 Eh     change       -0.3510081E-11 Eh
 * total energy  :   -82.8996857 Eh     change       -0.1691133E-01 Eh
 * total energy  :   -82.9081934 Eh     change       -0.8507634E-02 Eh
 * total energy  :   -82.9107110 Eh     change       -0.2517658E-02 Eh
 * total energy  :   -82.9122869 Eh     change       -0.1575848E-02 Eh
 * total energy  :   -82.9130604 Eh     change       -0.7735816E-03 Eh
 * total energy  :   -82.9136704 Eh     change       -0.6099369E-03 Eh
 * total energy  :   -82.9141441 Eh     change       -0.4737181E-03 Eh
 * total energy  :   -82.9144708 Eh     change       -0.3266753E-03 Eh
 * total energy  :   -82.9147029 Eh     change       -0.2321319E-03 Eh
 * total energy  :   -82.9167450 Eh     change       -0.8574324E-04 Eh
 * total energy  :   -82.9167563 Eh     change       -0.1136049E-04 Eh
 * total energy  :   -82.9167794 Eh     change       -0.2304819E-04 Eh
 * total energy  :   -82.9167867 Eh     change       -0.7273465E-05 Eh
 * total energy  :   -82.9167974 Eh     change       -0.1070196E-04 Eh
 * total energy  :   -82.9168046 Eh     change       -0.7265934E-05 Eh
 * total energy  :   -82.9168137 Eh     change       -0.9066922E-05 Eh
 * total energy  :   -82.9168190 Eh     change       -0.5281878E-05 Eh
 * total energy  :   -82.9168232 Eh     change       -0.4263765E-05 Eh
   *** GEOMETRY OPTIMIZATION CONVERGED AFTER 42 ITERATIONS ***

 final structure:
================
42
 xtb: 6.5.1 (579679a)
C            2.80063354318501        3.33185655322103        0.63874882410455
O            2.61780667745545        1.96000039438004        0.31424389518225
C            3.76836746000045        1.23689633614742        0.13395274556033
O            4.85751632885943        1.77146134154717        0.25676432927981
C            3.49843827804876       -0.15007912123715       -0.20130424598846
N            2.15834230983268       -0.48469222953170       -0.26352198557011
C            1.78778132158479       -1.67576772218318       -0.55453925474895
C            0.30800602220405       -2.00531621055939       -0.60896790967312
C           -0.11391490169095       -2.40714353046743       -2.02769008709607
C           -0.05368431718370       -3.09455664756054        0.40762500857636
N           -0.35832411137494       -0.75124911011244       -0.23986502789828
C           -1.66748602171912       -0.57828097928257       -0.14935416446952
O           -2.54719506193967       -1.40099593828965       -0.34758339061804
C           -1.99534517852908        0.82990096201165        0.25074391533006
N           -1.21086120337380        1.80629709621446        0.50437095478633
N           -1.96156907591988        2.90379252993815        0.82939162823764
C           -3.19850335629452        2.59337557264013        0.77322346047126
C           -4.38258242427760        3.42582583703614        1.03504074066153
O           -3.31894878845295        1.24833478007370        0.40065411316787
C           -4.51886007337265        0.43913197875528        0.18900766214757
N            2.69101337901211       -2.67708700401918       -0.82379771502614
C            4.05520816186860       -2.49174554780438       -0.80056457960187
O            4.79784529495603       -3.43250190185474       -1.05642699971762
C            4.52909299877453       -1.09528597255848       -0.44996215692095
O            5.74975404951668       -0.87494952699797       -0.40641878398368
H            3.35523721156677        3.84751930479628       -0.15219088029054
H            1.80774056184606        3.76859423047483        0.73607167029586
H            3.34550335061979        3.43828563819209        1.58266812126146
H            0.11127838970567       -1.60281751155780       -2.72652322832940
H            0.42445815016648       -3.30370441567954       -2.32872574927954
H           -1.18189460425029       -2.61350107081340       -2.05477570223572
H            0.48575522218903       -4.00975104492797        0.17142150251521
H            0.21298784653786       -2.77147141551414        1.41288883110739
H           -1.12160683644036       -3.29900412039433        0.37080255892996
H            0.28720105347951        0.02285984734452       -0.05268562085074
H           -4.05006957864948        4.42514069394218        1.31087329590246
H           -5.01199015281502        3.48446829624813        0.14679782815446
H           -4.97528275008687        3.00296204428153        1.84637378675100
H           -5.36925933567518        1.08531395748984        0.37980988527044
H           -4.49870003997328        0.09078135444565       -0.84137094536969
H           -4.47831404305046       -0.39291102179842        0.88818937355249
H            2.36442524365212       -3.59998770603796       -1.05655870358453

          :  Hamiltonian                  GFN1-xTB          :
         :: total energy             -82.916823246910 Eh    ::
         :: gradient norm              0.000421350101 Eh/a0 ::
         :: HOMO-LUMO gap              0.449803272334 eV    ::
         :: SCC energy               -83.700337686507 Eh    ::
         :: -> Gsolv                  -0.123964698935 Eh    ::
         :: repulsion energy           0.809855984875 Eh    ::

    * Orbital Energies and Occupations

         #    Occupation            Energy/Eh            Energy/eV
      -------------------------------------------------------------
         1        2.0000           -0.9639090             -26.2293
       ...           ...                  ...                  ...
        55        2.0000           -0.5075297             -13.8106
        56        2.0000           -0.5013338             -13.6420
        57        2.0000           -0.4999568             -13.6045
        58        2.0000           -0.4930737             -13.4172
        59        2.0000           -0.4825624             -13.1312
        60        2.0000           -0.4721731             -12.8485
        61        2.0000           -0.4665433             -12.6953
        62        2.0000           -0.4643449             -12.6355
        63        2.0000           -0.4498015             -12.2397
        64        2.0000           -0.4446879             -12.1006
        65        2.0000           -0.4294994             -11.6873
        66        2.0000           -0.3863038             -10.5119
        67        1.9997           -0.3740561             -10.1786 (HOMO)
        68        0.0003           -0.3575262              -9.7288 (LUMO)
        69                         -0.3092648              -8.4155
        70                         -0.2779511              -7.5634
        71                         -0.2501562              -6.8071
        72                         -0.2355054              -6.4084
        73                         -0.2041042              -5.5540
        74                         -0.1873066              -5.0969
        75                         -0.1735914              -4.7237
        76                         -0.1341772              -3.6511
        77                         -0.1287503              -3.5035
        78                         -0.1253160              -3.4100
       ...                                ...                  ...
       134                          0.7653486              20.8262
      -------------------------------------------------------------
                  HL-Gap            0.0165300 Eh            0.4498 eV

Wiberg/Mayer (AO) data.
largest (>0.10) Wiberg bond orders for each atom

     #   Z sym  total        # sym  WBO       # sym  WBO       # sym  WBO
 ---------------------------------------------------------------------------
     1   6 C    3.898 --    27 H    0.987    28 H    0.980    26 H    0.980
                             2 O    0.925
     2   8 O    2.133 --     3 C    1.021     1 C    0.925     4 O    0.109
     3   6 C    3.850 --     4 O    1.599     5 C    1.118     2 O    1.021
     4   8 O    1.875 --     3 C    1.599     2 O    0.109
     5   6 C    3.911 --    24 C    1.263     6 N    1.147     3 C    1.118
                            25 O    0.129
     6   7 N    3.072 --     7 C    1.623     5 C    1.147
     7   6 C    3.936 --     6 N    1.623    21 N    1.106     8 C    0.977
     8   6 C    3.920 --    10 C    0.983     9 C    0.982     7 C    0.977
                            11 N    0.912
     9   6 C    3.988 --    29 H    0.985    30 H    0.983     8 C    0.982
                            31 H    0.981
    10   6 C    3.988 --    33 H    0.985     8 C    0.983    32 H    0.983
                            34 H    0.981
    11   7 N    3.419 --    12 C    1.339     8 C    0.912    35 H    0.854
                            13 O    0.201
    12   6 C    3.931 --    13 O    1.557    11 N    1.339    14 C    0.962
    13   8 O    1.922 --    12 C    1.557    11 N    0.201
    14   6 C    3.795 --    15 N    1.709    12 C    0.962    19 O    0.882
    15   7 N    3.042 --    14 C    1.709    16 N    1.142
    16   7 N    3.024 --    17 C    1.702    15 N    1.142
    17   6 C    3.804 --    16 N    1.702    18 C    1.043    19 O    0.875
    18   6 C    3.970 --    17 C    1.043    36 H    0.970    38 H    0.952
                            37 H    0.951
    19   8 O    2.653 --    14 C    0.882    17 C    0.875    20 C    0.749
    20   6 C    3.727 --    39 H    0.975    40 H    0.968    41 H    0.968
                            19 O    0.749
    21   7 N    3.424 --    22 C    1.146     7 C    1.106    42 H    0.895
                            23 O    0.133
    22   6 C    3.874 --    23 O    1.595    21 N    1.146    24 C    0.962
    23   8 O    1.872 --    22 C    1.595    21 N    0.133
    24   6 C    3.942 --    25 O    1.535     5 C    1.263    22 C    0.962
    25   8 O    1.838 --    24 C    1.535     5 C    0.129
    26   1 H    1.013 --     1 C    0.980
    27   1 H    1.017 --     1 C    0.987
    28   1 H    1.013 --     1 C    0.980
    29   1 H    1.002 --     9 C    0.985
    30   1 H    1.000 --     9 C    0.983
    31   1 H    1.005 --     9 C    0.981
    32   1 H    1.000 --    10 C    0.983
    33   1 H    1.002 --    10 C    0.985
    34   1 H    1.005 --    10 C    0.981
    35   1 H    0.967 --    11 N    0.854
    36   1 H    0.989 --    18 C    0.970
    37   1 H    0.989 --    18 C    0.951
    38   1 H    0.989 --    18 C    0.952
    39   1 H    0.991 --    20 C    0.975
    40   1 H    1.000 --    20 C    0.968
    41   1 H    1.001 --    20 C    0.968
    42   1 H    0.943 --    21 N    0.895
 ---------------------------------------------------------------------------

           -------------------------------------------------
          | TOTAL ENERGY              -82.916823246910 Eh   |
          | GRADIENT NORM               0.000421350101 Eh/α |
          | HOMO-LUMO GAP               0.449803272334 eV   |
           -------------------------------------------------

 * finished run on 2023/06/21 at 17:29:32.071
