   * xtb version 6.5.1 (579679a) compiled by 'ehlert@majestix' on 2022-07-11
          program call               : /lustre/hpc/kemi/ree/PhD/git/ReactivityQM/dep/xtb-6.5.1/bin/xtb --gfn 1 /lustre/hpc/kemi/ree/PhD/git/ReactivityQM/calculations/RaltegravirCLI/reac02prodN06/conf05/RaltegravirCLI_reac02prodN06_conf05_gfn1.xyz --opt --vfukui --chrg 1 --uhf 0 --alpb DMSO

   ID    Z sym.   atoms
    1    6 C      1, 3, 5, 7-9, 12-16, 18, 19, 21-24
    2    7 N      2, 11, 20, 25
    3    8 O      4, 6, 10
    4    9 F      17
    5    1 H      26-47

      * Solvation model:               ALPB
        Solvent                        DMSO
        Solvent mass                       7.8130E+01 g/mol
          :  Hamiltonian                  GFN1-xTB          :
 * total energy  :   -79.4636108 Eh     change       -0.4614549E-09 Eh
 * total energy  :   -79.4791675 Eh     change       -0.1555676E-01 Eh
 * total energy  :   -79.4852479 Eh     change       -0.6080398E-02 Eh
 * total energy  :   -79.4867446 Eh     change       -0.1496661E-02 Eh
 * total energy  :   -79.4881010 Eh     change       -0.1356381E-02 Eh
 * total energy  :   -79.4886553 Eh     change       -0.5543334E-03 Eh
 * total energy  :   -79.4892191 Eh     change       -0.5637614E-03 Eh
 * total energy  :   -79.4897539 Eh     change       -0.5348012E-03 Eh
 * total energy  :   -79.4901727 Eh     change       -0.4188630E-03 Eh
 * total energy  :   -79.4904727 Eh     change       -0.2999477E-03 Eh
 * total energy  :   -79.4927580 Eh     change       -0.2603889E-04 Eh
 * total energy  :   -79.4927752 Eh     change       -0.1714759E-04 Eh
 * total energy  :   -79.4927870 Eh     change       -0.1184387E-04 Eh
 * total energy  :   -79.4928020 Eh     change       -0.1492856E-04 Eh
 * total energy  :   -79.4927997 Eh     change        0.2283715E-05 Eh
 * total energy  :   -79.4928088 Eh     change       -0.9093445E-05 Eh
 * total energy  :   -79.4928167 Eh     change       -0.7955999E-05 Eh
 * total energy  :   -79.4928223 Eh     change       -0.5613608E-05 Eh
 * total energy  :   -79.4928261 Eh     change       -0.3772682E-05 Eh
   *** GEOMETRY OPTIMIZATION CONVERGED AFTER 46 ITERATIONS ***

 final structure:
================
47
 xtb: 6.5.1 (579679a)
C           -4.02256754273357        0.67802293415383       -1.46230784344088
N           -2.74305209127954        0.83439195047313       -0.76091282222156
C           -1.93765512509694        1.79535841620083       -1.30074660933802
O           -2.24053214257431        2.49778708411703       -2.25054771216887
C           -0.62985003954199        1.97068535742807       -0.64127881220948
O            0.15288481230207        2.88967815397643       -1.10819840156387
C           -0.20452804618682        1.04974625215609        0.36389998175840
C            0.84215691773189        1.46303284397760        1.38813932480744
C            0.52760079922325        0.00675842854233       -0.76527819244591
O           -0.05356666975080       -0.99361666712732       -1.05460699386919
N            1.69731924196346        0.46206923325286       -1.14510068641568
C            2.61956040336620       -0.38073515458913       -1.92263441453461
C            3.83762770082341       -0.71840251996936       -1.09617323999403
C            5.11249502418007       -0.49199403186659       -1.60837234438231
C            6.23760508874123       -0.81034883613107       -0.86080189828600
C            6.05755980567869       -1.34991907045277        0.40017376549004
F            7.13759131732602       -1.65422119853707        1.12984633269656
C            4.80431864851499       -1.58208497076965        0.94011077758654
C            3.69045115005055       -1.26317927430941        0.17829112540263
N           -1.22899168906457        0.28227452254124        0.93964638224034
C           -2.38437894157828        0.14646559951487        0.39362741685839
C           -3.37994880816533       -0.73298632871811        1.14158477793568
C           -4.47416424659210        0.15989615629545        1.74361387867344
C           -2.64716134443306       -1.47726288170279        2.26863914836737
N           -3.98493759150689       -1.69482845423448        0.22720467328735
H           -4.68629720950007        1.49329900209311       -1.17481837944628
H           -3.82520432871349        0.73875715358841       -2.53244053718368
H           -4.46111938767496       -0.28372508602978       -1.20902293604841
H           -0.24985038151692        3.35962505066199       -1.87293729824252
H            1.38820032452267        0.58982801563068        1.73919186105327
H            1.53464214854008        2.18718871025653        0.96693661249810
H            0.32492409122046        1.91581832521769        2.23335540790100
H            2.02381983591948        1.38136259393128       -0.89644305450110
H            2.07319338158901       -1.28234113526600       -2.21286357534370
H            2.89618414262270        0.17760759887412       -2.81966920681736
H            5.22917033184317       -0.06414515370842       -2.59676629801873
H            7.23393662570496       -0.63748525462899       -1.24650230843965
H            4.70366534821039       -1.99835724699105        1.93393868904163
H            2.69882977876085       -1.42990449654130        0.58140333868577
H           -4.02370409221055        0.93228797106165        2.36538462156825
H           -5.06555269900195        0.63420931774008        0.96369255790027
H           -5.13506047680565       -0.44746969126761        2.36031442180766
H           -3.34544622758591       -2.14720576233792        2.76722179533270
H           -1.82479092118607       -2.06122641319908        1.85866734585819
H           -2.24847241499893       -0.77143832076036        2.99552698340932
H           -3.29350514005465       -2.38064908147398       -0.04791242442299
H           -4.73339936106922       -2.17691964105874        0.70592676917504

          :  Hamiltonian                  GFN1-xTB          :
         :: total energy             -79.492826102755 Eh    ::
         :: gradient norm              0.000644638193 Eh/a0 ::
         :: HOMO-LUMO gap              0.644241647961 eV    ::
         :: SCC energy               -80.394851261729 Eh    ::
         :: -> Gsolv                  -0.102204561701 Eh    ::
         :: repulsion energy           0.933791894334 Eh    ::

    * Orbital Energies and Occupations

         #    Occupation            Energy/Eh            Energy/eV
      -------------------------------------------------------------
         1        2.0000           -0.8957882             -24.3756
       ...           ...                  ...                  ...
        55        2.0000           -0.5191564             -14.1270
        56        2.0000           -0.5156566             -14.0317
        57        2.0000           -0.5143449             -13.9960
        58        2.0000           -0.5090260             -13.8513
        59        2.0000           -0.4973282             -13.5330
        60        2.0000           -0.4942775             -13.4500
        61        2.0000           -0.4927061             -13.4072
        62        2.0000           -0.4865773             -13.2404
        63        2.0000           -0.4799550             -13.0602
        64        2.0000           -0.4724361             -12.8556
        65        2.0000           -0.4651473             -12.6573
        66        2.0000           -0.4514565             -12.2848
        67        2.0000           -0.4267259             -11.6118 (HOMO)
        68        0.0000           -0.4030505             -10.9676 (LUMO)
        69                         -0.3200632              -8.7094
        70                         -0.2920630              -7.9474
        71                         -0.2870077              -7.8099
        72                         -0.2808418              -7.6421
        73                         -0.2534585              -6.8970
        74                         -0.1612233              -4.3871
        75                         -0.1590155              -4.3270
        76                         -0.1501659              -4.0862
        77                         -0.1453350              -3.9548
        78                         -0.1415708              -3.8523
       ...                                ...                  ...
       144                          0.7485166              20.3682
      -------------------------------------------------------------
                  HL-Gap            0.0236754 Eh            0.6442 eV

Wiberg/Mayer (AO) data.
largest (>0.10) Wiberg bond orders for each atom

     #   Z sym  total        # sym  WBO       # sym  WBO       # sym  WBO
 ---------------------------------------------------------------------------
     1   6 C    3.897 --    27 H    0.973    26 H    0.968    28 H    0.961
                             2 N    0.914
     2   7 N    3.533 --     3 C    1.193    21 C    1.106     1 C    0.914
                             4 O    0.164
     3   6 C    3.928 --     4 O    1.589     2 N    1.193     5 C    1.011
     4   8 O    1.943 --     3 C    1.589     2 N    0.164
     5   6 C    3.846 --     6 O    1.267     7 C    1.152     3 C    1.011
                             9 C    0.112
     6   8 O    2.220 --     5 C    1.267    29 H    0.755
     7   6 C    3.959 --     5 C    1.152    20 N    1.063     8 C    0.976
                             9 C    0.594
     8   6 C    3.976 --    31 H    0.980    30 H    0.980     7 C    0.976
                            32 H    0.968
     9   6 C    3.905 --    10 O    1.701    11 N    1.373     7 C    0.594
                             5 C    0.112
    10   8 O    2.083 --     9 C    1.701    11 N    0.183
    11   7 N    3.405 --     9 C    1.373    12 C    0.893    33 H    0.882
                            10 O    0.183
    12   6 C    3.907 --    13 C    0.997    35 H    0.967    34 H    0.964
                            11 N    0.893
    13   6 C    3.986 --    14 C    1.419    19 C    1.413    12 C    0.997
    14   6 C    3.992 --    15 C    1.442    13 C    1.419    36 H    0.969
                            18 C    0.109
    15   6 C    3.991 --    14 C    1.442    16 C    1.400    37 H    0.968
                            19 C    0.110
    16   6 C    3.863 --    15 C    1.400    18 C    1.395    17 F    0.935
    17   9 F    1.066 --    16 C    0.935
    18   6 C    3.991 --    19 C    1.449    16 C    1.395    38 H    0.968
                            14 C    0.109
    19   6 C    3.994 --    18 C    1.449    13 C    1.413    39 H    0.971
                            15 C    0.110
    20   7 N    3.032 --    21 C    1.656     7 C    1.063
    21   6 C    3.902 --    20 N    1.656     2 N    1.106    22 C    0.972
    22   6 C    3.961 --    24 C    0.991    25 N    0.983    23 C    0.979
                            21 C    0.972
    23   6 C    3.991 --    40 H    0.985    41 H    0.982    42 H    0.981
                            22 C    0.979
    24   6 C    3.993 --    22 C    0.991    43 H    0.984    44 H    0.984
                            45 H    0.983
    25   7 N    3.001 --    22 C    0.983    46 H    0.937    47 H    0.934
    26   1 H    0.998 --     1 C    0.968
    27   1 H    1.001 --     1 C    0.973
    28   1 H    1.025 --     1 C    0.961
    29   1 H    0.801 --     6 O    0.755
    30   1 H    1.000 --     8 C    0.980
    31   1 H    0.996 --     8 C    0.980
    32   1 H    0.996 --     8 C    0.968
    33   1 H    0.930 --    11 N    0.882
    34   1 H    1.000 --    12 C    0.964
    35   1 H    0.997 --    12 C    0.967
    36   1 H    0.997 --    14 C    0.969
    37   1 H    0.996 --    15 C    0.968
    38   1 H    0.996 --    18 C    0.968
    39   1 H    0.999 --    19 C    0.971
    40   1 H    1.001 --    23 C    0.985
    41   1 H    1.001 --    23 C    0.982
    42   1 H    0.998 --    23 C    0.981
    43   1 H    1.002 --    24 C    0.984
    44   1 H    1.007 --    24 C    0.984
    45   1 H    1.008 --    24 C    0.983
    46   1 H    0.952 --    25 N    0.937
    47   1 H    0.948 --    25 N    0.934
 ---------------------------------------------------------------------------

           -------------------------------------------------
          | TOTAL ENERGY              -79.492826102755 Eh   |
          | GRADIENT NORM               0.000644638193 Eh/α |
          | HOMO-LUMO GAP               0.644241647961 eV   |
           -------------------------------------------------

 * finished run on 2023/06/20 at 15:23:31.059
