   * xtb version 6.5.1 (579679a) compiled by 'ehlert@majestix' on 2022-07-11
          program call               : /lustre/hpc/kemi/ree/PhD/git/ReactivityQM/dep/xtb-6.5.1/bin/xtb --gfn 1 /lustre/hpc/kemi/ree/PhD/git/ReactivityQM/calculations/R02deprot/reac01prodN13/conf12/R02deprot_reac01prodN13_conf12_gfn1.xyz --opt --vfukui --chrg 0 --uhf 0 --alpb DMSO

   ID    Z sym.   atoms
    1    6 C      1, 3, 5, 7-10, 12, 14, 15, 18, 19, 22, 24
    2    8 O      2, 4, 13, 20, 23, 25
    3    7 N      6, 11, 16, 17, 21
    4    1 H      26-42

      * Solvation model:               ALPB
        Solvent                        DMSO
        Solvent mass                       7.8130E+01 g/mol
          :  Hamiltonian                  GFN1-xTB          :
 * total energy  :   -82.9201390 Eh     change       -0.5459810E-10 Eh
 * total energy  :   -82.9318437 Eh     change       -0.1170471E-01 Eh
 * total energy  :   -82.9360620 Eh     change       -0.4218226E-02 Eh
 * total energy  :   -82.9368351 Eh     change       -0.7730778E-03 Eh
 * total energy  :   -82.9373599 Eh     change       -0.5248045E-03 Eh
 * total energy  :   -82.9376031 Eh     change       -0.2432583E-03 Eh
 * total energy  :   -82.9378125 Eh     change       -0.2093447E-03 Eh
 * total energy  :   -82.9379871 Eh     change       -0.1746477E-03 Eh
 * total energy  :   -82.9381669 Eh     change       -0.1797524E-03 Eh
 * total energy  :   -82.9383163 Eh     change       -0.1494580E-03 Eh
 * total energy  :   -82.9466371 Eh     change       -0.1279819E-04 Eh
 * total energy  :   -82.9466559 Eh     change       -0.1883830E-04 Eh
 * total energy  :   -82.9466640 Eh     change       -0.8040165E-05 Eh
 * total energy  :   -82.9466838 Eh     change       -0.1982439E-04 Eh
 * total energy  :   -82.9466972 Eh     change       -0.1347107E-04 Eh
 * total energy  :   -82.9467070 Eh     change       -0.9706303E-05 Eh
 * total energy  :   -82.9467120 Eh     change       -0.5027266E-05 Eh
 * total energy  :   -82.9467147 Eh     change       -0.2720163E-05 Eh
 * total energy  :   -82.9467169 Eh     change       -0.2210784E-05 Eh
   *** GEOMETRY OPTIMIZATION CONVERGED AFTER 78 ITERATIONS ***

 final structure:
================
42
 xtb: 6.5.1 (579679a)
C           -3.45400713869669        3.92865188818501       -0.86521209127633
O           -3.48496931219075        2.53422070956788       -0.55394256991055
C           -2.30873733858252        1.92352896485760       -0.43796853100129
O           -1.24985282372756        2.50418641489563       -0.59204371464097
C           -2.40815102340914        0.47822094769454       -0.11593903447359
N           -1.21099965946090       -0.16299244854173       -0.04920448715993
C           -1.20666917461304       -1.46081132476164        0.21152762695651
C            0.14566421891950       -2.15456408801905        0.26160864789954
C            0.38598463329612       -2.71955482656508        1.66537670482521
C            0.19002994887244       -3.25845525604123       -0.79925891598550
N            1.15487295754983       -1.12481020304637       -0.03153127491525
C            2.44146447836849       -1.36182269606047       -0.12634572531432
O            3.03583503774793       -2.41240611750991       -0.07188514470542
C            3.29016683205734       -0.01790996341614       -0.38329823082580
C            4.77144592042375       -0.33708096569039       -0.25191202604709
N            2.89034015825588        0.46787599851260       -1.65063125213732
N            2.25609578831214        1.57487623674309       -1.49550177354354
C            2.26036793506031        1.88223330589678       -0.18226981375481
C            1.64522686162683        3.06075672808831        0.42569062016357
O            2.87303027071895        0.97490924384291        0.52487698517126
N           -2.25255562764854       -2.23906760743115        0.42578998326199
C           -3.49326064853277       -1.67918644329563        0.38951857580239
O           -4.54509828230305       -2.30202557701607        0.57570948033042
C           -3.56510555430225       -0.23605673227475        0.10010461580612
O           -4.79727483968741        0.27903599239186        0.06375677340417
H           -2.91081355360371        4.09416558364829       -1.79865946314556
H           -2.96271943698311        4.48075409935632       -0.06111198520255
H           -4.48863498254699        4.25011714079416       -0.96687948895452
H            1.32894283648431       -3.26247247006776        1.69977457486563
H           -0.42942638384358       -3.39603174156071        1.91840506694341
H            0.41499431716766       -1.90863510852300        2.39139027132123
H            1.12249453526465       -3.81614839818571       -0.73588326610301
H            0.09857499251755       -2.82456220863042       -1.79428353478721
H           -0.64514002822171       -3.93715130218073       -0.62945146553469
H            0.77905605799493       -0.18104626920704       -0.09322023742387
H            5.34948460322039        0.56931679646591       -0.41272315560379
H            4.96495937521267       -0.72763009461605        0.74423236905148
H            5.03492493706671       -1.08644616422522       -0.99447329330507
H            1.84334851575373        3.94238433544915       -0.18144475834170
H            0.55980024420333        2.91465297250342        0.43741670799322
H            1.99884388286447        3.19732006231598        1.44372369827138
H           -5.42253053061080       -0.45033841434841        0.26159453201893

          :  Hamiltonian                  GFN1-xTB          :
         :: total energy             -82.946716910318 Eh    ::
         :: gradient norm              0.000641366753 Eh/a0 ::
         :: HOMO-LUMO gap              0.092951419795 eV    ::
         :: SCC energy               -83.710606549626 Eh    ::
         :: -> Gsolv                  -0.052589875854 Eh    ::
         :: repulsion energy           0.791609504251 Eh    ::

    * Orbital Energies and Occupations

         #    Occupation            Energy/Eh            Energy/eV
      -------------------------------------------------------------
         1        2.0000           -0.8981761             -24.4406
       ...           ...                  ...                  ...
        55        2.0000           -0.5083957             -13.8342
        56        2.0000           -0.5012773             -13.6405
        57        2.0000           -0.4987355             -13.5713
        58        2.0000           -0.4941136             -13.4455
        59        2.0000           -0.4875090             -13.2658
        60        2.0000           -0.4787891             -13.0285
        61        2.0000           -0.4751341             -12.9291
        62        2.0000           -0.4692905             -12.7700
        63        2.0000           -0.4681540             -12.7391
        64        2.0000           -0.4495869             -12.2339
        65        2.0000           -0.4377757             -11.9125
        66        1.9944           -0.4056411             -11.0381
        67        1.7185           -0.4017752             -10.9329 (HOMO)
        68        0.2871           -0.3983593             -10.8399 (LUMO)
        69                         -0.3033983              -8.2559
        70                         -0.2985785              -8.1247
        71                         -0.2740042              -7.4560
        72                         -0.2607276              -7.0948
        73                         -0.2178103              -5.9269
        74                         -0.1493784              -4.0648
        75                         -0.1418306              -3.8594
        76                         -0.1365342              -3.7153
        77                         -0.1360312              -3.7016
        78                         -0.1215255              -3.3069
       ...                                ...                  ...
       134                          0.7242410              19.7076
      -------------------------------------------------------------
                  HL-Gap            0.0034159 Eh            0.0930 eV

Wiberg/Mayer (AO) data.
largest (>0.10) Wiberg bond orders for each atom

     #   Z sym  total        # sym  WBO       # sym  WBO       # sym  WBO
 ---------------------------------------------------------------------------
     1   6 C    3.874 --    28 H    0.986    26 H    0.980    27 H    0.979
                             2 O    0.899
     2   8 O    2.206 --     3 C    1.119     1 C    0.899     4 O    0.128
     3   6 C    3.839 --     4 O    1.616     2 O    1.119     5 C    1.013
     4   8 O    1.916 --     3 C    1.616     2 O    0.128
     5   6 C    3.931 --    24 C    1.429     6 N    1.241     3 C    1.013
     6   7 N    2.940 --     7 C    1.398     5 C    1.241
     7   6 C    3.934 --    21 N    1.416     6 N    1.398     8 C    0.972
     8   6 C    3.911 --    10 C    0.986     9 C    0.983     7 C    0.972
                            11 N    0.893
     9   6 C    3.989 --    31 H    0.985     8 C    0.983    29 H    0.983
                            30 H    0.982
    10   6 C    3.989 --     8 C    0.986    33 H    0.986    34 H    0.982
                            32 H    0.981
    11   7 N    3.404 --    12 C    1.382     8 C    0.893    35 H    0.863
                            13 O    0.186
    12   6 C    3.883 --    13 O    1.623    11 N    1.382    14 C    0.756
    13   8 O    1.991 --    12 C    1.623    11 N    0.186
    14   6 C    3.836 --    16 N    1.082    15 C    0.946    20 O    0.907
                            12 C    0.756
    15   6 C    3.948 --    36 H    0.980    37 H    0.979    38 H    0.978
                            14 C    0.946
    16   7 N    2.808 --    17 N    1.530    14 C    1.082
    17   7 N    2.975 --    16 N    1.530    18 C    1.286
    18   6 C    3.731 --    17 N    1.286    20 O    1.209    19 C    1.068
    19   6 C    3.966 --    18 C    1.068    41 H    0.975    39 H    0.952
                            40 H    0.902
    20   8 O    2.282 --    18 C    1.209    14 C    0.907
    21   7 N    2.935 --     7 C    1.416    22 C    1.206
    22   6 C    3.894 --    23 O    1.524    21 N    1.206    24 C    1.044
    23   8 O    1.786 --    22 C    1.524
    24   6 C    3.807 --     5 C    1.429    25 O    1.117    22 C    1.044
    25   8 O    2.055 --    24 C    1.117    42 H    0.802
    26   1 H    1.008 --     1 C    0.980
    27   1 H    1.007 --     1 C    0.979
    28   1 H    1.011 --     1 C    0.986
    29   1 H    1.004 --     9 C    0.983
    30   1 H    1.008 --     9 C    0.982
    31   1 H    1.002 --     9 C    0.985
    32   1 H    1.007 --    10 C    0.981
    33   1 H    1.002 --    10 C    0.986
    34   1 H    1.010 --    10 C    0.982
    35   1 H    0.961 --    11 N    0.863
    36   1 H    0.995 --    15 C    0.980
    37   1 H    0.998 --    15 C    0.979
    38   1 H    1.001 --    15 C    0.978
    39   1 H    0.986 --    19 C    0.952
    40   1 H    0.996 --    19 C    0.902
    41   1 H    0.991 --    19 C    0.975
    42   1 H    0.857 --    25 O    0.802
 ---------------------------------------------------------------------------

           -------------------------------------------------
          | TOTAL ENERGY              -82.946716910318 Eh   |
          | GRADIENT NORM               0.000641366753 Eh/α |
          | HOMO-LUMO GAP               0.092951419795 eV   |
           -------------------------------------------------

 * finished run on 2023/06/20 at 18:21:05.724
