   * xtb version 6.5.1 (579679a) compiled by 'ehlert@majestix' on 2022-07-11
          program call               : /lustre/hpc/kemi/ree/PhD/git/ReactivityQM/dep/xtb-6.5.1/bin/xtb --gfn 1 /lustre/hpc/kemi/ree/PhD/git/ReactivityQM/calculations/R03/reac02prodN03/conf14/R03_reac02prodN03_conf14_gfn1.xyz --opt --vfukui --chrg 1 --uhf 0 --alpb DMSO

   ID    Z sym.   atoms
    1    6 C      1, 3, 5, 6, 8-11, 13, 15, 18, 19, 22, 23, 25
    2    8 O      2, 4, 14, 20, 24, 26
    3    7 N      7, 12, 16, 17, 21
    4    1 H      27-46

      * Solvation model:               ALPB
        Solvent                        DMSO
        Solvent mass                       7.8130E+01 g/mol
          :  Hamiltonian                  GFN1-xTB          :
 * total energy  :   -86.3036229 Eh     change       -0.9819701E-11 Eh
 * total energy  :   -86.3303948 Eh     change       -0.2677190E-01 Eh
 * total energy  :   -86.3390899 Eh     change       -0.8695145E-02 Eh
 * total energy  :   -86.3411819 Eh     change       -0.2091986E-02 Eh
 * total energy  :   -86.3419725 Eh     change       -0.7905835E-03 Eh
 * total energy  :   -86.3421379 Eh     change       -0.1654089E-03 Eh
 * total energy  :   -86.3422419 Eh     change       -0.1039953E-03 Eh
 * total energy  :   -86.3423050 Eh     change       -0.6315150E-04 Eh
 * total energy  :   -86.3423522 Eh     change       -0.4716275E-04 Eh
 * total energy  :   -86.3423929 Eh     change       -0.4070840E-04 Eh
 * total energy  :   -86.3425195 Eh     change       -0.1003671E-04 Eh
 * total energy  :   -86.3425271 Eh     change       -0.7604512E-05 Eh
 * total energy  :   -86.3425322 Eh     change       -0.5159438E-05 Eh
 * total energy  :   -86.3425407 Eh     change       -0.8508679E-05 Eh
 * total energy  :   -86.3425513 Eh     change       -0.1055240E-04 Eh
 * total energy  :   -86.3425656 Eh     change       -0.1433010E-04 Eh
 * total energy  :   -86.3425731 Eh     change       -0.7529450E-05 Eh
 * total energy  :   -86.3425817 Eh     change       -0.8577958E-05 Eh
 * total energy  :   -86.3425861 Eh     change       -0.4394410E-05 Eh
   *** GEOMETRY OPTIMIZATION CONVERGED AFTER 24 ITERATIONS ***

 final structure:
================
46
 xtb: 6.5.1 (579679a)
C           -5.96271131598729       -2.19618143594028        0.33294298294973
O           -4.81633480009748       -1.64915170497824       -0.34259743912334
C           -3.90577473848004       -1.02720144383966        0.32112832967456
O           -4.09497757437342       -0.93466014490308        1.59171272148323
C           -3.25599915716854       -0.26402549111337        2.54279900125705
C           -2.78489265934970       -0.50457833351491       -0.43093143875834
N           -1.73571512295216        0.04440766838025        0.26409168549527
C           -0.69272051297836        0.52382857906477       -0.34063533125439
C            0.40011907077917        1.11193093830547        0.54301927301058
C            0.15585018682921        0.74836321861551        2.01260546332194
C            0.40370168488325        2.64093543352704        0.39124909431516
N            1.67426154224267        0.51400755390790        0.13468928728768
C            2.86998929760225        0.89599408837371        0.66012176222645
O            3.05665069043132        1.87101482190773        1.35922583641762
C            3.94112771283302       -0.03478931061998        0.23234784862047
N            3.78139691325772       -1.11095167810536       -0.47949819582392
N            5.01193302093369       -1.67073425898861       -0.62654405284321
C            5.84784385539618       -0.90077813669110        0.00698316655166
C            7.31310038703532       -1.07098002583697        0.13862538018661
O            5.22997135692684        0.14632339201193        0.56912953545038
N           -0.58826947289492        0.53757733835463       -1.70858621706642
C            0.51593693674711        1.11482117986615       -2.48698412938164
C           -1.58506723596731        0.02174714371039       -2.50785560442311
O           -1.53186223931756        0.03008747195164       -3.72709288480794
C           -2.73625856515917       -0.54938583646381       -1.80871846656388
O           -3.67615858729433       -1.05392820646409       -2.58127494391935
H           -5.63404149456940       -2.93652720487918        1.06301615631954
H           -6.57224927952614       -2.65521798393301       -0.44194662851797
H           -6.50511882853589       -1.39563450742514        0.83684630744154
H           -3.79649517084214       -0.30862492262438        3.48753424030759
H           -2.30224331184673       -0.78417664189039        2.61989440604032
H           -3.09493729921430        0.76876167608768        2.23616851819392
H            0.99183707848498        1.10533677096338        2.61227885046089
H           -0.75646849308534        1.22290531898234        2.36532831607589
H            0.06859583029844       -0.33035885202635        2.12606913405521
H            0.75428282483127        2.94521279681359       -0.59137131828275
H           -0.61123860610893        3.00801372993574        0.53326272991871
H            1.04791509796300        3.08638991521644        1.14676607849396
H            1.63193641719255       -0.41269414315433       -0.26350112246829
H            7.80079954330270       -0.82353590260053       -0.80485765751401
H            7.54638452974143       -2.10636444986199        0.38171678004730
H            7.69359575049169       -0.41350743466346        0.91676914837113
H            0.16037596656673        2.03078728238763       -2.95883686155107
H            1.37039992043596        1.31818226661335       -1.85458739461201
H            0.78724270464254        0.39692167198380       -3.26103221769036
H           -3.41571285409492       -0.94956220644877       -3.52118412937581

          :  Hamiltonian                  GFN1-xTB          :
         :: total energy             -86.342586112395 Eh    ::
         :: gradient norm              0.000993232763 Eh/a0 ::
         :: HOMO-LUMO gap              1.959744732349 eV    ::
         :: SCC energy               -87.172198471706 Eh    ::
         :: -> Gsolv                  -0.102835742475 Eh    ::
         :: repulsion energy           0.858951672683 Eh    ::

    * Orbital Energies and Occupations

         #    Occupation            Energy/Eh            Energy/eV
      -------------------------------------------------------------
         1        2.0000           -0.9137953             -24.8656
       ...           ...                  ...                  ...
        58        2.0000           -0.5266121             -14.3298
        59        2.0000           -0.5201206             -14.1532
        60        2.0000           -0.5149467             -14.0124
        61        2.0000           -0.5109468             -13.9036
        62        2.0000           -0.5047192             -13.7341
        63        2.0000           -0.4937367             -13.4353
        64        2.0000           -0.4880411             -13.2803
        65        2.0000           -0.4824343             -13.1277
        66        2.0000           -0.4734277             -12.8826
        67        2.0000           -0.4674692             -12.7205
        68        2.0000           -0.4625720             -12.5872
        69        2.0000           -0.4580604             -12.4645
        70        2.0000           -0.4538896             -12.3510 (HOMO)
        71                         -0.3818703             -10.3912 (LUMO)
        72                         -0.3194827              -8.6936
        73                         -0.3183539              -8.6629
        74                         -0.2919201              -7.9436
        75                         -0.2617302              -7.1220
        76                         -0.2068895              -5.6297
        77                         -0.1991541              -5.4193
        78                         -0.1717836              -4.6745
        79                         -0.1627041              -4.4274
        80                         -0.1517682              -4.1298
        81                         -0.1439476              -3.9170
       ...                                ...                  ...
       144                          0.7235457              19.6887
      -------------------------------------------------------------
                  HL-Gap            0.0720193 Eh            1.9597 eV

Wiberg/Mayer (AO) data.
largest (>0.10) Wiberg bond orders for each atom

     #   Z sym  total        # sym  WBO       # sym  WBO       # sym  WBO
 ---------------------------------------------------------------------------
     1   6 C    3.823 --    28 H    0.981    29 H    0.972    27 H    0.972
                             2 O    0.855
     2   8 O    2.311 --     3 C    1.262     1 C    0.855
     3   6 C    3.815 --     2 O    1.262     4 O    1.252     6 C    1.116
     4   8 O    2.309 --     3 C    1.252     5 C    0.850
     5   6 C    3.815 --    30 H    0.978    32 H    0.972    31 H    0.970
                             4 O    0.850
     6   6 C    3.956 --    25 C    1.415     7 N    1.163     3 C    1.116
     7   7 N    3.036 --     8 C    1.567     6 C    1.163
     8   6 C    3.920 --     7 N    1.567    21 N    1.174     9 C    0.976
     9   6 C    3.934 --    10 C    0.989    11 C    0.978     8 C    0.976
                            12 N    0.927
    10   6 C    3.988 --     9 C    0.989    35 H    0.983    34 H    0.982
                            33 H    0.979
    11   6 C    3.984 --    37 H    0.984    36 H    0.980     9 C    0.978
                            38 H    0.975
    12   7 N    3.320 --    13 C    1.212     9 C    0.927    39 H    0.894
                            14 O    0.167
    13   6 C    3.911 --    14 O    1.617    12 N    1.212    15 C    0.994
    14   8 O    1.930 --    13 C    1.617    12 N    0.167
    15   6 C    3.877 --    16 N    1.602    20 O    1.065    13 C    0.994
    16   7 N    3.020 --    15 C    1.602    17 N    1.209
    17   7 N    2.980 --    18 C    1.595    16 N    1.209
    18   6 C    3.868 --    17 N    1.595    20 O    1.088    19 C    1.030
    19   6 C    3.985 --    18 C    1.030    42 H    0.981    41 H    0.969
                            40 H    0.958
    20   8 O    2.336 --    18 C    1.088    15 C    1.065
    21   7 N    3.525 --     8 C    1.174    23 C    1.145    22 C    0.916
                            24 O    0.142
    22   6 C    3.904 --    44 H    0.975    45 H    0.972    43 H    0.971
                            21 N    0.916
    23   6 C    3.918 --    24 O    1.588    21 N    1.145    25 C    1.045
    24   8 O    1.932 --    23 C    1.588    21 N    0.142
    25   6 C    3.914 --     6 C    1.415    26 O    1.173    23 C    1.045
    26   8 O    2.145 --    25 C    1.173    46 H    0.781
    27   1 H    0.998 --     1 C    0.972
    28   1 H    1.002 --     1 C    0.981
    29   1 H    0.998 --     1 C    0.972
    30   1 H    1.001 --     5 C    0.978
    31   1 H    1.012 --     5 C    0.970
    32   1 H    1.011 --     5 C    0.972
    33   1 H    1.002 --    10 C    0.979
    34   1 H    1.005 --    10 C    0.982
    35   1 H    1.005 --    10 C    0.983
    36   1 H    0.999 --    11 C    0.980
    37   1 H    1.000 --    11 C    0.984
    38   1 H    1.009 --    11 C    0.975
    39   1 H    0.950 --    12 N    0.894
    40   1 H    0.996 --    19 C    0.958
    41   1 H    0.997 --    19 C    0.969
    42   1 H    0.996 --    19 C    0.981
    43   1 H    0.997 --    22 C    0.971
    44   1 H    1.008 --    22 C    0.975
    45   1 H    1.001 --    22 C    0.972
    46   1 H    0.825 --    26 O    0.781
 ---------------------------------------------------------------------------

           -------------------------------------------------
          | TOTAL ENERGY              -86.342586112395 Eh   |
          | GRADIENT NORM               0.000993232763 Eh/α |
          | HOMO-LUMO GAP               1.959744732349 eV   |
           -------------------------------------------------

 * finished run on 2023/06/20 at 15:38:25.731
