   * xtb version 6.5.1 (579679a) compiled by 'ehlert@majestix' on 2022-07-11
          program call               : /lustre/hpc/kemi/ree/PhD/git/ReactivityQM/dep/xtb-6.5.1/bin/xtb --gfn 1 /lustre/hpc/kemi/ree/PhD/git/ReactivityQM/calculations/R02methylcation/reac01prodE01/conf10/R02methylcation_reac01prodE01_conf10_gfn1.xyz --opt --vfukui --chrg -2 --uhf 0 --alpb DMSO

   ID    Z sym.   atoms
    1    6 C      1, 3, 5, 7-10, 12, 13, 15, 18, 19, 22, 24
    2    8 O      2, 4, 14, 20, 23, 25
    3    7 N      6, 11, 16, 17, 21
    4    1 H      26-42

      * Solvation model:               ALPB
        Solvent                        DMSO
        Solvent mass                       7.8130E+01 g/mol
          :  Hamiltonian                  GFN1-xTB          :
 * total energy  :   -83.6316282 Eh     change       -0.1925571E-10 Eh
 * total energy  :   -83.6444071 Eh     change       -0.1277884E-01 Eh
 * total energy  :   -83.6487590 Eh     change       -0.4351892E-02 Eh
 * total energy  :   -83.6496104 Eh     change       -0.8514116E-03 Eh
 * total energy  :   -83.6500622 Eh     change       -0.4518139E-03 Eh
 * total energy  :   -83.6503366 Eh     change       -0.2744256E-03 Eh
 * total energy  :   -83.6505558 Eh     change       -0.2192145E-03 Eh
 * total energy  :   -83.6506984 Eh     change       -0.1425645E-03 Eh
 * total energy  :   -83.6507931 Eh     change       -0.9474104E-04 Eh
 * total energy  :   -83.6508858 Eh     change       -0.9265894E-04 Eh
 * total energy  :   -83.6515052 Eh     change       -0.1371820E-04 Eh
 * total energy  :   -83.6515190 Eh     change       -0.1376436E-04 Eh
 * total energy  :   -83.6515316 Eh     change       -0.1262315E-04 Eh
 * total energy  :   -83.6515441 Eh     change       -0.1254828E-04 Eh
 * total energy  :   -83.6515571 Eh     change       -0.1299045E-04 Eh
 * total energy  :   -83.6515703 Eh     change       -0.1323430E-04 Eh
 * total energy  :   -83.6515809 Eh     change       -0.1052084E-04 Eh
 * total energy  :   -83.6515899 Eh     change       -0.9042632E-05 Eh
 * total energy  :   -83.6515917 Eh     change       -0.1829801E-05 Eh
   *** GEOMETRY OPTIMIZATION CONVERGED AFTER 44 ITERATIONS ***

 final structure:
================
42
 xtb: 6.5.1 (579679a)
C            7.07687461017818        0.25981297272490       -1.03254100985617
O            5.84966934028498        0.86519782612367       -0.66182264809601
C            4.78057347589499        0.02490165925739       -0.56686199002435
O            4.91761059486093       -1.17271025717032       -0.80209718403534
C            3.53574010049222        0.66265366294607       -0.17987296075867
N            2.47590098680034       -0.22969508230319       -0.10835669885347
C            1.30586500699499        0.17648002935486        0.22476348060094
C            0.13789576854225       -0.79541708997194        0.35669635905127
C            0.27217723533932       -1.86105412881205       -0.74659346832400
C            0.25718725992681       -1.43872562659111        1.74792523112790
N           -1.08844289244572       -0.00287827446566        0.22633122303958
C           -2.41905429600123       -0.72126226937034        0.54662898292805
C           -2.92575115352699       -0.06973558933000        1.87750269566890
O           -2.39959901851121       -2.02243394328805        0.54766045361828
C           -3.36063278923903       -0.18074781001417       -0.58235715696029
N           -3.04241629750184        0.09464500979103       -1.80871128492777
N           -4.21795857103426        0.37221422849925       -2.48071517230741
C           -5.16559291883140        0.23793036281048       -1.61609844164817
C           -6.62031749509127        0.43033880711986       -1.83247365590870
O           -4.70025287234367       -0.11013347009566       -0.39981647771783
N            1.06241220704749        1.49591679404513        0.53604538993998
C            2.00146478063134        2.48333445281417        0.49426717621127
O            1.69088300294080        3.64519961893373        0.76980955856407
C            3.39460972401294        2.04591570037689        0.10269165622854
O            4.29898033664465        2.90684510801219        0.05702510928479
H            7.82826188523288        1.04814395136327       -1.06370552143606
H            6.99827481126322       -0.21221830161028       -2.01750529592131
H            7.37310772919559       -0.50091110778268       -0.30274951023266
H           -0.50141457232458       -2.61959768584473       -0.64042176230213
H            0.17699267572491       -1.39486308635090       -1.72809819116851
H            1.25242656384887       -2.33505201521376       -0.67898107365630
H            1.23680398858460       -1.90849781228772        1.84577490793074
H           -0.51190906949398       -2.19634241277825        1.89266708031932
H            0.15761641334383       -0.67686066732034        2.52132126519744
H           -1.14456140612361        0.29556033617471       -0.74924274385044
H           -3.93317679654219       -0.42757305650963        2.08375871670927
H           -2.27155214605633       -0.36936853723833        2.69385250379677
H           -2.93192518926079        1.01570069829064        1.79824444314835
H           -6.80264271087192        0.68593633555717       -2.87327523763339
H           -7.16371548309188       -0.48063116093052       -1.58311027184651
H           -6.99368231464773        1.23103927023458       -1.19461815083053
H            0.11327049515253        1.74894256084225        0.78531567493502

          :  Hamiltonian                  GFN1-xTB          :
         :: total energy             -83.651591740487 Eh    ::
         :: gradient norm              0.000225219097 Eh/a0 ::
         :: HOMO-LUMO gap              2.226639533580 eV    ::
         :: SCC energy               -84.384996609838 Eh    ::
         :: -> Gsolv                  -0.263123304106 Eh    ::
         :: repulsion energy           0.759420442759 Eh    ::

    * Orbital Energies and Occupations

         #    Occupation            Energy/Eh            Energy/eV
      -------------------------------------------------------------
         1        2.0000           -0.8168704             -22.2282
       ...           ...                  ...                  ...
        56        2.0000           -0.4407859             -11.9944
        57        2.0000           -0.4394840             -11.9590
        58        2.0000           -0.4345655             -11.8251
        59        2.0000           -0.4264014             -11.6030
        60        2.0000           -0.4220754             -11.4853
        61        2.0000           -0.4122158             -11.2170
        62        2.0000           -0.4077636             -11.0958
        63        2.0000           -0.3979143             -10.8278
        64        2.0000           -0.3721061             -10.1255
        65        2.0000           -0.3641697              -9.9096
        66        2.0000           -0.3508556              -9.5473
        67        2.0000           -0.3421133              -9.3094
        68        2.0000           -0.3399891              -9.2516 (HOMO)
        69                         -0.2581616              -7.0249 (LUMO)
        70                         -0.2240505              -6.0967
        71                         -0.2178616              -5.9283
        72                         -0.2083211              -5.6687
        73                         -0.1850483              -5.0354
        74                         -0.1278253              -3.4783
        75                         -0.1183864              -3.2215
        76                         -0.0969552              -2.6383
        77                         -0.0934571              -2.5431
        78                         -0.0835275              -2.2729
        79                         -0.0788247              -2.1449
       ...                                ...                  ...
       134                          0.7577429              20.6192
      -------------------------------------------------------------
                  HL-Gap            0.0818275 Eh            2.2266 eV

Wiberg/Mayer (AO) data.
largest (>0.10) Wiberg bond orders for each atom

     #   Z sym  total        # sym  WBO       # sym  WBO       # sym  WBO
 ---------------------------------------------------------------------------
     1   6 C    3.904 --    26 H    0.987    27 H    0.980    28 H    0.980
                             2 O    0.931
     2   8 O    2.151 --     3 C    1.034     1 C    0.931     4 O    0.106
     3   6 C    3.849 --     4 O    1.565     5 C    1.129     2 O    1.034
     4   8 O    1.843 --     3 C    1.565     2 O    0.106
     5   6 C    3.919 --    24 C    1.280     6 N    1.143     3 C    1.129
                            25 O    0.130
     6   7 N    3.021 --     7 C    1.632     5 C    1.143
     7   6 C    3.923 --     6 N    1.632    21 N    1.101     8 C    0.971
     8   6 C    3.968 --     9 C    0.985    10 C    0.982    11 N    0.980
                             7 C    0.971
     9   6 C    3.995 --    30 H    0.987    31 H    0.985     8 C    0.985
                            29 H    0.979
    10   6 C    3.994 --    32 H    0.987    34 H    0.986     8 C    0.982
                            33 H    0.977
    11   7 N    3.003 --     8 C    0.980    35 H    0.944    12 C    0.847
    12   6 C    3.936 --    14 O    1.211    13 C    0.940    15 C    0.883
                            11 N    0.847
    13   6 C    3.992 --    38 H    0.991    36 H    0.987    37 H    0.985
                            12 C    0.940
    14   8 O    1.563 --    12 C    1.211
    15   6 C    3.804 --    16 N    1.649    20 O    1.048    12 C    0.883
    16   7 N    2.983 --    15 C    1.649    17 N    1.146
    17   7 N    2.976 --    18 C    1.657    16 N    1.146
    18   6 C    3.888 --    17 N    1.657    20 O    1.063    19 C    1.024
    19   6 C    3.993 --    18 C    1.024    39 H    0.985    40 H    0.971
                            41 H    0.970
    20   8 O    2.295 --    18 C    1.063    15 C    1.048
    21   7 N    3.444 --    22 C    1.183     7 C    1.101    42 H    0.887
                            23 O    0.136
    22   6 C    3.885 --    23 O    1.553    21 N    1.183    24 C    0.974
    23   8 O    1.834 --    22 C    1.553    21 N    0.136
    24   6 C    3.945 --    25 O    1.500     5 C    1.280    22 C    0.974
    25   8 O    1.806 --    24 C    1.500     5 C    0.130
    26   1 H    1.017 --     1 C    0.987
    27   1 H    1.015 --     1 C    0.980
    28   1 H    1.015 --     1 C    0.980
    29   1 H    1.035 --     9 C    0.979
    30   1 H    1.011 --     9 C    0.987
    31   1 H    1.020 --     9 C    0.985
    32   1 H    1.011 --    10 C    0.987
    33   1 H    1.030 --    10 C    0.977
    34   1 H    1.011 --    10 C    0.986
    35   1 H    0.995 --    11 N    0.944
    36   1 H    1.017 --    13 C    0.987
    37   1 H    1.018 --    13 C    0.985
    38   1 H    1.017 --    13 C    0.991
    39   1 H    1.003 --    19 C    0.985
    40   1 H    1.002 --    19 C    0.971
    41   1 H    1.002 --    19 C    0.970
    42   1 H    0.973 --    21 N    0.887
 ---------------------------------------------------------------------------

           -------------------------------------------------
          | TOTAL ENERGY              -83.651591740487 Eh   |
          | GRADIENT NORM               0.000225219097 Eh/α |
          | HOMO-LUMO GAP               2.226639533580 eV   |
           -------------------------------------------------

 * finished run on 2023/06/21 at 17:04:05.174
