   * xtb version 6.5.1 (579679a) compiled by 'ehlert@majestix' on 2022-07-11
          program call               : /lustre/hpc/kemi/ree/PhD/git/ReactivityQM/dep/xtb-6.5.1/bin/xtb --gfn 1 /lustre/hpc/kemi/ree/PhD/git/ReactivityQM/calculations/R02methylcation/reac01prodE04/conf14/R02methylcation_reac01prodE04_conf14_gfn1.xyz --opt --vfukui --chrg -2 --uhf 0 --alpb DMSO

   ID    Z sym.   atoms
    1    6 C      1, 3, 5, 6, 8-11, 13, 15, 18, 19, 22, 24
    2    8 O      2, 4, 14, 20, 23, 25
    3    7 N      7, 12, 16, 17, 21
    4    1 H      26-42

      * Solvation model:               ALPB
        Solvent                        DMSO
        Solvent mass                       7.8130E+01 g/mol
          :  Hamiltonian                  GFN1-xTB          :
 * total energy  :   -83.5781329 Eh     change       -0.3595346E-11 Eh
 * total energy  :   -83.5985014 Eh     change       -0.2036855E-01 Eh
 * total energy  :   -83.6050382 Eh     change       -0.6536717E-02 Eh
 * total energy  :   -83.6064308 Eh     change       -0.1392642E-02 Eh
 * total energy  :   -83.6074398 Eh     change       -0.1009057E-02 Eh
 * total energy  :   -83.6078887 Eh     change       -0.4488834E-03 Eh
 * total energy  :   -83.6081830 Eh     change       -0.2942866E-03 Eh
 * total energy  :   -83.6084608 Eh     change       -0.2777711E-03 Eh
 * total energy  :   -83.6087228 Eh     change       -0.2620465E-03 Eh
 * total energy  :   -83.6089634 Eh     change       -0.2406002E-03 Eh
 * total energy  :   -83.6142973 Eh     change       -0.7967801E-05 Eh
 * total energy  :   -83.6143092 Eh     change       -0.1192327E-04 Eh
 * total energy  :   -83.6143273 Eh     change       -0.1807520E-04 Eh
 * total energy  :   -83.6143436 Eh     change       -0.1633979E-04 Eh
 * total energy  :   -83.6143552 Eh     change       -0.1164285E-04 Eh
 * total energy  :   -83.6143663 Eh     change       -0.1106939E-04 Eh
 * total energy  :   -83.6143753 Eh     change       -0.8978042E-05 Eh
 * total energy  :   -83.6143803 Eh     change       -0.5049061E-05 Eh
 * total energy  :   -83.6143832 Eh     change       -0.2902054E-05 Eh
   *** GEOMETRY OPTIMIZATION CONVERGED AFTER 67 ITERATIONS ***

 final structure:
================
42
 xtb: 6.5.1 (579679a)
C           -5.77160754678141       -0.90681966006832        0.74983907994289
O           -4.86675546463875        0.09343456325124        0.30228786541217
C           -3.57758993583691       -0.30160630405816        0.13238179916225
O           -3.23513339486345       -1.45842478375451        0.33625864445993
C           -2.64464077216494        0.85461157415272       -0.18739069375562
C           -3.30477376454208        1.91059253304786       -1.07637194942695
N           -1.45816821856175        0.33446356642954       -0.84569076997318
C           -0.55989597880257       -0.19769453273561       -0.09913115626497
C            0.56241169942465       -0.99840015796517       -0.74515457138076
C            0.70076258669114       -0.61483585405164       -2.22435242742308
C            0.16628390315787       -2.47720956041016       -0.59914300310627
N            1.80294138038263       -0.70982453288944       -0.01854483775597
C            3.00526740020367       -1.31768795548324       -0.41319770462348
O            3.05112029812819       -2.41293347014574       -1.01480086132850
C            4.17278662643291       -0.59916954569173       -0.00993838499690
N            5.45056763054157       -0.94594666376447       -0.19590974139355
N            6.20682806241439        0.07445082408690        0.30979231082638
C            5.39610975932108        0.97226264965452        0.76616860573823
C            5.75680482047330        2.26386063698526        1.40189496518386
O            4.09171102830904        0.63559214105149        0.61110731458534
N           -0.59258805987088       -0.18341412151239        1.25974301495362
C           -1.37412382971979        0.77272516744392        1.98911281973412
O           -1.02310385111428        0.99358842198616        3.18410767278909
C           -2.40800899837990        1.39481379993363        1.25248536726599
O           -3.17777751010714        2.31856433734741        1.68490420469110
H           -5.48749538862619       -1.27702096259882        1.74055767092911
H           -6.75820062174599       -0.44849684203261        0.79615116059334
H           -5.79051355730154       -1.74909997698645        0.05104109442036
H           -3.62865975269512        1.46726362748276       -2.01741246271623
H           -2.58657756441973        2.70166044303369       -1.29147383023430
H           -4.16572947875961        2.34585658658207       -0.57012220444395
H           -0.25319744122281       -0.75964268957546       -2.73078852698640
H            1.45831150248155       -1.23122610604264       -2.70626740145917
H            0.98524428832559        0.43332651999934       -2.31308201001026
H            0.81113854408111       -3.11940524927989       -1.19552430751898
H           -0.86448265773303       -2.60307849268475       -0.93335530407793
H            0.23490446306236       -2.77905599299758        0.44562996874928
H            1.91793496919156        0.27763995842090        0.17583965558802
H            5.35394015966500        2.31798324583823        2.41377988114563
H            5.34642938249007        3.09707824624016        0.83058261070171
H            6.83942833223665        2.35655358351863        1.44136261691585
H            0.21809695087341       -0.52532897174353        1.75418782508864

          :  Hamiltonian                  GFN1-xTB          :
         :: total energy             -83.614383232339 Eh    ::
         :: gradient norm              0.000352343844 Eh/a0 ::
         :: HOMO-LUMO gap              0.036150841255 eV    ::
         :: SCC energy               -84.339990797884 Eh    ::
         :: -> Gsolv                  -0.268770188659 Eh    ::
         :: repulsion energy           0.752327041396 Eh    ::

    * Orbital Energies and Occupations

         #    Occupation            Energy/Eh            Energy/eV
      -------------------------------------------------------------
         1        2.0000           -0.8029733             -21.8500
       ...           ...                  ...                  ...
        56        2.0000           -0.4453077             -12.1174
        57        2.0000           -0.4411246             -12.0036
        58        2.0000           -0.4279338             -11.6447
        59        2.0000           -0.4239989             -11.5376
        60        2.0000           -0.4088470             -11.1253
        61        2.0000           -0.4052220             -11.0267
        62        2.0000           -0.4041548             -10.9976
        63        2.0000           -0.3985034             -10.8438
        64        2.0000           -0.3898336             -10.6079
        65        2.0000           -0.3783483             -10.2954
        66        2.0000           -0.3742486             -10.1838
        67        2.0000           -0.3446579              -9.3786
        68        1.3360           -0.2690477              -7.3212 (HOMO)
        69        0.6640           -0.2677192              -7.2850 (LUMO)
        70                         -0.2209165              -6.0114
        71                         -0.2103062              -5.7227
        72                         -0.2006083              -5.4588
        73                         -0.1416853              -3.8555
        74                         -0.1233792              -3.3573
        75                         -0.1218525              -3.3158
        76                         -0.1138138              -3.0970
        77                         -0.0944688              -2.5706
        78                         -0.0900347              -2.4500
        79                         -0.0880039              -2.3947
       ...                                ...                  ...
       134                          0.7146069              19.4454
      -------------------------------------------------------------
                  HL-Gap            0.0013285 Eh            0.0362 eV

Wiberg/Mayer (AO) data.
largest (>0.10) Wiberg bond orders for each atom

     #   Z sym  total        # sym  WBO       # sym  WBO       # sym  WBO
 ---------------------------------------------------------------------------
     1   6 C    3.897 --    27 H    0.987    28 H    0.981    26 H    0.981
                             2 O    0.921
     2   8 O    2.152 --     3 C    1.044     1 C    0.921     4 O    0.107
     3   6 C    3.775 --     4 O    1.594     2 O    1.044     5 C    0.944
     4   8 O    1.855 --     3 C    1.594     2 O    0.107
     5   6 C    3.959 --     6 C    0.992     7 N    0.981     3 C    0.944
                            24 C    0.876
     6   6 C    3.990 --     5 C    0.992    29 H    0.989    30 H    0.987
                            31 H    0.984
     7   7 N    2.939 --     8 C    1.652     5 C    0.981    21 N    0.147
     8   6 C    3.931 --     7 N    1.652    21 N    1.176     9 C    0.971
     9   6 C    3.949 --    10 C    0.991    11 C    0.983     8 C    0.971
                            12 N    0.942
    10   6 C    3.993 --     9 C    0.991    34 H    0.986    33 H    0.985
                            32 H    0.985
    11   6 C    3.994 --    36 H    0.986    37 H    0.986     9 C    0.983
                            35 H    0.981
    12   7 N    3.146 --    13 C    1.080     9 C    0.942    38 H    0.920
                            14 O    0.107
    13   6 C    3.747 --    14 O    1.447    15 C    1.154    12 N    1.080
    14   8 O    1.686 --    13 C    1.447    12 N    0.107
    15   6 C    3.697 --    16 N    1.402    13 C    1.154    20 O    0.969
    16   7 N    2.727 --    15 C    1.402    17 N    1.190
    17   7 N    2.981 --    18 C    1.627    16 N    1.190
    18   6 C    3.813 --    17 N    1.627    20 O    1.043    19 C    1.024
    19   6 C    3.994 --    18 C    1.024    41 H    0.986    39 H    0.971
                            40 H    0.971
    20   8 O    2.183 --    18 C    1.043    15 C    0.969
    21   7 N    3.325 --     8 C    1.176    22 C    0.963    42 H    0.910
                             7 N    0.147
    22   6 C    3.746 --    23 O    1.393    24 C    1.240    21 N    0.963
    23   8 O    1.604 --    22 C    1.393
    24   6 C    3.728 --    25 O    1.373    22 C    1.240     5 C    0.876
    25   8 O    1.577 --    24 C    1.373
    26   1 H    1.012 --     1 C    0.981
    27   1 H    1.015 --     1 C    0.987
    28   1 H    1.014 --     1 C    0.981
    29   1 H    1.010 --     6 C    0.989
    30   1 H    1.012 --     6 C    0.987
    31   1 H    1.027 --     6 C    0.984
    32   1 H    1.021 --    10 C    0.985
    33   1 H    1.012 --    10 C    0.985
    34   1 H    1.010 --    10 C    0.986
    35   1 H    1.025 --    11 C    0.981
    36   1 H    1.015 --    11 C    0.986
    37   1 H    1.009 --    11 C    0.986
    38   1 H    0.965 --    12 N    0.920
    39   1 H    1.000 --    19 C    0.971
    40   1 H    1.000 --    19 C    0.971
    41   1 H    1.004 --    19 C    0.986
    42   1 H    0.971 --    21 N    0.910
 ---------------------------------------------------------------------------

           -------------------------------------------------
          | TOTAL ENERGY              -83.614383232339 Eh   |
          | GRADIENT NORM               0.000352343844 Eh/α |
          | HOMO-LUMO GAP               0.036150841255 eV   |
           -------------------------------------------------

 * finished run on 2023/06/21 at 17:10:47.615
