                         Program Version 5.0.1 -  RELEASE  -
|  1> # ORCA input file
|  2> ! SP r2SCAN-3c CPCM
|  3>
|  4> %maxcore 1875.0
|  5> %pal nprocs 4 end
|  6> %cpcm smd true SMDsolvent "DMSO" end
|  7>
|  8> *xyz 1 1
|  9> C      -2.145869    1.548496   -0.408624
| 10> O      -3.022935    0.832759    0.481572
| 11> C      -2.994159   -0.390510    0.817409
| 12> C      -4.093302   -0.863690    1.694234
| 13> O      -2.131644   -1.273914    0.482234
| 14> C      -0.882037   -1.158068   -0.156026
| 15> N      -0.038611   -0.218727    0.329756
| 16> C       1.158189   -0.140438   -0.178325
| 17> C       2.123706    0.900138    0.363152
| 18> C       3.452762    0.238099    0.750436
| 19> C       2.340061    1.984264   -0.700967
| 20> N       1.553506    1.519037    1.547560
| 21> N       1.556957   -0.966502   -1.179194
| 22> C       0.770227   -1.964031   -1.727512
| 23> O       1.160966   -2.691983   -2.621718
| 24> C      -0.553523   -2.051553   -1.128854
| 25> O      -1.395911   -2.989534   -1.588488
| 26> H      -1.968444    0.967205   -1.311336
| 27> H      -1.204784    1.744548    0.105008
| 28> H      -2.663821    2.478715   -0.636758
| 29> H      -4.924005   -0.162555    1.676388
| 30> H      -3.703814   -0.935601    2.712117
| 31> H      -4.407793   -1.860090    1.387171
| 32> H       3.975289   -0.127969   -0.131311
| 33> H       4.079708    0.974370    1.251589
| 34> H       3.274322   -0.594987    1.428694
| 35> H       2.789245    1.557533   -1.595937
| 36> H       2.998759    2.753948   -0.300815
| 37> H       1.386574    2.438490   -0.966938
| 38> H       1.271593    0.793908    2.195725
| 39> H       0.718322    2.027104    1.286361
| 40> H       2.482434   -0.875292   -1.575955
| 41> H      -0.961970   -3.493172   -2.300647
| 42> **                         ****END OF INPUT****

CARTESIAN COORDINATES (ANGSTROEM)
---------------------------------
  C     -2.145869    1.548496   -0.408624
  O     -3.022935    0.832759    0.481572
  C     -2.994159   -0.390510    0.817409
  C     -4.093302   -0.863690    1.694234
  O     -2.131644   -1.273914    0.482234
  C     -0.882037   -1.158068   -0.156026
  N     -0.038611   -0.218727    0.329756
  C      1.158189   -0.140438   -0.178325
  C      2.123706    0.900138    0.363152
  C      3.452762    0.238099    0.750436
  C      2.340061    1.984264   -0.700967
  N      1.553506    1.519037    1.547560
  N      1.556957   -0.966502   -1.179194
  C      0.770227   -1.964031   -1.727512
  O      1.160966   -2.691983   -2.621718
  C     -0.553523   -2.051553   -1.128854
  O     -1.395911   -2.989534   -1.588488
  H     -1.968444    0.967205   -1.311336
  H     -1.204784    1.744548    0.105008
  H     -2.663821    2.478715   -0.636758
  H     -4.924005   -0.162555    1.676388
  H     -3.703814   -0.935601    2.712117
  H     -4.407793   -1.860090    1.387171
  H      3.975289   -0.127969   -0.131311
  H      4.079708    0.974370    1.251589
  H      3.274322   -0.594987    1.428694
  H      2.789245    1.557533   -1.595937
  H      2.998759    2.753948   -0.300815
  H      1.386574    2.438490   -0.966938
  H      1.271593    0.793908    2.195725
  H      0.718322    2.027104    1.286361
  H      2.482434   -0.875292   -1.575955
  H     -0.961970   -3.493172   -2.300647

 Total Charge           Charge          ....    1
 Multiplicity           Mult            ....    1
 Number of Electrons    NEL             ....  128
 Basis Dimension        Dim             ....  438

ORBITAL ENERGIES
----------------

  NO   OCC          E(Eh)            E(eV)
   0   2.0000     -19.090472      -519.4782
   1   2.0000     -19.082188      -519.2527
   2   2.0000     -19.015385      -517.4349
   3   2.0000     -18.947899      -515.5985
   4   2.0000     -14.240968      -387.5164
   5   2.0000     -14.189719      -386.1219
   6   2.0000     -14.140977      -384.7955
   7   2.0000     -10.259204      -279.1671
   8   2.0000     -10.170693      -276.7586
   9   2.0000     -10.164617      -276.5933
  10   2.0000     -10.139257      -275.9032
  11   2.0000     -10.134070      -275.7621
  12   2.0000     -10.109149      -275.0839
  13   2.0000     -10.089511      -274.5496
  14   2.0000     -10.064570      -273.8709
  15   2.0000     -10.023834      -272.7624
  16   2.0000     -10.022579      -272.7282
  17   2.0000      -1.179985       -32.1090
  18   2.0000      -1.112043       -30.2602
  19   2.0000      -1.068792       -29.0833
  20   2.0000      -1.033640       -28.1268
  21   2.0000      -0.986367       -26.8404
  22   2.0000      -0.902823       -24.5671
  23   2.0000      -0.873401       -23.7665
  24   2.0000      -0.816252       -22.2113
  25   2.0000      -0.776051       -21.1174
  26   2.0000      -0.736728       -20.0474
  27   2.0000      -0.723822       -19.6962
  28   2.0000      -0.697404       -18.9773
  29   2.0000      -0.663389       -18.0517
  30   2.0000      -0.662206       -18.0195
  31   2.0000      -0.608164       -16.5490
  32   2.0000      -0.582354       -15.8467
  33   2.0000      -0.575073       -15.6485
  34   2.0000      -0.554596       -15.0913
  35   2.0000      -0.542952       -14.7745
  36   2.0000      -0.524255       -14.2657
  37   2.0000      -0.516745       -14.0614
  38   2.0000      -0.503991       -13.7143
  39   2.0000      -0.470848       -12.8124
  40   2.0000      -0.461348       -12.5539
  41   2.0000      -0.454057       -12.3555
  42   2.0000      -0.441497       -12.0138
  43   2.0000      -0.439961       -11.9719
  44   2.0000      -0.422332       -11.4922
  45   2.0000      -0.419228       -11.4078
  46   2.0000      -0.411720       -11.2035
  47   2.0000      -0.399159       -10.8617
  48   2.0000      -0.395913       -10.7733
  49   2.0000      -0.392655       -10.6847
  50   2.0000      -0.375869       -10.2279
  51   2.0000      -0.373676       -10.1682
  52   2.0000      -0.362570        -9.8660
  53   2.0000      -0.354234        -9.6392
  54   2.0000      -0.352616        -9.5952
  55   2.0000      -0.347725        -9.4621
  56   2.0000      -0.343121        -9.3368
  57   2.0000      -0.333829        -9.0840
  58   2.0000      -0.315591        -8.5877
  59   2.0000      -0.293314        -7.9815
  60   2.0000      -0.288682        -7.8554
  61   2.0000      -0.266119        -7.2415
  62   2.0000      -0.228222        -6.2102
  63   2.0000      -0.221579        -6.0295
  64   0.0000      -0.110532        -3.0077
  65   0.0000      -0.073769        -2.0073
  66   0.0000      -0.048562        -1.3214
  67   0.0000       0.019962         0.5432
  68   0.0000       0.032603         0.8872

MULLIKEN ATOMIC CHARGES
-----------------------
   0 C :   -0.310741
   1 O :   -0.116177
   2 C :    0.496561
   3 C :   -0.537493
   4 O :   -0.025981
   5 C :    0.020821
   6 N :   -0.234868
   7 C :    0.280233
   8 C :    0.069194
   9 C :   -0.539394
  10 C :   -0.547391
  11 N :   -0.664242
  12 N :   -0.038994
  13 C :    0.093593
  14 O :   -0.441091
  15 C :    0.179210
  16 O :   -0.377534
  17 H :    0.211555
  18 H :    0.214241
  19 H :    0.202503
  20 H :    0.214189
  21 H :    0.239585
  22 H :    0.221812
  23 H :    0.174965
  24 H :    0.188164
  25 H :    0.180600
  26 H :    0.183600
  27 H :    0.188343
  28 H :    0.176165
  29 H :    0.301516
  30 H :    0.301617
  31 H :    0.329241
  32 H :    0.366198
Sum of atomic charges:    1.0000000

LOEWDIN ATOMIC CHARGES
----------------------
   0 C :    0.014274
   1 O :   -0.484856
   2 C :    0.496763
   3 C :   -0.272424
   4 O :   -0.375345
   5 C :    0.390154
   6 N :   -0.539273
   7 C :    0.368056
   8 C :    0.048344
   9 C :   -0.355496
  10 C :   -0.350689
  11 N :   -0.678989
  12 N :   -0.432738
  13 C :    0.369008
  14 O :   -0.457096
  15 C :    0.270263
  16 O :   -0.429728
  17 H :    0.202324
  18 H :    0.214325
  19 H :    0.202703
  20 H :    0.200497
  21 H :    0.217873
  22 H :    0.208133
  23 H :    0.168082
  24 H :    0.174963
  25 H :    0.172777
  26 H :    0.170077
  27 H :    0.174227
  28 H :    0.171941
  29 H :    0.258867
  30 H :    0.256101
  31 H :    0.314141
  32 H :    0.312739

  Mayer bond orders larger than 0.100000
B(  0-C ,  1-O ) :   0.8089 B(  0-C , 17-H ) :   0.9324 B(  0-C , 18-H ) :   0.9129
B(  0-C , 19-H ) :   0.9455 B(  1-O ,  2-C ) :   1.3327 B(  2-C ,  3-C ) :   0.9926
B(  2-C ,  4-O ) :   1.1856 B(  3-C , 20-H ) :   0.9597 B(  3-C , 21-H ) :   0.8899
B(  3-C , 22-H ) :   0.9337 B(  4-O ,  5-C ) :   0.8533 B(  5-C ,  6-N ) :   1.2698
B(  5-C , 15-C ) :   1.4794 B(  5-C , 16-O ) :   0.1223 B(  6-N ,  7-C ) :   1.5161
B(  6-N , 12-N ) :   0.1052 B(  7-C ,  8-C ) :   0.8571 B(  7-C , 12-N ) :   1.1626
B(  8-C ,  9-C ) :   0.9545 B(  8-C , 10-C ) :   0.9543 B(  8-C , 11-N ) :   0.9874
B(  9-C , 23-H ) :   0.9627 B(  9-C , 24-H ) :   0.9659 B(  9-C , 25-H ) :   0.9602
B( 10-C , 26-H ) :   0.9653 B( 10-C , 27-H ) :   0.9622 B( 10-C , 28-H ) :   0.9516
B( 11-N , 29-H ) :   0.8975 B( 11-N , 30-H ) :   0.8940 B( 12-N , 13-C ) :   1.0171
B( 12-N , 31-H ) :   0.8802 B( 13-C , 14-O ) :   1.9964 B( 13-C , 15-C ) :   0.9449
B( 15-C , 16-O ) :   1.0187 B( 16-O , 32-H ) :   0.8247

Dispersion correction           -0.013297671
FINAL SINGLE POINT ENERGY      -855.541413037996

DIPOLE MOMENT
-------------
                                X             Y             Z
Electronic contribution:     -8.65096     -12.52753      -5.10670
Nuclear contribution   :      5.99395      13.86802       5.90808
                        -----------------------------------------
Total Dipole Moment    :     -2.65700       1.34050       0.80138
                        -----------------------------------------
Magnitude (a.u.)       :      3.08201
Magnitude (Debye)      :      7.83385

Rotational constants in cm-1:     0.019700     0.012734     0.008884
Rotational constants in MHz :   590.586778   381.764390   266.335015

                             ****ORCA TERMINATED NORMALLY****
TOTAL RUN TIME: 0 days 0 hours 0 minutes 57 seconds 573 msec
