   * xtb version 6.5.1 (579679a) compiled by 'ehlert@majestix' on 2022-07-11
          program call               : /lustre/hpc/kemi/ree/PhD/git/ReactivityQM/dep/xtb-6.5.1/bin/xtb --gfn 1 /lustre/hpc/kemi/ree/PhD/git/ReactivityQM/calculations/R01/reac02prodN05/conf08/R01_reac02prodN05_conf08_gfn1.xyz --opt --vfukui --chrg 1 --uhf 0 --alpb DMSO

   ID    Z sym.   atoms
    1    6 C      1, 3, 4, 6, 8-11, 14, 16
    2    8 O      2, 5, 15, 17
    3    7 N      7, 12, 13
    4    1 H      18-33

      * Solvation model:               ALPB
        Solvent                        DMSO
        Solvent mass                       7.8130E+01 g/mol
          :  Hamiltonian                  GFN1-xTB          :
 * total energy  :   -57.7048634 Eh     change       -0.5041301E-10 Eh
 * total energy  :   -57.7215283 Eh     change       -0.1666489E-01 Eh
 * total energy  :   -57.7316489 Eh     change       -0.1012053E-01 Eh
 * total energy  :   -57.7359924 Eh     change       -0.4343594E-02 Eh
 * total energy  :   -57.7408518 Eh     change       -0.4859372E-02 Eh
 * total energy  :   -57.7469162 Eh     change       -0.6064353E-02 Eh
 * total energy  :   -57.7519316 Eh     change       -0.5015471E-02 Eh
 * total energy  :   -57.7551237 Eh     change       -0.3192017E-02 Eh
 * total energy  :   -57.7576854 Eh     change       -0.2561727E-02 Eh
 * total energy  :   -57.7597874 Eh     change       -0.2102015E-02 Eh
 * total energy  :   -57.8432672 Eh     change       -0.3259603E-04 Eh
 * total energy  :   -57.8432987 Eh     change       -0.3147366E-04 Eh
 * total energy  :   -57.8433200 Eh     change       -0.2126750E-04 Eh
 * total energy  :   -57.8433293 Eh     change       -0.9296132E-05 Eh
 * total energy  :   -57.8433477 Eh     change       -0.1842085E-04 Eh
 * total energy  :   -57.8433545 Eh     change       -0.6848586E-05 Eh
 * total energy  :   -57.8433669 Eh     change       -0.1239363E-04 Eh
 * total energy  :   -57.8433735 Eh     change       -0.6623142E-05 Eh
 * total energy  :   -57.8433781 Eh     change       -0.4552725E-05 Eh
   *** GEOMETRY OPTIMIZATION CONVERGED AFTER 75 ITERATIONS ***

 final structure:
================
33
 xtb: 6.5.1 (579679a)
C           -2.14586871031311        1.54849576143902       -0.40862442801727
O           -3.02293451507814        0.83275888333325        0.48157196920799
C           -2.99415933230749       -0.39051012573858        0.81740927633865
C           -4.09330218865513       -0.86368995265808        1.69423373275786
O           -2.13164416924543       -1.27391388263960        0.48223408405703
C           -0.88203674423452       -1.15806767026002       -0.15602596662070
N           -0.03861054664929       -0.21872713041287        0.32975557688578
C            1.15818850503444       -0.14043799688994       -0.17832499831256
C            2.12370623025788        0.90013779870278        0.36315195269378
C            3.45276228309179        0.23809909258335        0.75043574269725
C            2.34006108343270        1.98426425483689       -0.70096658055280
N            1.55350612861566        1.51903712348306        1.54756038337485
N            1.55695712920872       -0.96650208513001       -1.17919430886591
C            0.77022730757479       -1.96403061768408       -1.72751234975159
O            1.16096636652487       -2.69198304857799       -2.62171814468631
C           -0.55352257319529       -2.05155285450631       -1.12885396912743
O           -1.39591128768610       -2.98953433051337       -1.58848811055531
H           -1.96844434288193        0.96720480191391       -1.31133623662987
H           -1.20478413125446        1.74454823292746        0.10500757345585
H           -2.66382080747927        2.47871548053702       -0.63675829323065
H           -4.92400484042917       -0.16255543602087        1.67638826957525
H           -3.70381427768591       -0.93560107209023        2.71211657543653
H           -4.40779320858160       -1.86008968551780        1.38717119332345
H            3.97528883919658       -0.12796939586243       -0.13131084758168
H            4.07970798173893        0.97437011781785        1.25158930810828
H            3.27432220368802       -0.59498720938790        1.42869428181840
H            2.78924511895385        1.55753317596689       -1.59593680933503
H            2.99875892305124        2.75394781293889       -0.30081469388241
H            1.38657370426340        2.43849023347065       -0.96693815117397
H            1.27159334029612        0.79390828789056        2.19572520419181
H            0.71832181196228        2.02710418257077        1.28636104929898
H            2.48243358285220       -0.87529192078642       -1.57595544768283
H           -0.96196986406880       -3.49317182574059       -2.30064683721725

          :  Hamiltonian                  GFN1-xTB          :
         :: total energy             -57.843378097717 Eh    ::
         :: gradient norm              0.000552011935 Eh/a0 ::
         :: HOMO-LUMO gap              1.842745560122 eV    ::
         :: SCC energy               -58.424604687759 Eh    ::
         :: -> Gsolv                  -0.097157838832 Eh    ::
         :: repulsion energy           0.600358955389 Eh    ::

    * Orbital Energies and Occupations

         #    Occupation            Energy/Eh            Energy/eV
      -------------------------------------------------------------
         1        2.0000           -0.9260054             -25.1979
       ...           ...                  ...                  ...
        35        2.0000           -0.5575707             -15.1723
        36        2.0000           -0.5537113             -15.0673
        37        2.0000           -0.5499261             -14.9643
        38        2.0000           -0.5252786             -14.2936
        39        2.0000           -0.5200447             -14.1511
        40        2.0000           -0.5150077             -14.0141
        41        2.0000           -0.5062500             -13.7758
        42        2.0000           -0.5035778             -13.7031
        43        2.0000           -0.4956029             -13.4860
        44        2.0000           -0.4836219             -13.1600
        45        2.0000           -0.4828069             -13.1378
        46        2.0000           -0.4470550             -12.1650
        47        2.0000           -0.4269823             -11.6188 (HOMO)
        48                         -0.3592627              -9.7760 (LUMO)
        49                         -0.3186341              -8.6705
        50                         -0.2987148              -8.1284
        51                         -0.1929442              -5.2503
        52                         -0.1808712              -4.9218
        53                         -0.1661946              -4.5224
        54                         -0.1469538              -3.9988
        55                         -0.1327516              -3.6124
        56                         -0.1208534              -3.2886
        57                         -0.1161334              -3.1602
        58                         -0.1096436              -2.9836
       ...                                ...                  ...
       100                          0.6979012              18.9909
      -------------------------------------------------------------
                  HL-Gap            0.0677197 Eh            1.8427 eV

Wiberg/Mayer (AO) data.
largest (>0.10) Wiberg bond orders for each atom

     #   Z sym  total        # sym  WBO       # sym  WBO       # sym  WBO
 ---------------------------------------------------------------------------
     1   6 C    3.808 --    20 H    0.977    18 H    0.976    19 H    0.959
                             2 O    0.834
     2   8 O    2.342 --     3 C    1.326     1 C    0.834     5 O    0.107
     3   6 C    3.774 --     2 O    1.326     5 O    1.271     4 C    1.021
     4   6 C    3.961 --     3 C    1.021    21 H    0.973    23 H    0.955
                            22 H    0.928
     5   8 O    2.353 --     3 C    1.271     6 C    0.865     2 O    0.107
     6   6 C    3.836 --    16 C    1.499     7 N    1.210     5 O    0.865
     7   7 N    3.029 --     8 C    1.514     6 C    1.210
     8   6 C    3.906 --     7 N    1.514    13 N    1.207     9 C    0.970
     9   6 C    3.966 --    12 N    1.000    10 C    0.983    11 C    0.978
                             8 C    0.970
    10   6 C    3.991 --    26 H    0.985     9 C    0.983    24 H    0.983
                            25 H    0.982
    11   6 C    3.991 --    27 H    0.985    29 H    0.984    28 H    0.982
                             9 C    0.978
    12   7 N    2.958 --     9 C    1.000    31 H    0.942    30 H    0.940
    13   7 N    3.472 --     8 C    1.207    14 C    1.110    32 H    0.876
                            15 O    0.129
    14   6 C    3.915 --    15 O    1.596    13 N    1.110    16 C    1.075
    15   8 O    1.916 --    14 C    1.596    13 N    0.129
    16   6 C    3.928 --     6 C    1.499    17 O    1.093    14 C    1.075
    17   8 O    2.062 --    16 C    1.093    33 H    0.803
    18   1 H    0.999 --     1 C    0.976
    19   1 H    1.019 --     1 C    0.959
    20   1 H    0.999 --     1 C    0.977
    21   1 H    0.989 --     4 C    0.973
    22   1 H    0.983 --     4 C    0.928
    23   1 H    0.987 --     4 C    0.955
    24   1 H    0.999 --    10 C    0.983
    25   1 H    1.003 --    10 C    0.982
    26   1 H    0.999 --    10 C    0.985
    27   1 H    0.999 --    11 C    0.985
    28   1 H    1.000 --    11 C    0.982
    29   1 H    1.000 --    11 C    0.984
    30   1 H    0.962 --    12 N    0.940
    31   1 H    0.966 --    12 N    0.942
    32   1 H    0.922 --    13 N    0.876
    33   1 H    0.834 --    17 O    0.803
 ---------------------------------------------------------------------------

           -------------------------------------------------
          | TOTAL ENERGY              -57.843378097717 Eh   |
          | GRADIENT NORM               0.000552011935 Eh/α |
          | HOMO-LUMO GAP               1.842745560122 eV   |
           -------------------------------------------------

 * finished run on 2023/06/20 at 15:06:34.880
