   * xtb version 6.5.1 (579679a) compiled by 'ehlert@majestix' on 2022-07-11
          program call               : /lustre/hpc/kemi/ree/PhD/git/ReactivityQM/dep/xtb-6.5.1/bin/xtb --gfn 1 /lustre/hpc/kemi/ree/PhD/git/ReactivityQM/calculations/RaltegravirCLI/reac01prodN03/conf10/RaltegravirCLI_reac01prodN03_conf10_gfn1.xyz --opt --vfukui --chrg 1 --uhf 0 --alpb DMSO

   ID    Z sym.   atoms
    1    6 C      1, 2, 5-7
    2    7 N      3, 4
    3    8 O      8, 10
    4   17 Cl     9
    5    1 H      11-16

      * Solvation model:               ALPB
        Solvent                        DMSO
        Solvent mass                       7.8130E+01 g/mol
          :  Hamiltonian                  GFN1-xTB          :
 * total energy  :   -33.4345620 Eh     change       -0.2913225E-12 Eh
 * total energy  :   -33.4392600 Eh     change       -0.4697951E-02 Eh
 * total energy  :   -33.4408889 Eh     change       -0.1628975E-02 Eh
 * total energy  :   -33.4411205 Eh     change       -0.2315726E-03 Eh
 * total energy  :   -33.4412297 Eh     change       -0.1091542E-03 Eh
 * total energy  :   -33.4412397 Eh     change       -0.1006636E-04 Eh
 * total energy  :   -33.4412508 Eh     change       -0.1108849E-04 Eh
 * total energy  :   -33.4412557 Eh     change       -0.4859311E-05 Eh
   *** GEOMETRY OPTIMIZATION CONVERGED AFTER 8 ITERATIONS ***

 final structure:
================
16
 xtb: 6.5.1 (579679a)
C           -2.82399981245220       -0.31119144500010       -0.32581821750076
C           -1.36862595456369       -0.18047483442063       -0.16090812055357
N           -0.43232929513794       -0.98690832782696       -0.58976266018908
N            0.71628495710736       -0.42399935556037       -0.20745976528322
C            1.98372454970484       -1.04889023087312       -0.51903546849451
C            0.47512054086373        0.69802264645472        0.43923569288673
C            1.48825382712606        1.61842163591282        1.03040226721436
O            2.65302087652556        1.36541843983259        0.92886111673802
Cl           0.84331944448842        2.96969405876267        1.81653146496801
O           -0.83655493776690        0.86912320664250        0.47978811038246
H           -3.15784836058588        0.35768689240008       -1.12246843268345
H           -3.07771457406335       -1.33538961460672       -0.59069269463321
H           -3.32876435319501       -0.01517190149033        0.59309459904455
H            1.78126735704524       -1.97408237584313       -1.05148822602020
H            2.56790719590444       -0.36341250790888       -1.13189354153368
H            2.51693653899933       -1.23884728647517        0.41161387565753

          :  Hamiltonian                  GFN1-xTB          :
         :: total energy             -33.441255671636 Eh    ::
         :: gradient norm              0.000626209697 Eh/a0 ::
         :: HOMO-LUMO gap              2.999791631962 eV    ::
         :: SCC energy               -33.735223237627 Eh    ::
         :: -> Gsolv                  -0.081300389678 Eh    ::
         :: repulsion energy           0.301245996387 Eh    ::

    * Orbital Energies and Occupations

         #    Occupation            Energy/Eh            Energy/eV
      -------------------------------------------------------------
         1        2.0000           -0.9909059             -26.9639
       ...           ...                  ...                  ...
        15        2.0000           -0.6348090             -17.2740
        16        2.0000           -0.6347273             -17.2718
        17        2.0000           -0.6266813             -17.0529
        18        2.0000           -0.5976489             -16.2629
        19        2.0000           -0.5904803             -16.0678
        20        2.0000           -0.5770755             -15.7030
        21        2.0000           -0.5711059             -15.5406
        22        2.0000           -0.5629699             -15.3192
        23        2.0000           -0.5531715             -15.0526
        24        2.0000           -0.5305160             -14.4361
        25        2.0000           -0.5286264             -14.3847
        26        2.0000           -0.5205613             -14.1652
        27        2.0000           -0.5123314             -13.9412 (HOMO)
        28                         -0.4020911             -10.9415 (LUMO)
        29                         -0.3328648              -9.0577
        30                         -0.2970689              -8.0837
        31                         -0.2447721              -6.6606
        32                         -0.1752204              -4.7680
        33                         -0.1705170              -4.6400
        34                         -0.1187101              -3.2303
        35                         -0.1159140              -3.1542
        36                         -0.1156055              -3.1458
        37                         -0.1107789              -3.0144
        38                         -0.1058975              -2.8816
       ...                                ...                  ...
        57                          0.6917481              18.8234
      -------------------------------------------------------------
                  HL-Gap            0.1102403 Eh            2.9998 eV

Wiberg/Mayer (AO) data.
largest (>0.10) Wiberg bond orders for each atom

     #   Z sym  total        # sym  WBO       # sym  WBO       # sym  WBO
 ---------------------------------------------------------------------------
     1   6 C    3.965 --     2 C    1.046    12 H    0.972    13 H    0.958
                            11 H    0.936
     2   6 C    3.834 --     3 N    1.536    10 O    1.086     1 C    1.046
     3   7 N    2.971 --     2 C    1.536     4 N    1.188
     4   7 N    3.675 --     6 C    1.435     3 N    1.188     5 C    0.908
     5   6 C    3.872 --    14 H    0.978    16 H    0.959    15 H    0.958
                             4 N    0.908
     6   6 C    3.857 --     4 N    1.435    10 O    1.126     7 C    0.987
     7   6 C    3.908 --     8 O    1.754     9 Cl   1.119     6 C    0.987
     8   8 O    2.053 --     7 C    1.754     9 Cl   0.177
     9  17 Cl   1.361 --     7 C    1.119     8 O    0.177
    10   8 O    2.380 --     6 C    1.126     2 C    1.086
    11   1 H    0.986 --     1 C    0.936
    12   1 H    0.989 --     1 C    0.972
    13   1 H    0.987 --     1 C    0.958
    14   1 H    0.991 --     5 C    0.978
    15   1 H    0.993 --     5 C    0.958
    16   1 H    0.993 --     5 C    0.959
 ---------------------------------------------------------------------------

           -------------------------------------------------
          | TOTAL ENERGY              -33.441255671636 Eh   |
          | GRADIENT NORM               0.000626209697 Eh/α |
          | HOMO-LUMO GAP               2.999791631962 eV   |
           -------------------------------------------------

 * finished run on 2023/06/20 at 14:54:31.571
