   * xtb version 6.5.1 (579679a) compiled by 'ehlert@majestix' on 2022-07-11
          program call               : /lustre/hpc/kemi/ree/PhD/git/ReactivityQM/dep/xtb-6.5.1/bin/xtb --gfn 1 /lustre/hpc/kemi/ree/PhD/git/ReactivityQM/calculations/R02oxygendeprot/reac01prodN04/conf01/R02oxygendeprot_reac01prodN04_conf01_gfn1.xyz --opt --vfukui --chrg 0 --uhf 0 --alpb DMSO

   ID    Z sym.   atoms
    1    6 C      1, 3, 5, 6, 8-11, 13, 15, 18, 19, 22, 24
    2    8 O      2, 4, 14, 20, 23, 25
    3    7 N      7, 12, 16, 17, 21
    4    1 H      26-42

      * Solvation model:               ALPB
        Solvent                        DMSO
        Solvent mass                       7.8130E+01 g/mol
          :  Hamiltonian                  GFN1-xTB          :
 * total energy  :   -82.9673503 Eh     change       -0.8284928E-11 Eh
 * total energy  :   -82.9847930 Eh     change       -0.1744267E-01 Eh
 * total energy  :   -82.9912026 Eh     change       -0.6409670E-02 Eh
 * total energy  :   -82.9927671 Eh     change       -0.1564464E-02 Eh
 * total energy  :   -82.9933513 Eh     change       -0.5841802E-03 Eh
 * total energy  :   -82.9935491 Eh     change       -0.1978157E-03 Eh
 * total energy  :   -82.9936871 Eh     change       -0.1380295E-03 Eh
 * total energy  :   -82.9937969 Eh     change       -0.1097967E-03 Eh
 * total energy  :   -82.9939281 Eh     change       -0.1311583E-03 Eh
 * total energy  :   -82.9940686 Eh     change       -0.1405615E-03 Eh
 * total energy  :   -82.9967068 Eh     change       -0.6858598E-05 Eh
 * total energy  :   -82.9967133 Eh     change       -0.6467086E-05 Eh
 * total energy  :   -82.9967211 Eh     change       -0.7816202E-05 Eh
 * total energy  :   -82.9967287 Eh     change       -0.7582204E-05 Eh
 * total energy  :   -82.9967352 Eh     change       -0.6536696E-05 Eh
 * total energy  :   -82.9967411 Eh     change       -0.5947838E-05 Eh
 * total energy  :   -82.9967470 Eh     change       -0.5850455E-05 Eh
 * total energy  :   -82.9967524 Eh     change       -0.5384596E-05 Eh
 * total energy  :   -82.9967570 Eh     change       -0.4605063E-05 Eh
   *** GEOMETRY OPTIMIZATION CONVERGED AFTER 58 ITERATIONS ***

 final structure:
================
42
 xtb: 6.5.1 (579679a)
C           -3.57752550862103        1.07777677041940       -1.47179808576939
O           -4.14603719863574        1.33593159429800       -0.18949878548694
C           -3.64395019808627        0.93882568605003        0.96782566628475
O           -4.39201942209081        1.26450037061282        2.00190038657327
C           -5.62073443081311        1.96158095720194        1.78929446197644
C           -2.45727525594042        0.23294418132846        1.18613825188419
N           -1.67487216867680       -0.06586621034116        0.07252721009440
C           -0.58872560018422       -0.72731397468919        0.20466094766010
C            0.24697192632990       -1.10374913693856       -1.00179988523791
C           -0.00105479856235       -0.14052834708973       -2.16518607008337
C           -0.09160595515179       -2.54293292505750       -1.40393660090978
N            1.66098859405898       -1.06777859607148       -0.62332034107325
C            2.22803869140051        0.05316863059439       -0.11858613615230
O            1.61546302712908        1.05358448382571        0.20699203890843
C            3.69635228720210       -0.10636463686188        0.02606307628949
N            4.39043542187945       -1.15216228210857       -0.31078253000052
N            5.68832661520588       -0.87753769562971       -0.00491471498796
C            5.70446900786232        0.31984200064879        0.49941401841932
C            6.87935848799036        1.07513486026427        0.98728717863958
O            4.47757348944511        0.85873689038569        0.54534644845423
N           -0.14760960730340       -1.20499286884015        1.41689620402929
C           -0.78253819547903       -0.98325772015260        2.60758502084372
O           -0.33521000059434       -1.42703052675759        3.64998359269320
C           -2.06505139423324       -0.16947510840968        2.51753328794593
O           -2.68306274846583        0.07914366136633        3.54701395380245
H           -3.45581339976939        0.00553483652697       -1.63172939237033
H           -2.61128456792392        1.57468108758678       -1.57224536119767
H           -4.28488065662092        1.48565377655800       -2.19412187191318
H           -6.05987989612353        2.10762104158701        2.77467865743760
H           -6.28817241527002        1.36862285943855        1.16118829655455
H           -5.43281449429162        2.92513465399424        1.31149838247291
H           -1.03282292285363       -0.23208578655682       -2.49773320426274
H            0.18026324388932        0.88595708264646       -1.84916683824097
H            0.66133076393749       -0.38484798011654       -2.99325958701703
H            0.12633774478179       -3.22462529156998       -0.58352505910064
H           -1.14947974697380       -2.61314709451960       -1.65127664208308
H            0.49418727265026       -2.83400256245784       -2.27377657306286
H            2.26023451713355       -1.80320021156297       -0.96261470646246
H            6.73757561406662        1.35338978573416        2.03156257899650
H            7.77214764642836        0.46223008224636        0.89037725743623
H            7.00092848144525        1.99015868056494        0.40775234176220
H            0.70143874981924       -1.74925401814042        1.44157712626236

          :  Hamiltonian                  GFN1-xTB          :
         :: total energy             -82.996756981052 Eh    ::
         :: gradient norm              0.000363074465 Eh/a0 ::
         :: HOMO-LUMO gap              2.368479911434 eV    ::
         :: SCC energy               -83.776349727675 Eh    ::
         :: -> Gsolv                  -0.065917623517 Eh    ::
         :: repulsion energy           0.805944526588 Eh    ::

    * Orbital Energies and Occupations

         #    Occupation            Energy/Eh            Energy/eV
      -------------------------------------------------------------
         1        2.0000           -0.8640493             -23.5120
       ...           ...                  ...                  ...
        55        2.0000           -0.5063467             -13.7784
        56        2.0000           -0.5061012             -13.7717
        57        2.0000           -0.4998793             -13.6024
        58        2.0000           -0.4932975             -13.4233
        59        2.0000           -0.4833605             -13.1529
        60        2.0000           -0.4759586             -12.9515
        61        2.0000           -0.4681440             -12.7388
        62        2.0000           -0.4624346             -12.5835
        63        2.0000           -0.4537148             -12.3462
        64        2.0000           -0.4526840             -12.3182
        65        2.0000           -0.4451679             -12.1136
        66        2.0000           -0.4184734             -11.3872
        67        2.0000           -0.4121309             -11.2147 (HOMO)
        68                         -0.3250908              -8.8462 (LUMO)
        69                         -0.3122954              -8.4980
        70                         -0.2707320              -7.3670
        71                         -0.2571432              -6.9972
        72                         -0.2456004              -6.6831
        73                         -0.1998422              -5.4380
        74                         -0.1536446              -4.1809
        75                         -0.1515706              -4.1244
        76                         -0.1425532              -3.8791
        77                         -0.1422176              -3.8699
        78                         -0.1335155              -3.6331
       ...                                ...                  ...
       134                          0.7556915              20.5634
      -------------------------------------------------------------
                  HL-Gap            0.0870400 Eh            2.3685 eV

Wiberg/Mayer (AO) data.
largest (>0.10) Wiberg bond orders for each atom

     #   Z sym  total        # sym  WBO       # sym  WBO       # sym  WBO
 ---------------------------------------------------------------------------
     1   6 C    3.854 --    28 H    0.981    26 H    0.977    27 H    0.976
                             2 O    0.883
     2   8 O    2.222 --     3 C    1.129     1 C    0.883
     3   6 C    3.833 --     6 C    1.338     4 O    1.151     2 O    1.129
     4   8 O    2.237 --     3 C    1.151     5 C    0.889
     5   6 C    3.863 --    29 H    0.984    30 H    0.978    31 H    0.978
                             4 O    0.889
     6   6 C    3.923 --     3 C    1.338    24 C    1.163     7 N    1.106
     7   7 N    3.043 --     8 C    1.653     6 C    1.106
     8   6 C    3.932 --     7 N    1.653    21 N    1.107     9 C    0.976
     9   6 C    3.937 --    10 C    0.990    11 C    0.984     8 C    0.976
                            12 N    0.925
    10   6 C    3.990 --     9 C    0.990    34 H    0.985    32 H    0.983
                            33 H    0.981
    11   6 C    3.988 --    35 H    0.984     9 C    0.984    36 H    0.984
                            37 H    0.982
    12   7 N    3.333 --    13 C    1.238     9 C    0.925    38 H    0.892
                            14 O    0.174
    13   6 C    3.916 --    14 O    1.601    12 N    1.238    15 C    0.992
    14   8 O    1.902 --    13 C    1.601    12 N    0.174
    15   6 C    3.876 --    16 N    1.609    20 O    1.063    13 C    0.992
    16   7 N    3.016 --    15 C    1.609    17 N    1.203
    17   7 N    2.981 --    18 C    1.603    16 N    1.203
    18   6 C    3.871 --    17 N    1.603    20 O    1.084    19 C    1.031
    19   6 C    3.986 --    18 C    1.031    40 H    0.983    39 H    0.964
                            41 H    0.963
    20   8 O    2.330 --    18 C    1.084    15 C    1.063
    21   7 N    3.441 --    22 C    1.165     8 C    1.107    42 H    0.887
                            23 O    0.139
    22   6 C    3.884 --    23 O    1.631    21 N    1.165    24 C    0.940
    23   8 O    1.910 --    22 C    1.631    21 N    0.139
    24   6 C    3.920 --    25 O    1.631     6 C    1.163    22 C    0.940
    25   8 O    1.917 --    24 C    1.631
    26   1 H    1.020 --     1 C    0.977
    27   1 H    1.020 --     1 C    0.976
    28   1 H    1.008 --     1 C    0.981
    29   1 H    1.009 --     5 C    0.984
    30   1 H    1.005 --     5 C    0.978
    31   1 H    1.005 --     5 C    0.978
    32   1 H    1.007 --    10 C    0.983
    33   1 H    1.009 --    10 C    0.981
    34   1 H    1.001 --    10 C    0.985
    35   1 H    0.999 --    11 C    0.984
    36   1 H    1.001 --    11 C    0.984
    37   1 H    0.996 --    11 C    0.982
    38   1 H    0.944 --    12 N    0.892
    39   1 H    0.997 --    19 C    0.964
    40   1 H    0.998 --    19 C    0.983
    41   1 H    0.997 --    19 C    0.963
    42   1 H    0.938 --    21 N    0.887
 ---------------------------------------------------------------------------

           -------------------------------------------------
          | TOTAL ENERGY              -82.996756981052 Eh   |
          | GRADIENT NORM               0.000363074465 Eh/α |
          | HOMO-LUMO GAP               2.368479911434 eV   |
           -------------------------------------------------

 * finished run on 2023/06/21 at 17:20:03.142
