   * xtb version 6.5.1 (579679a) compiled by 'ehlert@majestix' on 2022-07-11
          program call               : /lustre/hpc/kemi/ree/PhD/git/ReactivityQM/dep/xtb-6.5.1/bin/xtb --gfn 1 /lustre/hpc/kemi/ree/PhD/git/ReactivityQM/calculations/R02methylcation/reac01prodN01/conf04/R02methylcation_reac01prodN01_conf04_gfn1.xyz --opt --vfukui --chrg 0 --uhf 0 --alpb DMSO

   ID    Z sym.   atoms
    1    6 C      1, 3, 5, 7-10, 12, 14, 17, 18, 20, 22, 24
    2    8 O      2, 4, 13, 19, 23, 25
    3    7 N      6, 11, 15, 16, 21
    4    1 H      26-42

      * Solvation model:               ALPB
        Solvent                        DMSO
        Solvent mass                       7.8130E+01 g/mol
          :  Hamiltonian                  GFN1-xTB          :
 * total energy  :   -82.8804484 Eh     change       -0.4973799E-11 Eh
 * total energy  :   -82.8978010 Eh     change       -0.1735265E-01 Eh
 * total energy  :   -82.9060501 Eh     change       -0.8249076E-02 Eh
 * total energy  :   -82.9082276 Eh     change       -0.2177491E-02 Eh
 * total energy  :   -82.9096952 Eh     change       -0.1467645E-02 Eh
 * total energy  :   -82.9104285 Eh     change       -0.7332284E-03 Eh
 * total energy  :   -82.9110417 Eh     change       -0.6132481E-03 Eh
 * total energy  :   -82.9115285 Eh     change       -0.4867498E-03 Eh
 * total energy  :   -82.9118712 Eh     change       -0.3426979E-03 Eh
 * total energy  :   -82.9121029 Eh     change       -0.2317056E-03 Eh
 * total energy  :   -82.9140844 Eh     change       -0.4633132E-04 Eh
 * total energy  :   -82.9141080 Eh     change       -0.2363904E-04 Eh
 * total energy  :   -82.9141236 Eh     change       -0.1558718E-04 Eh
 * total energy  :   -82.9141306 Eh     change       -0.6992134E-05 Eh
 * total energy  :   -82.9141397 Eh     change       -0.9117536E-05 Eh
 * total energy  :   -82.9141453 Eh     change       -0.5600354E-05 Eh
 * total energy  :   -82.9141535 Eh     change       -0.8223717E-05 Eh
 * total energy  :   -82.9141599 Eh     change       -0.6346989E-05 Eh
 * total energy  :   -82.9141640 Eh     change       -0.4153083E-05 Eh
   *** GEOMETRY OPTIMIZATION CONVERGED AFTER 40 ITERATIONS ***

 final structure:
================
42
 xtb: 6.5.1 (579679a)
C            7.02659847377854        1.70113702223618       -0.65652523011601
O            5.90590050890676        1.45240922016031        0.18189450098511
C            4.85083270384794        0.84177509619382       -0.40911790919411
O            4.88643184530948        0.54087086223611       -1.59608788427989
C            3.71985823946809        0.58753840541343        0.47355247683994
N            2.67706485383732       -0.05059432722223       -0.17188109767001
C            1.60677157979686       -0.35355444959685        0.45804388887884
C            0.47547232691945       -1.07649051024815       -0.23831534078537
C            0.34418312045729       -2.49987378050092        0.31814780975130
C            0.70902101683294       -1.08828142796972       -1.75008019962358
N           -0.76332334359048       -0.31947471281353        0.05861895152067
C           -1.97517684313559       -0.69673937002238       -0.34217369504400
O           -2.27373519508509       -1.68522511825959       -0.98838032743825
C           -3.01851394033080        0.27918950613798        0.11044977186976
N           -2.87606314036402        1.38560789485612        0.73584805972007
N           -4.10946174401862        1.94310162875714        0.93372008060541
C           -4.99825212849723        1.17675520738674        0.42959439473126
C           -6.45920005727826        1.34148668129520        0.39292199882281
O           -4.37324301859435        0.05756469710383       -0.13702810178587
C           -4.95898954290186       -1.10117701768532       -0.81237128953592
N            1.44028397400044       -0.07137830886225        1.80188204364441
C            2.38800636767821        0.56784242815243        2.56531132628482
O            2.16205486039712        0.79173111069945        3.75021933184517
C            3.66576570200248        0.94688972230803        1.84651464036898
O            4.55415681043507        1.53073905525333        2.49051332329765
H            6.74297300670299        2.33248436625851       -1.50433693382782
H            7.77354768670099        2.21137221165054       -0.04932607224736
H            7.43840266289878        0.76188359864654       -1.03914907108692
H            1.28942371330433       -3.02451318486499        0.18335476430380
H            0.10353932797918       -2.46641146471442        1.37896493692767
H           -0.43918207364470       -3.04442713860162       -0.20374146767999
H           -0.08842349178344       -1.63088704359387       -2.25209866522640
H            0.74396774522737       -0.06781134648734       -2.12869043431432
H            1.66210129759011       -1.57346344919580       -1.95789380381549
H           -0.68099864305417        0.54738887558784        0.56953183488420
H           -6.71466356033266        2.27801246329917        0.88572753077412
H           -6.94947778714926        0.51478520359382        0.90715134762501
H           -6.81599358219032        1.36334618708537       -0.63707526219044
H           -4.56275478884787       -1.12212007319459       -1.82527822584509
H           -4.66426841052967       -1.98629552225393       -0.25310760030568
H           -6.03432610894074       -0.95813021407617       -0.80155006654089
H            0.58968857618974       -0.33706498414070        2.26554966487092

          :  Hamiltonian                  GFN1-xTB          :
         :: total energy             -82.914164030260 Eh    ::
         :: gradient norm              0.000744517823 Eh/a0 ::
         :: HOMO-LUMO gap              0.321853310837 eV    ::
         :: SCC energy               -83.698546190465 Eh    ::
         :: -> Gsolv                  -0.131234645782 Eh    ::
         :: repulsion energy           0.810039117752 Eh    ::

    * Orbital Energies and Occupations

         #    Occupation            Energy/Eh            Energy/eV
      -------------------------------------------------------------
         1        2.0000           -0.9650977             -26.2616
       ...           ...                  ...                  ...
        55        2.0000           -0.5059245             -13.7669
        56        2.0000           -0.5032182             -13.6933
        57        2.0000           -0.4981268             -13.5547
        58        2.0000           -0.4905965             -13.3498
        59        2.0000           -0.4822559             -13.1229
        60        2.0000           -0.4695753             -12.7778
        61        2.0000           -0.4679092             -12.7325
        62        2.0000           -0.4624388             -12.5836
        63        2.0000           -0.4468417             -12.1592
        64        2.0000           -0.4405231             -11.9872
        65        2.0000           -0.4242280             -11.5438
        66        2.0000           -0.3848104             -10.4712
        67        1.9960           -0.3723290             -10.1316 (HOMO)
        68        0.0040           -0.3605011              -9.8097 (LUMO)
        69                         -0.3108353              -8.4583
        70                         -0.2755305              -7.4976
        71                         -0.2479527              -6.7471
        72                         -0.2396967              -6.5225
        73                         -0.2022472              -5.5034
        74                         -0.1876970              -5.1075
        75                         -0.1737767              -4.7287
        76                         -0.1271927              -3.4611
        77                         -0.1248422              -3.3971
        78                         -0.1232141              -3.3528
       ...                                ...                  ...
       134                          0.7533293              20.4991
      -------------------------------------------------------------
                  HL-Gap            0.0118279 Eh            0.3219 eV

Wiberg/Mayer (AO) data.
largest (>0.10) Wiberg bond orders for each atom

     #   Z sym  total        # sym  WBO       # sym  WBO       # sym  WBO
 ---------------------------------------------------------------------------
     1   6 C    3.897 --    27 H    0.987    28 H    0.980    26 H    0.980
                             2 O    0.923
     2   8 O    2.164 --     3 C    1.054     1 C    0.923     4 O    0.111
     3   6 C    3.851 --     4 O    1.579     5 C    1.108     2 O    1.054
     4   8 O    1.853 --     3 C    1.579     2 O    0.111
     5   6 C    3.912 --    24 C    1.268     6 N    1.157     3 C    1.108
                            25 O    0.129
     6   7 N    3.033 --     7 C    1.637     5 C    1.157
     7   6 C    3.932 --     6 N    1.637    21 N    1.085     8 C    0.979
     8   6 C    3.910 --    10 C    0.993     9 C    0.983     7 C    0.979
                            11 N    0.889
     9   6 C    3.988 --    30 H    0.984    29 H    0.984     8 C    0.983
                            31 H    0.980
    10   6 C    3.990 --     8 C    0.993    33 H    0.985    32 H    0.984
                            34 H    0.982
    11   7 N    3.396 --    12 C    1.318    35 H    0.891     8 C    0.889
                            13 O    0.197
    12   6 C    3.928 --    13 O    1.572    11 N    1.318    14 C    0.965
    13   8 O    1.933 --    12 C    1.572    11 N    0.197
    14   6 C    3.795 --    15 N    1.704    12 C    0.965    19 O    0.886
    15   7 N    3.041 --    14 C    1.704    16 N    1.145
    16   7 N    3.024 --    17 C    1.700    15 N    1.145
    17   6 C    3.802 --    16 N    1.700    18 C    1.043    19 O    0.874
    18   6 C    3.970 --    17 C    1.043    36 H    0.970    38 H    0.951
                            37 H    0.951
    19   8 O    2.654 --    14 C    0.886    17 C    0.874    20 C    0.747
    20   6 C    3.725 --    41 H    0.975    40 H    0.968    39 H    0.967
                            19 O    0.747
    21   7 N    3.416 --    22 C    1.152     7 C    1.085    42 H    0.898
                            23 O    0.135
    22   6 C    3.875 --    23 O    1.587    21 N    1.152    24 C    0.965
    23   8 O    1.867 --    22 C    1.587    21 N    0.135
    24   6 C    3.942 --    25 O    1.527     5 C    1.268    22 C    0.965
    25   8 O    1.832 --    24 C    1.527     5 C    0.129
    26   1 H    1.014 --     1 C    0.980
    27   1 H    1.015 --     1 C    0.987
    28   1 H    1.013 --     1 C    0.980
    29   1 H    1.002 --     9 C    0.984
    30   1 H    1.001 --     9 C    0.984
    31   1 H    1.007 --     9 C    0.980
    32   1 H    1.006 --    10 C    0.984
    33   1 H    1.007 --    10 C    0.985
    34   1 H    1.011 --    10 C    0.982
    35   1 H    0.942 --    11 N    0.891
    36   1 H    0.989 --    18 C    0.970
    37   1 H    0.988 --    18 C    0.951
    38   1 H    0.988 --    18 C    0.951
    39   1 H    1.000 --    20 C    0.967
    40   1 H    0.999 --    20 C    0.968
    41   1 H    0.991 --    20 C    0.975
    42   1 H    0.944 --    21 N    0.898
 ---------------------------------------------------------------------------

           -------------------------------------------------
          | TOTAL ENERGY              -82.914164030260 Eh   |
          | GRADIENT NORM               0.000744517823 Eh/α |
          | HOMO-LUMO GAP               0.321853310837 eV   |
           -------------------------------------------------

 * finished run on 2023/06/21 at 17:29:43.607
