   * xtb version 6.5.1 (579679a) compiled by 'ehlert@majestix' on 2022-07-11
          program call               : /lustre/hpc/kemi/ree/PhD/git/ReactivityQM/dep/xtb-6.5.1/bin/xtb --gfn 1 /lustre/hpc/kemi/ree/PhD/git/ReactivityQM/calculations/R02deprot/reac01prodN06/conf16/R02deprot_reac01prodN06_conf16_gfn1.xyz --opt --vfukui --chrg 0 --uhf 0 --alpb DMSO

   ID    Z sym.   atoms
    1    6 C      1, 3, 5, 6, 8, 11-14, 16, 18, 21, 22, 25
    2    8 O      2, 4, 7, 9, 17, 23
    3    7 N      10, 15, 19, 20, 24
    4    1 H      26-42

      * Solvation model:               ALPB
        Solvent                        DMSO
        Solvent mass                       7.8130E+01 g/mol
          :  Hamiltonian                  GFN1-xTB          :
 * total energy  :   -82.9761249 Eh     change       -0.2006573E-10 Eh
 * total energy  :   -82.9898382 Eh     change       -0.1371336E-01 Eh
 * total energy  :   -82.9949801 Eh     change       -0.5141866E-02 Eh
 * total energy  :   -82.9962004 Eh     change       -0.1220317E-02 Eh
 * total energy  :   -82.9968934 Eh     change       -0.6929915E-03 Eh
 * total energy  :   -82.9971537 Eh     change       -0.2602682E-03 Eh
 * total energy  :   -82.9973075 Eh     change       -0.1537724E-03 Eh
 * total energy  :   -82.9974056 Eh     change       -0.9814361E-04 Eh
 * total energy  :   -82.9974665 Eh     change       -0.6090200E-04 Eh
 * total energy  :   -82.9975153 Eh     change       -0.4882454E-04 Eh
 * total energy  :   -82.9982238 Eh     change       -0.1919367E-04 Eh
 * total energy  :   -82.9982135 Eh     change        0.1030876E-04 Eh
 * total energy  :   -82.9982324 Eh     change       -0.1881760E-04 Eh
 * total energy  :   -82.9982427 Eh     change       -0.1033461E-04 Eh
 * total energy  :   -82.9982511 Eh     change       -0.8385945E-05 Eh
 * total energy  :   -82.9982591 Eh     change       -0.8049580E-05 Eh
 * total energy  :   -82.9982644 Eh     change       -0.5258523E-05 Eh
 * total energy  :   -82.9982694 Eh     change       -0.5051119E-05 Eh
 * total energy  :   -82.9982731 Eh     change       -0.3668490E-05 Eh
   *** GEOMETRY OPTIMIZATION CONVERGED AFTER 44 ITERATIONS ***

 final structure:
================
42
 xtb: 6.5.1 (579679a)
C           -5.26541343091152        2.10447490905186        1.52182904393550
O           -4.60106756646354        1.29059654286165        0.54881915881563
C           -3.28229600243862        1.20336938867423        0.64618789363084
O           -2.64261090515725        1.76384687265818        1.50851804324811
C           -2.68958203011535        0.37471876956658       -0.44831221833309
C           -3.23691903738381        0.29721953294267       -1.69333745860603
O           -4.38483098912253        0.88490479600491       -2.04352730464184
C           -2.55132595479941       -0.43084237479149       -2.77300609108994
O           -3.08638507905217       -0.53135232574965       -3.87184792125541
N           -1.31861024218823       -0.92985856053012       -2.46845828686680
C           -0.81453375555730       -0.84187018594266       -1.26797201405761
C            0.57137948503023       -1.47007302477257       -1.13227779260960
C            1.24610961736631       -1.51302528417441       -2.51303666790506
C            0.42975913794102       -2.90126578676621       -0.59223011745516
N            1.39164810369740       -0.62543495042154       -0.26017315746780
C            2.63807066607275       -0.95816042428384        0.15391854642123
O            3.16926277257440       -2.04408936697789        0.02384905813256
C            3.28066808414894        0.19994398678194        0.82672591772155
N            2.76331451464442        1.38437242254957        0.96291622551055
N            3.68783513965554        2.14464238896838        1.61200022298510
C            4.71242994973479        1.37585132918895        1.82889136633681
C            5.98034748806993        1.73025245283135        2.50345608960886
O            4.51525826911512        0.13643135856049        1.35584379532763
N           -1.46572306583435       -0.26533584248725       -0.23026525243623
C           -0.99606428157549       -0.35473237310167        1.15635730118001
H           -5.06464481719211        1.72415013275474        2.52558425918428
H           -4.91545595607571        3.13653396626928        1.44816087620980
H           -6.32865904667947        2.04603378568663        1.29909331898812
H           -4.54474696779171        0.68196547977393       -2.98807154432899
H            1.29831087231815       -0.51113209539807       -2.93573073512187
H            2.25360366241083       -1.91115181312816       -2.40703906243238
H            0.67728513181643       -2.15216005790922       -3.18544506743286
H           -0.31088624463971       -3.42905610911065       -1.19175149547530
H            0.10941182190953       -2.90954043001744        0.44674060839270
H            1.38039733427526       -3.42517747870996       -0.66692330614023
H            1.15531167167993        0.35585654967374       -0.22569343886172
H            5.98606746896498        2.79179566396572        2.73704248594260
H            6.82483957243225        1.49126352693398        1.85809787055487
H            6.08638471836557        1.15560989457188        3.42355365424621
H           -1.84730490599484       -0.56202849159790        1.80140639911076
H           -0.53235999828433        0.58547306216459        1.45241367734383
H           -0.27827620496287       -1.15980783657092        1.25369111968449

          :  Hamiltonian                  GFN1-xTB          :
         :: total energy             -82.998273101031 Eh    ::
         :: gradient norm              0.000406476432 Eh/a0 ::
         :: HOMO-LUMO gap              2.912798034314 eV    ::
         :: SCC energy               -83.778429703566 Eh    ::
         :: -> Gsolv                  -0.051418723437 Eh    ::
         :: repulsion energy           0.806891712144 Eh    ::

    * Orbital Energies and Occupations

         #    Occupation            Energy/Eh            Energy/eV
      -------------------------------------------------------------
         1        2.0000           -0.8656410             -23.5553
       ...           ...                  ...                  ...
        55        2.0000           -0.5060696             -13.7709
        56        2.0000           -0.5035065             -13.7011
        57        2.0000           -0.5003152             -13.6143
        58        2.0000           -0.4895541             -13.3214
        59        2.0000           -0.4848956             -13.1947
        60        2.0000           -0.4785022             -13.0207
        61        2.0000           -0.4763437             -12.9620
        62        2.0000           -0.4680909             -12.7374
        63        2.0000           -0.4623826             -12.5821
        64        2.0000           -0.4547058             -12.3732
        65        2.0000           -0.4491194             -12.2212
        66        2.0000           -0.4296490             -11.6913
        67        2.0000           -0.4282180             -11.6524 (HOMO)
        68                         -0.3211746              -8.7396 (LUMO)
        69                         -0.3140548              -8.5459
        70                         -0.2960031              -8.0547
        71                         -0.2586689              -7.0387
        72                         -0.2434757              -6.6253
        73                         -0.2021252              -5.5001
        74                         -0.1664610              -4.5296
        75                         -0.1428797              -3.8880
        76                         -0.1415320              -3.8513
        77                         -0.1398196              -3.8047
        78                         -0.1284014              -3.4940
       ...                                ...                  ...
       134                          0.7279282              19.8079
      -------------------------------------------------------------
                  HL-Gap            0.1070434 Eh            2.9128 eV

Wiberg/Mayer (AO) data.
largest (>0.10) Wiberg bond orders for each atom

     #   Z sym  total        # sym  WBO       # sym  WBO       # sym  WBO
 ---------------------------------------------------------------------------
     1   6 C    3.865 --    28 H    0.986    26 H    0.979    27 H    0.979
                             2 O    0.890
     2   8 O    2.219 --     3 C    1.135     1 C    0.890     4 O    0.136
     3   6 C    3.856 --     4 O    1.642     2 O    1.135     5 C    0.997
     4   8 O    1.933 --     3 C    1.642     2 O    0.136
     5   6 C    3.925 --     6 C    1.533    24 N    1.083     3 C    0.997
     6   6 C    3.914 --     5 C    1.533     7 O    1.112     8 C    1.033
     7   8 O    2.083 --     6 C    1.112    29 H    0.801
     8   6 C    3.919 --     9 O    1.575    10 N    1.174     6 C    1.033
     9   8 O    1.893 --     8 C    1.575    10 N    0.101
    10   7 N    3.015 --    11 C    1.498     8 C    1.174     9 O    0.101
    11   6 C    3.930 --    10 N    1.498    24 N    1.261    12 C    0.976
    12   6 C    3.932 --    13 C    0.986    14 C    0.980    11 C    0.976
                            15 N    0.924
    13   6 C    3.989 --    12 C    0.986    30 H    0.985    31 H    0.983
                            32 H    0.983
    14   6 C    3.987 --    33 H    0.984    12 C    0.980    34 H    0.977
                            35 H    0.977
    15   7 N    3.332 --    16 C    1.232    12 C    0.924    36 H    0.896
                            17 O    0.172
    16   6 C    3.915 --    17 O    1.607    15 N    1.232    18 C    0.989
    17   8 O    1.921 --    16 C    1.607    15 N    0.172
    18   6 C    3.876 --    19 N    1.608    23 O    1.066    16 C    0.989
    19   7 N    3.020 --    18 C    1.608    20 N    1.202
    20   7 N    2.981 --    21 C    1.603    19 N    1.202
    21   6 C    3.870 --    20 N    1.603    23 O    1.083    22 C    1.032
    22   6 C    3.986 --    21 C    1.032    37 H    0.982    38 H    0.965
                            39 H    0.961
    23   8 O    2.332 --    21 C    1.083    18 C    1.066
    24   7 N    3.523 --    11 C    1.261     5 C    1.083    25 C    0.923
    25   6 C    3.920 --    40 H    0.978    42 H    0.976    41 H    0.973
                            24 N    0.923
    26   1 H    1.006 --     1 C    0.979
    27   1 H    1.006 --     1 C    0.979
    28   1 H    1.010 --     1 C    0.986
    29   1 H    0.850 --     7 O    0.801
    30   1 H    1.006 --    13 C    0.985
    31   1 H    1.004 --    13 C    0.983
    32   1 H    1.013 --    13 C    0.983
    33   1 H    1.002 --    14 C    0.984
    34   1 H    1.002 --    14 C    0.977
    35   1 H    1.011 --    14 C    0.977
    36   1 H    0.955 --    15 N    0.896
    37   1 H    0.998 --    22 C    0.982
    38   1 H    0.996 --    22 C    0.965
    39   1 H    0.996 --    22 C    0.961
    40   1 H    1.002 --    25 C    0.978
    41   1 H    1.012 --    25 C    0.973
    42   1 H    1.011 --    25 C    0.976
 ---------------------------------------------------------------------------

           -------------------------------------------------
          | TOTAL ENERGY              -82.998273101031 Eh   |
          | GRADIENT NORM               0.000406476432 Eh/α |
          | HOMO-LUMO GAP               2.912798034314 eV   |
           -------------------------------------------------

 * finished run on 2023/06/20 at 18:12:30.700
