   * xtb version 6.5.1 (579679a) compiled by 'ehlert@majestix' on 2022-07-11
          program call               : /lustre/hpc/kemi/ree/PhD/git/ReactivityQM/dep/xtb-6.5.1/bin/xtb --gfn 1 /lustre/hpc/kemi/ree/PhD/git/ReactivityQM/calculations/R03/reac02prodE13/conf15/R03_reac02prodE13_conf15_gfn1.xyz --opt --vfukui --chrg -1 --uhf 0 --alpb DMSO

   ID    Z sym.   atoms
    1    6 C      1, 3, 5, 6, 8, 10, 12-16, 18, 20, 23, 24
    2    8 O      2, 4, 7, 9, 19, 25
    3    7 N      11, 17, 21, 22, 26
    4    1 H      27-46

      * Solvation model:               ALPB
        Solvent                        DMSO
        Solvent mass                       7.8130E+01 g/mol
          :  Hamiltonian                  GFN1-xTB          :
 * total energy  :   -87.0040155 Eh     change       -0.3410605E-10 Eh
 * total energy  :   -87.0195615 Eh     change       -0.1554604E-01 Eh
 * total energy  :   -87.0254719 Eh     change       -0.5910402E-02 Eh
 * total energy  :   -87.0266303 Eh     change       -0.1158389E-02 Eh
 * total energy  :   -87.0272492 Eh     change       -0.6188913E-03 Eh
 * total energy  :   -87.0274546 Eh     change       -0.2054569E-03 Eh
 * total energy  :   -87.0275917 Eh     change       -0.1370842E-03 Eh
 * total energy  :   -87.0277046 Eh     change       -0.1128606E-03 Eh
 * total energy  :   -87.0278116 Eh     change       -0.1070184E-03 Eh
 * total energy  :   -87.0279157 Eh     change       -0.1040862E-03 Eh
 * total energy  :   -87.0337125 Eh     change       -0.1611414E-04 Eh
 * total energy  :   -87.0337214 Eh     change       -0.8941785E-05 Eh
 * total energy  :   -87.0337233 Eh     change       -0.1854380E-05 Eh
 * total energy  :   -87.0337307 Eh     change       -0.7406653E-05 Eh
 * total energy  :   -87.0337359 Eh     change       -0.5161394E-05 Eh
 * total energy  :   -87.0337429 Eh     change       -0.6984786E-05 Eh
 * total energy  :   -87.0337510 Eh     change       -0.8156512E-05 Eh
 * total energy  :   -87.0337560 Eh     change       -0.5010454E-05 Eh
 * total energy  :   -87.0337596 Eh     change       -0.3575443E-05 Eh
   *** GEOMETRY OPTIMIZATION CONVERGED AFTER 93 ITERATIONS ***

 final structure:
================
46
 xtb: 6.5.1 (579679a)
C           -5.37894406931076        2.79179066776409        1.64068816682569
O           -4.14170698046855        2.15246342065791        1.38450326751645
C           -4.18057356845375        1.16503731006183        0.40709010907263
O           -5.27535070289831        0.90512407564357       -0.15353725710536
C           -2.96892555840202        0.52097490479955        0.15700986146054
C           -2.84604463600950       -0.47392341352815       -0.90123350266334
O           -3.92155154542533       -0.68891443274182       -1.72375844784984
C           -1.66415544876079       -1.08081736250707       -1.11049748994431
O           -1.35635555146663       -1.94250378044216       -2.16424762294950
C           -2.20139347549686       -3.07125614352855       -2.32761408346095
N           -0.54120175344757       -0.88060533438281       -0.21646320363118
C           -0.34827116689535       -2.06996219076749        0.64552379792908
C           -0.69406635822561        0.33118599890120        0.55934666806905
C            0.58239553415716        0.94381269083098        1.12365895292495
C            0.70412356846535        0.65628230603776        2.62862966661750
C            0.55644499838788        2.46241892996021        0.88566706182284
N            1.71264477219078        0.35988680292797        0.39907678699291
C            3.00017455504119        0.65786501062583        0.60532522301887
O            3.43963081575226        1.42405662872773        1.45112335842503
C            3.87203850812802       -0.07313534630745       -0.36011065728491
N            3.46720045231595       -0.86710359341577       -1.30467714841873
N            4.58250944941565       -1.29784957253336       -1.96264309691678
C            5.59500723586600       -0.73791629218748       -1.37699434156318
C            7.02758397851660       -0.88307639392780       -1.71765777472053
O            5.21333312491961        0.04800292565501       -0.35824035908782
N           -1.79280451359634        0.94811729491090        0.75497859520455
H           -5.20238471400049        3.53505733452243        2.41954292846566
H           -6.13201321036648        2.07392165432706        1.98679873970793
H           -5.76095351280766        3.29098593132403        0.74199303540508
H           -4.68028263691096       -0.17487598563938       -1.32695966793290
H           -3.18737657529276       -2.78509523604722       -2.71499411568648
H           -1.71407301364466       -3.73331508205143       -3.04708299436063
H           -2.33658720717486       -3.61054433699077       -1.38150908510978
H           -0.19582011214630       -2.93473825101946        0.00079739803028
H           -1.21750425658797       -2.24189429237457        1.28879876666070
H            0.53911892690375       -1.93015261087365        1.26031443851933
H           -0.20258804369359        0.99680670985595        3.12726842507904
H            1.56068463492535        1.17931003134225        3.05157863878244
H            0.82326339295882       -0.41085272815783        2.80617719497220
H           -0.34392362466695        2.87501814557813        1.33985293067020
H            1.43082740822280        2.93611655273967        1.32878679751874
H            0.53937784164979        2.67275134041170       -0.18349631783033
H            1.47497955468589       -0.28980361849778       -0.34628420037973
H            7.13344965704820       -1.54262798693178       -2.57517902541185
H            7.57353089945239       -1.29694429433792       -0.87024405170397
H            7.45653492714755        0.09092161155786       -1.95140636568771

          :  Hamiltonian                  GFN1-xTB          :
         :: total energy             -87.033759594194 Eh    ::
         :: gradient norm              0.000328541647 Eh/a0 ::
         :: HOMO-LUMO gap              0.348166149040 eV    ::
         :: SCC energy               -87.823281314549 Eh    ::
         :: -> Gsolv                  -0.106262472137 Eh    ::
         :: repulsion energy           0.818202683428 Eh    ::

    * Orbital Energies and Occupations

         #    Occupation            Energy/Eh            Energy/eV
      -------------------------------------------------------------
         1        2.0000           -0.8575647             -23.3355
       ...           ...                  ...                  ...
        59        2.0000           -0.4688807             -12.7589
        60        2.0000           -0.4570409             -12.4367
        61        2.0000           -0.4537275             -12.3466
        62        2.0000           -0.4516357             -12.2896
        63        2.0000           -0.4450842             -12.1114
        64        2.0000           -0.4424966             -12.0409
        65        2.0000           -0.4404005             -11.9839
        66        2.0000           -0.4311205             -11.7314
        67        2.0000           -0.4097393             -11.1496
        68        2.0000           -0.4052298             -11.0269
        69        2.0000           -0.3817228             -10.3872
        70        2.0000           -0.3787344             -10.3059
        71        1.9976           -0.3123998              -8.5008 (HOMO)
        72        0.0024           -0.2996050              -8.1527 (LUMO)
        73                         -0.2517830              -6.8514
        74                         -0.2298321              -6.2541
        75                         -0.1949464              -5.3048
        76                         -0.1879886              -5.1154
        77                         -0.1411404              -3.8406
        78                         -0.1229274              -3.3450
        79                         -0.1126348              -3.0649
        80                         -0.1123267              -3.0566
        81                         -0.1069054              -2.9090
        82                         -0.1060617              -2.8861
       ...                                ...                  ...
       144                          0.7304467              19.8765
      -------------------------------------------------------------
                  HL-Gap            0.0127949 Eh            0.3482 eV

Wiberg/Mayer (AO) data.
largest (>0.10) Wiberg bond orders for each atom

     #   Z sym  total        # sym  WBO       # sym  WBO       # sym  WBO
 ---------------------------------------------------------------------------
     1   6 C    3.911 --    27 H    0.987    29 H    0.981    28 H    0.981
                             2 O    0.941
     2   8 O    2.089 --     3 C    0.969     1 C    0.941
     3   6 C    3.869 --     4 O    1.404     5 C    1.336     2 O    0.969
     4   8 O    1.817 --     3 C    1.404     5 C    0.105
     5   6 C    3.866 --     3 C    1.336    26 N    1.121     6 C    1.085
                             4 O    0.105
     6   6 C    3.912 --     8 C    1.651     5 C    1.085     7 O    1.028
     7   8 O    1.985 --     6 C    1.028    30 H    0.774
     8   6 C    3.832 --     6 C    1.651    11 N    0.957     9 O    0.948
     9   8 O    2.028 --     8 C    0.948    10 C    0.936
    10   6 C    3.915 --    32 H    0.986    33 H    0.982    31 H    0.980
                             9 O    0.936
    11   7 N    3.109 --    13 C    0.970     8 C    0.957    12 C    0.944
    12   6 C    3.970 --    34 H    0.986    35 H    0.985    36 H    0.984
                            11 N    0.944
    13   6 C    3.943 --    26 N    1.722    14 C    0.974    11 N    0.970
    14   6 C    3.925 --    16 C    0.985    15 C    0.982    13 C    0.974
                            17 N    0.917
    15   6 C    3.991 --    37 H    0.986    39 H    0.982    38 H    0.982
                            14 C    0.982
    16   6 C    3.993 --    42 H    0.987    14 C    0.985    41 H    0.984
                            40 H    0.983
    17   7 N    3.382 --    18 C    1.294    14 C    0.917    43 H    0.882
                            19 O    0.186
    18   6 C    3.923 --    19 O    1.567    17 N    1.294    20 C    0.980
    19   8 O    1.887 --    18 C    1.567    17 N    0.186
    20   6 C    3.869 --    21 N    1.617    25 O    1.061    18 C    0.980
    21   7 N    3.011 --    20 C    1.617    22 N    1.192
    22   7 N    2.980 --    23 C    1.614    21 N    1.192
    23   6 C    3.873 --    22 N    1.614    25 O    1.080    24 C    1.030
    24   6 C    3.988 --    23 C    1.030    44 H    0.983    46 H    0.965
                            45 H    0.964
    25   8 O    2.324 --    23 C    1.080    20 C    1.061
    26   7 N    3.054 --    13 C    1.722     5 C    1.121
    27   1 H    1.019 --     1 C    0.987
    28   1 H    1.018 --     1 C    0.981
    29   1 H    1.018 --     1 C    0.981
    30   1 H    0.886 --     7 O    0.774
    31   1 H    1.027 --    10 C    0.980
    32   1 H    1.019 --    10 C    0.986
    33   1 H    1.014 --    10 C    0.982
    34   1 H    1.017 --    12 C    0.986
    35   1 H    1.011 --    12 C    0.985
    36   1 H    1.017 --    12 C    0.984
    37   1 H    1.009 --    15 C    0.986
    38   1 H    1.012 --    15 C    0.982
    39   1 H    1.010 --    15 C    0.982
    40   1 H    1.021 --    16 C    0.983
    41   1 H    1.011 --    16 C    0.984
    42   1 H    1.009 --    16 C    0.987
    43   1 H    0.977 --    17 N    0.882
    44   1 H    0.999 --    24 C    0.983
    45   1 H    0.997 --    24 C    0.964
    46   1 H    0.998 --    24 C    0.965
 ---------------------------------------------------------------------------

           -------------------------------------------------
          | TOTAL ENERGY              -87.033759594194 Eh   |
          | GRADIENT NORM               0.000328541647 Eh/α |
          | HOMO-LUMO GAP               0.348166149040 eV   |
           -------------------------------------------------

 * finished run on 2023/06/20 at 15:34:39.937
