   * xtb version 6.5.1 (579679a) compiled by 'ehlert@majestix' on 2022-07-11
          program call               : /lustre/hpc/kemi/ree/PhD/git/ReactivityQM/dep/xtb-6.5.1/bin/xtb --gfn 1 /lustre/hpc/kemi/ree/PhD/git/ReactivityQM/calculations/R03/reac01prodN04/conf07/R03_reac01prodN04_conf07_gfn1.xyz --opt --vfukui --chrg 1 --uhf 0 --alpb DMSO

   ID    Z sym.   atoms
    1    6 C      1-5, 7-9
    2    7 N      6
    3    9 F      10
    4    1 H      11-21

      * Solvation model:               ALPB
        Solvent                        DMSO
        Solvent mass                       7.8130E+01 g/mol
          :  Hamiltonian                  GFN1-xTB          :
 * total energy  :   -30.7638303 Eh     change       -0.7101875E-11 Eh
 * total energy  :   -30.7682098 Eh     change       -0.4379496E-02 Eh
 * total energy  :   -30.7693976 Eh     change       -0.1187753E-02 Eh
 * total energy  :   -30.7695478 Eh     change       -0.1502119E-03 Eh
 * total energy  :   -30.7696582 Eh     change       -0.1104062E-03 Eh
 * total energy  :   -30.7697072 Eh     change       -0.4900877E-04 Eh
 * total energy  :   -30.7697911 Eh     change       -0.8384158E-04 Eh
 * total energy  :   -30.7698457 Eh     change       -0.5464721E-04 Eh
 * total energy  :   -30.7698846 Eh     change       -0.3893280E-04 Eh
 * total energy  :   -30.7699061 Eh     change       -0.2144545E-04 Eh
 * total energy  :   -30.7699740 Eh     change       -0.2412068E-04 Eh
 * total energy  :   -30.7699886 Eh     change       -0.1452035E-04 Eh
 * total energy  :   -30.7700062 Eh     change       -0.1763972E-04 Eh
 * total energy  :   -30.7700180 Eh     change       -0.1181435E-04 Eh
 * total energy  :   -30.7700257 Eh     change       -0.7722004E-05 Eh
 * total energy  :   -30.7700346 Eh     change       -0.8884641E-05 Eh
 * total energy  :   -30.7700434 Eh     change       -0.8771031E-05 Eh
 * total energy  :   -30.7700465 Eh     change       -0.3147894E-05 Eh
 * total energy  :   -30.7700488 Eh     change       -0.2228856E-05 Eh
   *** GEOMETRY OPTIMIZATION CONVERGED AFTER 21 ITERATIONS ***

 final structure:
================
21
 xtb: 6.5.1 (579679a)
C           -2.53468543778581        1.17236806528397        0.77284741019451
C           -1.56100529649430       -0.01750521476376        0.55745215930003
C           -0.15747063154124        0.31760920491315        0.85737612487972
C            0.87160067093884       -0.00242225878436        0.01332870306693
C            2.30666871826076        0.34400470846868        0.32730007851022
N            3.19575204483485       -0.61328970650454       -0.31628757653764
C            0.58608048847614       -0.64981692850572       -1.20777204427478
C           -0.70895763921540       -0.98947442122524       -1.58820151379759
C           -1.74005074583635       -0.67286354134104       -0.74287955213083
F           -2.96944456857931       -0.96698897498619       -1.07452497984153
H           -2.44140525214214        1.53127462416113        1.79474205882732
H           -2.28392280628436        1.97286740471758        0.08072151106589
H           -3.55425412938198        0.83817847529639        0.59361311849470
H           -1.86905314636381       -0.76146719945418        1.31597033838329
H            0.02807538926034        0.83141968633544        1.79353510860351
H            2.51376320423731        1.33742399735171       -0.08272115209418
H            2.45505397339377        0.38534143919866        1.41312687719039
H            4.13003694144933       -0.22966975914529       -0.33874677106423
H            3.21839595119171       -1.46444161573999        0.22788668896956
H            1.42086012142668       -0.88428257515467       -1.86215918927828
H           -0.90603684984484       -1.47826441012173       -2.53460639846720

          :  Hamiltonian                  GFN1-xTB          :
         :: total energy             -30.770048767095 Eh    ::
         :: gradient norm              0.000480731141 Eh/a0 ::
         :: HOMO-LUMO gap              0.353223444834 eV    ::
         :: SCC energy               -31.162257408863 Eh    ::
         :: -> Gsolv                  -0.082204999829 Eh    ::
         :: repulsion energy           0.402048144231 Eh    ::

    * Orbital Energies and Occupations

         #    Occupation            Energy/Eh            Energy/eV
      -------------------------------------------------------------
         1        2.0000           -0.9465477             -25.7569
       ...           ...                  ...                  ...
        15        2.0000           -0.6002878             -16.3347
        16        2.0000           -0.5956780             -16.2092
        17        2.0000           -0.5868990             -15.9703
        18        2.0000           -0.5801285             -15.7861
        19        2.0000           -0.5598737             -15.2349
        20        2.0000           -0.5543737             -15.0853
        21        2.0000           -0.5508638             -14.9898
        22        2.0000           -0.5455861             -14.8462
        23        2.0000           -0.5338279             -14.5262
        24        2.0000           -0.5283199             -14.3763
        25        2.0000           -0.5195654             -14.1381
        26        2.0000           -0.4966168             -13.5136
        27        1.9978           -0.4298013             -11.6955 (HOMO)
        28        0.0022           -0.4168206             -11.3423 (LUMO)
        29                         -0.3266108              -8.8875
        30                         -0.2460041              -6.6941
        31                         -0.1586701              -4.3176
        32                         -0.1513899              -4.1195
        33                         -0.1476662              -4.0182
        34                         -0.1379856              -3.7548
        35                         -0.1221756              -3.3246
        36                         -0.1168651              -3.1801
        37                         -0.1048252              -2.8524
        38                         -0.0921565              -2.5077
       ...                                ...                  ...
        62                          0.5434517              14.7881
      -------------------------------------------------------------
                  HL-Gap            0.0129807 Eh            0.3532 eV

Wiberg/Mayer (AO) data.
largest (>0.10) Wiberg bond orders for each atom

     #   Z sym  total        # sym  WBO       # sym  WBO       # sym  WBO
 ---------------------------------------------------------------------------
     1   6 C    3.963 --    12 H    0.984    11 H    0.982    13 H    0.981
                             2 C    0.910
     2   6 C    3.989 --     3 C    1.084     9 C    1.070     1 C    0.910
                            14 H    0.839
     3   6 C    3.961 --     4 C    1.560     2 C    1.084    15 H    0.963
     4   6 C    3.976 --     3 C    1.560     7 C    1.303     5 C    1.002
     5   6 C    3.976 --     6 N    1.004     4 C    1.002    17 H    0.967
                            16 H    0.954
     6   7 N    2.964 --     5 C    1.004    19 H    0.940    18 H    0.931
     7   6 C    3.933 --     8 C    1.403     4 C    1.303    20 H    0.957
     8   6 C    3.982 --     9 C    1.469     7 C    1.403    21 H    0.956
     9   6 C    3.840 --     8 C    1.469     2 C    1.070    10 F    1.031
    10   9 F    1.199 --     9 C    1.031
    11   1 H    0.993 --     1 C    0.982
    12   1 H    0.994 --     1 C    0.984
    13   1 H    0.995 --     1 C    0.981
    14   1 H    0.976 --     2 C    0.839
    15   1 H    0.989 --     3 C    0.963
    16   1 H    1.003 --     5 C    0.954
    17   1 H    0.997 --     5 C    0.967
    18   1 H    0.945 --     6 N    0.931
    19   1 H    0.950 --     6 N    0.940
    20   1 H    1.013 --     7 C    0.957
    21   1 H    0.985 --     8 C    0.956
 ---------------------------------------------------------------------------

           -------------------------------------------------
          | TOTAL ENERGY              -30.770048767095 Eh   |
          | GRADIENT NORM               0.000480731141 Eh/α |
          | HOMO-LUMO GAP               0.353223444834 eV   |
           -------------------------------------------------

 * finished run on 2023/06/20 at 15:14:34.460
