   * xtb version 6.5.1 (579679a) compiled by 'ehlert@majestix' on 2022-07-11
          program call               : /lustre/hpc/kemi/ree/PhD/git/ReactivityQM/dep/xtb-6.5.1/bin/xtb --gfn 1 /lustre/hpc/kemi/ree/PhD/git/ReactivityQM/calculations/R02oxygendeprot/reac01/conf05/R02oxygendeprot_reac01_conf05_gfn1.xyz --opt --vfukui --chrg -1 --uhf 0 --alpb DMSO

   ID    Z sym.   atoms
    1    6 C      1, 3, 5, 7-10, 12, 14, 17, 18, 21, 23
    2    8 O      2, 4, 13, 19, 22, 24
    3    7 N      6, 11, 15, 16, 20
    4    1 H      25-38

      * Solvation model:               ALPB
        Solvent                        DMSO
        Solvent mass                       7.8130E+01 g/mol
          :  Hamiltonian                  GFN1-xTB          :
 * total energy  :   -79.6016788 Eh     change       -0.3102230E-10 Eh
 * total energy  :   -79.6148683 Eh     change       -0.1318945E-01 Eh
 * total energy  :   -79.6196459 Eh     change       -0.4777589E-02 Eh
 * total energy  :   -79.6203246 Eh     change       -0.6786678E-03 Eh
 * total energy  :   -79.6206568 Eh     change       -0.3322786E-03 Eh
 * total energy  :   -79.6207914 Eh     change       -0.1345928E-03 Eh
 * total energy  :   -79.6209206 Eh     change       -0.1291778E-03 Eh
 * total energy  :   -79.6210256 Eh     change       -0.1049727E-03 Eh
 * total energy  :   -79.6211198 Eh     change       -0.9418277E-04 Eh
 * total energy  :   -79.6212028 Eh     change       -0.8301393E-04 Eh
 * total energy  :   -79.6219079 Eh     change       -0.1088229E-04 Eh
 * total energy  :   -79.6219198 Eh     change       -0.1198110E-04 Eh
 * total energy  :   -79.6219291 Eh     change       -0.9253453E-05 Eh
 * total energy  :   -79.6219372 Eh     change       -0.8071797E-05 Eh
 * total energy  :   -79.6219482 Eh     change       -0.1105144E-04 Eh
 * total energy  :   -79.6219616 Eh     change       -0.1334734E-04 Eh
 * total energy  :   -79.6219553 Eh     change        0.6256143E-05 Eh
 * total energy  :   -79.6219672 Eh     change       -0.1189707E-04 Eh
 * total energy  :   -79.6219721 Eh     change       -0.4862068E-05 Eh
   *** GEOMETRY OPTIMIZATION CONVERGED AFTER 42 ITERATIONS ***

 final structure:
================
38
 xtb: 6.5.1 (579679a)
C           -6.56869401850696        0.79488513508003        1.21003884439386
O           -5.40717238367931       -0.02097211049366        1.15465809053166
C           -4.34878434264614        0.50339956980235        0.48686111418760
O           -4.42081327951742        1.61818023617285       -0.01740378628801
C           -3.17576824913505       -0.35644112167606        0.43223221617040
N           -2.13077774676919        0.21465038198888       -0.27131543470958
C           -1.02658618259173       -0.41189371023944       -0.42697587466592
C            0.10282767294651        0.19242260099753       -1.23458929989243
C            0.24743575502524       -0.57682983301036       -2.55609350286465
C           -0.17701530737178        1.67649963444700       -1.48907128588007
N            1.33652668802178        0.04912639504802       -0.44428330596368
C            2.54745672195872        0.45227878324031       -0.86973850426955
O            2.79749017883635        0.94956326308093       -1.95496578692834
C            3.58392992982486        0.21120986672896        0.17147643650913
N            3.39132313637193       -0.31978697428253        1.34078304648847
N            4.60281414442374       -0.34472950467607        1.96624194025855
C            5.45615342954493        0.17407813873375        1.13788045035021
C            6.90655791177445        0.38181070384266        1.34084338927991
O            4.87430200684399        0.54471495308700       -0.01260675720926
N           -0.82564939569028       -1.67807742024726        0.09048746595844
C           -1.77026151776420       -2.36089804393130        0.81490946928739
O           -1.51353126311265       -3.48296886873434        1.24358879348615
C           -3.08820510686509       -1.64539769766793        1.02048344664806
O           -3.97994054995888       -2.22220416776658        1.66928570035636
H           -6.93606900826665        1.01419335877525        0.20251663342617
H           -7.32409378749520        0.23934863024665        1.76456659671541
H           -6.35531898553424        1.73971336670970        1.71990801159532
H            0.50368799921117       -1.61589888512006       -2.35686426427532
H            1.02605260175471       -0.13329194222106       -3.17326180219930
H           -0.69640965105416       -0.54191789447699       -3.09844570486350
H            0.60402374145857        2.10830945438578       -2.11121417454738
H           -1.13646064016094        1.77832319044620       -1.99481256216944
H           -0.22064415990881        2.21379083946134       -0.54240221248130
H            1.26469817211987       -0.30785247823196        0.49744132326694
H            7.46758017436485       -0.11815667958835        0.55261645476472
H            7.13877414243268        1.44544961105362        1.29634954509536
H            7.20335696998063       -0.01362211934329        2.30880947177621
H            0.04720319913115       -2.15100966162301       -0.07291518133925

          :  Hamiltonian                  GFN1-xTB          :
         :: total energy             -79.621972076675 Eh    ::
         :: gradient norm              0.000890313446 Eh/a0 ::
         :: HOMO-LUMO gap              1.688274497746 eV    ::
         :: SCC energy               -80.349603278412 Eh    ::
         :: -> Gsolv                  -0.121241641392 Eh    ::
         :: repulsion energy           0.750330963213 Eh    ::

    * Orbital Energies and Occupations

         #    Occupation            Energy/Eh            Energy/eV
      -------------------------------------------------------------
         1        2.0000           -0.8598333             -23.3973
       ...           ...                  ...                  ...
        52        2.0000           -0.4845568             -13.1855
        53        2.0000           -0.4781085             -13.0100
        54        2.0000           -0.4650853             -12.6556
        55        2.0000           -0.4594207             -12.5015
        56        2.0000           -0.4563616             -12.4182
        57        2.0000           -0.4555303             -12.3956
        58        2.0000           -0.4469673             -12.1626
        59        2.0000           -0.4404992             -11.9866
        60        2.0000           -0.4399590             -11.9719
        61        2.0000           -0.4364946             -11.8776
        62        2.0000           -0.4172714             -11.3545
        63        2.0000           -0.3795708             -10.3286
        64        2.0000           -0.3667135              -9.9788 (HOMO)
        65                         -0.3046705              -8.2905 (LUMO)
        66                         -0.2707783              -7.3683
        67                         -0.2533818              -6.8949
        68                         -0.2402499              -6.5375
        69                         -0.1976555              -5.3785
        70                         -0.1928323              -5.2472
        71                         -0.1406876              -3.8283
        72                         -0.1216732              -3.3109
        73                         -0.1175287              -3.1981
        74                         -0.1131457              -3.0789
        75                         -0.1090030              -2.9661
       ...                                ...                  ...
       124                          0.7550318              20.5455
      -------------------------------------------------------------
                  HL-Gap            0.0620429 Eh            1.6883 eV

Wiberg/Mayer (AO) data.
largest (>0.10) Wiberg bond orders for each atom

     #   Z sym  total        # sym  WBO       # sym  WBO       # sym  WBO
 ---------------------------------------------------------------------------
     1   6 C    3.899 --    26 H    0.987    27 H    0.980    25 H    0.980
                             2 O    0.925
     2   8 O    2.161 --     3 C    1.049     1 C    0.925     4 O    0.110
     3   6 C    3.850 --     4 O    1.576     5 C    1.113     2 O    1.049
     4   8 O    1.851 --     3 C    1.576     2 O    0.110
     5   6 C    3.915 --    23 C    1.272     6 N    1.153     3 C    1.113
                            24 O    0.130
     6   7 N    3.032 --     7 C    1.639     5 C    1.153
     7   6 C    3.933 --     6 N    1.639    20 N    1.087     8 C    0.979
     8   6 C    3.929 --    10 C    0.994     9 C    0.982     7 C    0.979
                            11 N    0.911
     9   6 C    3.990 --    30 H    0.986    28 H    0.985     8 C    0.982
                            29 H    0.980
    10   6 C    3.992 --     8 C    0.994    33 H    0.986    31 H    0.984
                            32 H    0.983
    11   7 N    3.353 --    12 C    1.268     8 C    0.911    34 H    0.896
                            13 O    0.181
    12   6 C    3.919 --    13 O    1.586    11 N    1.268    14 C    0.984
    13   8 O    1.904 --    12 C    1.586    11 N    0.181
    14   6 C    3.873 --    15 N    1.614    19 O    1.064    12 C    0.984
    15   7 N    3.015 --    14 C    1.614    16 N    1.196
    16   7 N    2.980 --    17 C    1.609    15 N    1.196
    17   6 C    3.872 --    16 N    1.609    19 O    1.082    18 C    1.031
    18   6 C    3.987 --    17 C    1.031    37 H    0.983    35 H    0.965
                            36 H    0.963
    19   8 O    2.328 --    17 C    1.082    14 C    1.064
    20   7 N    3.422 --    21 C    1.158     7 C    1.087    38 H    0.898
                            22 O    0.135
    21   6 C    3.877 --    22 O    1.580    20 N    1.158    23 C    0.967
    22   8 O    1.861 --    21 C    1.580    20 N    0.135
    23   6 C    3.943 --    24 O    1.521     5 C    1.272    21 C    0.967
    24   8 O    1.826 --    23 C    1.521     5 C    0.130
    25   1 H    1.014 --     1 C    0.980
    26   1 H    1.016 --     1 C    0.987
    27   1 H    1.014 --     1 C    0.980
    28   1 H    1.003 --     9 C    0.985
    29   1 H    1.010 --     9 C    0.980
    30   1 H    1.004 --     9 C    0.986
    31   1 H    1.010 --    10 C    0.984
    32   1 H    1.014 --    10 C    0.983
    33   1 H    1.008 --    10 C    0.986
    34   1 H    0.955 --    11 N    0.896
    35   1 H    0.997 --    18 C    0.965
    36   1 H    0.997 --    18 C    0.963
    37   1 H    0.999 --    18 C    0.983
    38   1 H    0.945 --    20 N    0.898
 ---------------------------------------------------------------------------

           -------------------------------------------------
          | TOTAL ENERGY              -79.621972076675 Eh   |
          | GRADIENT NORM               0.000890313446 Eh/α |
          | HOMO-LUMO GAP               1.688274497746 eV   |
           -------------------------------------------------

 * finished run on 2023/06/21 at 17:00:49.690
