   * xtb version 6.5.1 (579679a) compiled by 'ehlert@majestix' on 2022-07-11
          program call               : /lustre/hpc/kemi/ree/PhD/git/ReactivityQM/dep/xtb-6.5.1/bin/xtb --gfn 1 /lustre/hpc/kemi/ree/PhD/git/ReactivityQM/calculations/R01/reac02prodN04/conf14/R01_reac02prodN04_conf14_gfn1.xyz --opt --vfukui --chrg 1 --uhf 0 --alpb DMSO

   ID    Z sym.   atoms
    1    6 C      1, 3, 5, 6, 8, 11-14, 17
    2    8 O      2, 4, 7, 9
    3    7 N      10, 15, 16
    4    1 H      18-33

      * Solvation model:               ALPB
        Solvent                        DMSO
        Solvent mass                       7.8130E+01 g/mol
          :  Hamiltonian                  GFN1-xTB          :
 * total energy  :   -57.8325179 Eh     change       -0.2032152E-10 Eh
 * total energy  :   -57.8482970 Eh     change       -0.1577912E-01 Eh
 * total energy  :   -57.8534021 Eh     change       -0.5105085E-02 Eh
 * total energy  :   -57.8543084 Eh     change       -0.9062801E-03 Eh
 * total energy  :   -57.8546668 Eh     change       -0.3583723E-03 Eh
 * total energy  :   -57.8548783 Eh     change       -0.2115737E-03 Eh
 * total energy  :   -57.8552158 Eh     change       -0.3374403E-03 Eh
 * total energy  :   -57.8555670 Eh     change       -0.3512077E-03 Eh
 * total energy  :   -57.8559762 Eh     change       -0.4091660E-03 Eh
 * total energy  :   -57.8561775 Eh     change       -0.2013611E-03 Eh
 * total energy  :   -57.8579038 Eh     change       -0.1747011E-04 Eh
 * total energy  :   -57.8579255 Eh     change       -0.2164127E-04 Eh
 * total energy  :   -57.8579422 Eh     change       -0.1668331E-04 Eh
 * total energy  :   -57.8579564 Eh     change       -0.1423097E-04 Eh
 * total energy  :   -57.8579723 Eh     change       -0.1591889E-04 Eh
 * total energy  :   -57.8579829 Eh     change       -0.1060852E-04 Eh
 * total energy  :   -57.8579939 Eh     change       -0.1099178E-04 Eh
 * total energy  :   -57.8579994 Eh     change       -0.5507501E-05 Eh
 * total energy  :   -57.8580035 Eh     change       -0.4111053E-05 Eh
   *** GEOMETRY OPTIMIZATION CONVERGED AFTER 36 ITERATIONS ***

 final structure:
================
33
 xtb: 6.5.1 (579679a)
C            4.19826929709912       -1.27911448012535       -1.27633360018987
O            2.91130538650607       -0.69289004047523       -1.00285361549075
C            2.84782486018607        0.19071746222730       -0.02273081501365
O            3.77038085651671        0.53679071413236        0.66137058047609
C            1.45179756269590        0.77378615238907        0.11141454818285
C            1.27727672341782        2.12322004646917        0.10470751600158
O            2.29371691335487        2.97244007320510        0.01121889598633
C           -0.06704987086624        2.69111090259210        0.15696167170434
O           -0.31747025706338        3.87275415329067        0.18159972524783
N           -1.06455258520952        1.72194955813613        0.15084910068791
C           -0.89123526724980        0.39109095522161        0.16594162416232
C           -2.14713693393907       -0.46900042148949        0.16858049018233
C           -3.32293114989218        0.26153830157206       -0.50319581205154
C           -2.51164685871907       -0.78635634592619        1.62841030727148
N           -1.87784910603014       -1.70104046198896       -0.55529704745166
N            0.34878289863821       -0.07530621442090        0.20362744410347
C            0.64364251935018       -1.50462855755020        0.39097330270997
H            4.84764863437837       -0.53248709943125       -1.73814442681161
H            4.01574054708004       -2.10453967604026       -1.96042444259402
H            4.64585174133015       -1.63735575125620       -0.34743681093262
H            1.97626575303834        3.89265353358585        0.00178583268216
H           -2.00397177395324        2.09741964456032        0.14283185886841
H           -3.03142275625807        0.64040358233582       -1.48085616985359
H           -3.69534564147323        1.07943981885142        0.11204489956031
H           -4.13216844261089       -0.45477841058728       -0.63527858369033
H           -2.67306119568266        0.13785853541033        2.18052190659248
H           -1.72498379471879       -1.35797200394539        2.11686033769197
H           -3.42985297685882       -1.37084705575110        1.63992029003106
H           -1.86669981797758       -1.51293980043145       -1.54894302461403
H           -2.62298936945653       -2.35884250580429       -0.37126428627127
H            0.74004969956655       -1.97919207731129       -0.58293855986327
H           -0.16011896762441       -1.97235129108195        0.94578681173141
H            1.57193537242459       -1.59353124036307        0.95029005095260

          :  Hamiltonian                  GFN1-xTB          :
         :: total energy             -57.858003519131 Eh    ::
         :: gradient norm              0.000763659141 Eh/a0 ::
         :: HOMO-LUMO gap              2.321085090521 eV    ::
         :: SCC energy               -58.442150459156 Eh    ::
         :: -> Gsolv                  -0.103248588420 Eh    ::
         :: repulsion energy           0.603785557393 Eh    ::

    * Orbital Energies and Occupations

         #    Occupation            Energy/Eh            Energy/eV
      -------------------------------------------------------------
         1        2.0000           -0.8905158             -24.2322
       ...           ...                  ...                  ...
        35        2.0000           -0.5618812             -15.2896
        36        2.0000           -0.5440589             -14.8046
        37        2.0000           -0.5401535             -14.6983
        38        2.0000           -0.5364523             -14.5976
        39        2.0000           -0.5321538             -14.4806
        40        2.0000           -0.5297754             -14.4159
        41        2.0000           -0.5280019             -14.3677
        42        2.0000           -0.5230777             -14.2337
        43        2.0000           -0.5199038             -14.1473
        44        2.0000           -0.5161193             -14.0443
        45        2.0000           -0.4981960             -13.5566
        46        2.0000           -0.4777487             -13.0002
        47        2.0000           -0.4421742             -12.0322 (HOMO)
        48                         -0.3568759              -9.7111 (LUMO)
        49                         -0.3525205              -9.5926
        50                         -0.2905213              -7.9055
        51                         -0.2213625              -6.0236
        52                         -0.1622580              -4.4153
        53                         -0.1560280              -4.2457
        54                         -0.1529629              -4.1623
        55                         -0.1462645              -3.9801
        56                         -0.1326827              -3.6105
        57                         -0.1240257              -3.3749
        58                         -0.1104181              -3.0046
       ...                                ...                  ...
       100                          0.7174475              19.5227
      -------------------------------------------------------------
                  HL-Gap            0.0852983 Eh            2.3211 eV

Wiberg/Mayer (AO) data.
largest (>0.10) Wiberg bond orders for each atom

     #   Z sym  total        # sym  WBO       # sym  WBO       # sym  WBO
 ---------------------------------------------------------------------------
     1   6 C    3.845 --    19 H    0.984    20 H    0.980    18 H    0.978
                             2 O    0.870
     2   8 O    2.220 --     3 C    1.142     1 C    0.870     4 O    0.147
     3   6 C    3.862 --     4 O    1.707     2 O    1.142     5 C    0.943
     4   8 O    1.966 --     3 C    1.707     2 O    0.147
     5   6 C    3.925 --     6 C    1.546    16 N    1.087     3 C    0.943
     6   6 C    3.928 --     5 C    1.546     7 O    1.133     8 C    1.043
     7   8 O    2.102 --     6 C    1.133    21 H    0.794
     8   6 C    3.902 --     9 O    1.654    10 N    1.076     6 C    1.043
     9   8 O    1.961 --     8 C    1.654    10 N    0.118
    10   7 N    3.490 --    11 C    1.276     8 C    1.076    22 H    0.863
                             9 O    0.118
    11   6 C    3.883 --    16 N    1.394    10 N    1.276    12 C    0.973
    12   6 C    3.954 --    15 N    0.994    13 C    0.983    11 C    0.973
                            14 C    0.966
    13   6 C    3.988 --    12 C    0.983    23 H    0.983    25 H    0.977
                            24 H    0.976
    14   6 C    3.985 --    26 H    0.984    27 H    0.979    28 H    0.977
                            12 C    0.966
    15   7 N    2.975 --    12 C    0.994    29 H    0.933    30 H    0.927
    16   7 N    3.583 --    11 C    1.394     5 C    1.087    17 C    0.904
    17   6 C    3.890 --    33 H    0.977    32 H    0.972    31 H    0.968
                            16 N    0.904
    18   1 H    1.002 --     1 C    0.978
    19   1 H    1.006 --     1 C    0.984
    20   1 H    1.003 --     1 C    0.980
    21   1 H    0.823 --     7 O    0.794
    22   1 H    0.916 --    10 N    0.863
    23   1 H    0.996 --    13 C    0.983
    24   1 H    0.996 --    13 C    0.976
    25   1 H    0.997 --    13 C    0.977
    26   1 H    0.998 --    14 C    0.984
    27   1 H    0.999 --    14 C    0.979
    28   1 H    0.994 --    14 C    0.977
    29   1 H    0.946 --    15 N    0.933
    30   1 H    0.941 --    15 N    0.927
    31   1 H    1.011 --    17 C    0.968
    32   1 H    1.019 --    17 C    0.972
    33   1 H    0.996 --    17 C    0.977
 ---------------------------------------------------------------------------

           -------------------------------------------------
          | TOTAL ENERGY              -57.858003519131 Eh   |
          | GRADIENT NORM               0.000763659141 Eh/α |
          | HOMO-LUMO GAP               2.321085090521 eV   |
           -------------------------------------------------

 * finished run on 2023/06/20 at 15:05:24.995
