   * xtb version 6.5.1 (579679a) compiled by 'ehlert@majestix' on 2022-07-11
          program call               : /lustre/hpc/kemi/ree/PhD/git/ReactivityQM/dep/xtb-6.5.1/bin/xtb --gfn 1 /lustre/hpc/kemi/ree/PhD/git/ReactivityQM/calculations/RaltegravirCLI/reac02prodE11/conf03/RaltegravirCLI_reac02prodE11_conf03_gfn1.xyz --opt --vfukui --chrg -1 --uhf 0 --alpb DMSO

   ID    Z sym.   atoms
    1    6 C      1, 3-6, 9, 10, 13-17, 19-21, 23, 24
    2    7 N      2, 7, 8, 12
    3    8 O      11, 22, 25
    4    9 F      18
    5    1 H      26-47

      * Solvation model:               ALPB
        Solvent                        DMSO
        Solvent mass                       7.8130E+01 g/mol
          :  Hamiltonian                  GFN1-xTB          :
 * total energy  :   -80.1888249 Eh     change       -0.1558931E-10 Eh
 * total energy  :   -80.1984322 Eh     change       -0.9607291E-02 Eh
 * total energy  :   -80.2014971 Eh     change       -0.3064889E-02 Eh
 * total energy  :   -80.2024803 Eh     change       -0.9831428E-03 Eh
 * total energy  :   -80.2038055 Eh     change       -0.1325251E-02 Eh
 * total energy  :   -80.2056948 Eh     change       -0.1889313E-02 Eh
 * total energy  :   -80.2032434 Eh     change        0.2451442E-02 Eh
 * total energy  :   -80.2089143 Eh     change       -0.5670886E-02 Eh
 * total energy  :   -80.2110084 Eh     change       -0.2094092E-02 Eh
 * total energy  :   -80.2150105 Eh     change       -0.4002098E-02 Eh
 * total energy  :   -80.2329148 Eh     change       -0.1535051E-04 Eh
 * total energy  :   -80.2329335 Eh     change       -0.1871717E-04 Eh
 * total energy  :   -80.2329399 Eh     change       -0.6393385E-05 Eh
 * total energy  :   -80.2329503 Eh     change       -0.1040317E-04 Eh
 * total energy  :   -80.2329576 Eh     change       -0.7320792E-05 Eh
 * total energy  :   -80.2329668 Eh     change       -0.9126633E-05 Eh
 * total energy  :   -80.2329785 Eh     change       -0.1179037E-04 Eh
 * total energy  :   -80.2329838 Eh     change       -0.5222343E-05 Eh
 * total energy  :   -80.2329850 Eh     change       -0.1227738E-05 Eh
   *** GEOMETRY OPTIMIZATION CONVERGED AFTER 123 ITERATIONS ***

 final structure:
================
47
 xtb: 6.5.1 (579679a)
C           -3.73497793492463       -1.53072136845663        1.22813679803940
N           -2.48553085236820       -1.03087021444624        0.66003035187127
C           -2.41496699033139        0.16154167446873       -0.06991215510672
C           -3.58283370328724        1.14699701544454       -0.12567981904508
C           -3.35046058930154        2.12857874637894       -1.28912120717235
C           -3.64832000311820        1.94058376808929        1.18866682074975
N           -4.86024114612884        0.45867192423207       -0.32922502612758
N           -1.32532091833948        0.56080065150957       -0.61309013567639
C           -0.12959358991640       -0.18243552785850       -0.50224612967595
C            1.06863741521577        0.53451582987539       -0.89804212795837
O            1.08302899392595        1.71212847050926       -1.28972580880401
N            2.25082695336317       -0.17064898634013       -0.78596956704599
C            3.47469430222129        0.35034109206673       -1.35254297395229
C            4.57298696094666        0.50742740515664       -0.32097681926189
C            4.31448088060443        0.38356252080690        1.04140048303054
C            5.32894757697379        0.54298540663100        1.97531484856963
C            6.60137994097892        0.82930150996720        1.51781003434722
F            7.59318514054987        0.98633346681218        2.41634179996691
C            6.89761139995668        0.95918185205567        0.17314221887480
C            5.87007546099995        0.79448010777239       -0.74495568662213
C           -0.17149589799668       -1.48697975479934       -0.03866172219657
O            0.78217808040661       -2.27027136871015        0.22103847796314
C           -1.59040461726524       -2.08177742941232        0.17055157469798
C           -2.09495271731255       -2.67707298770938       -1.16486051819914
O           -1.48058722500066       -3.10511366367664        1.12779726523596
H           -4.42527713063226       -1.89257643553423        0.45948117477800
H           -3.50116160343825       -2.35164799386064        1.90901176152589
H           -4.22969047919771       -0.74526080135553        1.79601211771384
H           -2.43508911524592        2.69911829008188       -1.12947142499869
H           -4.19153494523017        2.81649545350023       -1.36444361703529
H           -3.25837151787844        1.58026077690621       -2.22638541252505
H           -2.69280111076280        2.43340132114499        1.37042304098003
H           -3.87061187129815        1.28801435330757        2.03195866705666
H           -4.42752646168630        2.70007658864635        1.12785418467525
H           -4.91245524419049        0.12040758495937       -1.28222290511809
H           -5.61468130809263        1.11915494533990       -0.20764848458938
H            2.20431619763466       -1.17291019085552       -0.65185818877728
H            3.26044214398210        1.33283128329872       -1.79547318532996
H            3.82707828307020       -0.30706643177434       -2.15736760960948
H            3.30830261689918        0.15337904723914        1.37724799557952
H            5.13985810446329        0.44629672208389        3.03669588539512
H            7.90731388695991        1.18147961086784       -0.14516190451128
H            6.08420624983977        0.88957482347581       -1.80352326733204
H           -0.51524096601270       -3.27946542138765        1.19574956945929
H           -1.35898504464443       -3.39259186319089       -1.52764579170920
H           -3.04149548468846       -3.19362166764453       -1.01672360987801
H           -2.22494212069038       -1.88688813562094       -1.90230897224641

          :  Hamiltonian                  GFN1-xTB          :
         :: total energy             -80.232984999640 Eh    ::
         :: gradient norm              0.000326699533 Eh/a0 ::
         :: HOMO-LUMO gap              1.813251693591 eV    ::
         :: SCC energy               -81.088389956294 Eh    ::
         :: -> Gsolv                  -0.104488077227 Eh    ::
         :: repulsion energy           0.885896272983 Eh    ::

    * Orbital Energies and Occupations

         #    Occupation            Energy/Eh            Energy/eV
      -------------------------------------------------------------
         1        2.0000           -0.8550860             -23.2681
       ...           ...                  ...                  ...
        56        2.0000           -0.4637420             -12.6191
        57        2.0000           -0.4564054             -12.4194
        58        2.0000           -0.4435607             -12.0699
        59        2.0000           -0.4410491             -12.0016
        60        2.0000           -0.4392508             -11.9526
        61        2.0000           -0.4224391             -11.4952
        62        2.0000           -0.4075361             -11.0896
        63        2.0000           -0.3995628             -10.8727
        64        2.0000           -0.3940350             -10.7222
        65        2.0000           -0.3895849             -10.6011
        66        2.0000           -0.3774648             -10.2713
        67        2.0000           -0.3654669              -9.9449
        68        2.0000           -0.3296740              -8.9709 (HOMO)
        69                         -0.2630383              -7.1576 (LUMO)
        70                         -0.2527407              -6.8774
        71                         -0.2239064              -6.0928
        72                         -0.2052017              -5.5838
        73                         -0.1329585              -3.6180
        74                         -0.1141797              -3.1070
        75                         -0.1080751              -2.9409
        76                         -0.1064305              -2.8961
        77                         -0.1047701              -2.8509
        78                         -0.1028781              -2.7995
        79                         -0.0953338              -2.5942
       ...                                ...                  ...
       144                          0.7069162              19.2362
      -------------------------------------------------------------
                  HL-Gap            0.0666358 Eh            1.8133 eV

Wiberg/Mayer (AO) data.
largest (>0.10) Wiberg bond orders for each atom

     #   Z sym  total        # sym  WBO       # sym  WBO       # sym  WBO
 ---------------------------------------------------------------------------
     1   6 C    3.966 --    27 H    0.983    28 H    0.982    26 H    0.980
                             2 N    0.960
     2   7 N    3.240 --     3 C    1.087     1 C    0.960    23 C    0.931
                             8 N    0.138
     3   6 C    3.941 --     8 N    1.674     2 N    1.087     4 C    0.971
     4   6 C    3.963 --     5 C    0.990     6 C    0.988     7 N    0.976
                             3 C    0.971
     5   6 C    3.996 --     4 C    0.990    30 H    0.987    31 H    0.985
                            29 H    0.983
     6   6 C    3.995 --     4 C    0.988    32 H    0.986    34 H    0.985
                            33 H    0.981
     7   7 N    2.979 --     4 C    0.976    35 H    0.948    36 H    0.948
     8   7 N    3.016 --     3 C    1.674     9 C    1.059     2 N    0.138
     9   6 C    3.900 --    21 C    1.398    10 C    1.133     8 N    1.059
                            22 O    0.126
    10   6 C    3.900 --    11 O    1.504    12 N    1.145     9 C    1.133
    11   8 O    1.804 --    10 C    1.504    12 N    0.122
    12   7 N    3.250 --    10 C    1.145    13 C    0.975    37 H    0.890
                            11 O    0.122
    13   6 C    3.969 --    14 C    0.999    12 N    0.975    39 H    0.968
                            38 H    0.955
    14   6 C    3.987 --    15 C    1.418    20 C    1.411    13 C    0.999
    15   6 C    3.994 --    16 C    1.440    14 C    1.418    40 H    0.968
                            19 C    0.110
    16   6 C    3.992 --    15 C    1.440    17 C    1.405    41 H    0.971
                            20 C    0.111
    17   6 C    3.857 --    16 C    1.405    19 C    1.399    18 F    0.915
    18   9 F    1.040 --    17 C    0.915
    19   6 C    3.992 --    20 C    1.447    17 C    1.399    42 H    0.970
                            15 C    0.110
    20   6 C    3.994 --    19 C    1.447    14 C    1.411    43 H    0.973
                            16 C    0.111
    21   6 C    3.935 --    22 O    1.436     9 C    1.398    23 C    0.914
    22   8 O    1.846 --    21 C    1.436     9 C    0.126
    23   6 C    3.883 --    24 C    0.966    25 O    0.964     2 N    0.931
                            21 C    0.914
    24   6 C    3.995 --    47 H    0.987    45 H    0.986    46 H    0.984
                            23 C    0.966
    25   8 O    1.898 --    23 C    0.964    44 H    0.821
    26   1 H    1.024 --     1 C    0.980
    27   1 H    1.021 --     1 C    0.983
    28   1 H    1.029 --     1 C    0.982
    29   1 H    1.024 --     5 C    0.983
    30   1 H    1.007 --     5 C    0.987
    31   1 H    1.014 --     5 C    0.985
    32   1 H    1.009 --     6 C    0.986
    33   1 H    1.009 --     6 C    0.981
    34   1 H    1.003 --     6 C    0.985
    35   1 H    0.967 --     7 N    0.948
    36   1 H    0.963 --     7 N    0.948
    37   1 H    0.965 --    12 N    0.890
    38   1 H    1.022 --    13 C    0.955
    39   1 H    1.007 --    13 C    0.968
    40   1 H    1.012 --    15 C    0.968
    41   1 H    1.000 --    16 C    0.971
    42   1 H    0.999 --    19 C    0.970
    43   1 H    1.000 --    20 C    0.973
    44   1 H    0.891 --    25 O    0.821
    45   1 H    1.009 --    24 C    0.986
    46   1 H    1.007 --    24 C    0.984
    47   1 H    1.008 --    24 C    0.987
 ---------------------------------------------------------------------------

           -------------------------------------------------
          | TOTAL ENERGY              -80.232984999640 Eh   |
          | GRADIENT NORM               0.000326699533 Eh/α |
          | HOMO-LUMO GAP               1.813251693591 eV   |
           -------------------------------------------------

 * finished run on 2023/06/20 at 15:13:38.570
