   * xtb version 6.5.1 (579679a) compiled by 'ehlert@majestix' on 2022-07-11
          program call               : /lustre/hpc/kemi/ree/PhD/git/ReactivityQM/dep/xtb-6.5.1/bin/xtb --gfn 1 /lustre/hpc/kemi/ree/PhD/git/ReactivityQM/calculations/RaltegravirCLI/reac01prodE06/conf08/RaltegravirCLI_reac01prodE06_conf08_gfn1.xyz --opt --vfukui --chrg -1 --uhf 0 --alpb DMSO

   ID    Z sym.   atoms
    1    6 C      1, 3, 5, 8, 9
    2    8 O      2, 10
    3   17 Cl     4
    4    7 N      6, 7
    5    1 H      11-16

      * Solvation model:               ALPB
        Solvent                        DMSO
        Solvent mass                       7.8130E+01 g/mol
          :  Hamiltonian                  GFN1-xTB          :
 * total energy  :   -34.1182051 Eh     change       -0.5258016E-12 Eh
 * total energy  :   -34.1240369 Eh     change       -0.5831785E-02 Eh
 * total energy  :   -34.1270597 Eh     change       -0.3022739E-02 Eh
 * total energy  :   -34.1282346 Eh     change       -0.1174917E-02 Eh
 * total energy  :   -34.1290707 Eh     change       -0.8360830E-03 Eh
 * total energy  :   -34.1294583 Eh     change       -0.3876001E-03 Eh
 * total energy  :   -34.1297540 Eh     change       -0.2957250E-03 Eh
 * total energy  :   -34.1299313 Eh     change       -0.1772848E-03 Eh
 * total energy  :   -34.1300125 Eh     change       -0.8120044E-04 Eh
 * total energy  :   -34.1300626 Eh     change       -0.5012542E-04 Eh
 * total energy  :   -34.1304110 Eh     change       -0.1955215E-04 Eh
 * total energy  :   -34.1304219 Eh     change       -0.1094918E-04 Eh
 * total energy  :   -34.1304350 Eh     change       -0.1310309E-04 Eh
 * total energy  :   -34.1304550 Eh     change       -0.1993287E-04 Eh
 * total energy  :   -34.1304676 Eh     change       -0.1259671E-04 Eh
 * total energy  :   -34.1304641 Eh     change        0.3500561E-05 Eh
 * total energy  :   -34.1304781 Eh     change       -0.1407969E-04 Eh
 * total energy  :   -34.1304835 Eh     change       -0.5405720E-05 Eh
 * total energy  :   -34.1304885 Eh     change       -0.4949029E-05 Eh
   *** GEOMETRY OPTIMIZATION CONVERGED AFTER 33 ITERATIONS ***

 final structure:
================
16
 xtb: 6.5.1 (579679a)
C            2.60903127439879        0.83728927472427        0.25416671761423
O            2.28111760122008       -0.25579648266914       -0.60419783468998
C            1.49564810819841       -1.26329011437498       -0.09308538583799
Cl           2.42442899344588       -2.34395380185786        1.06412131197056
C            0.19655808485207       -0.98853265100358        0.36251400981297
N           -0.60639318017273       -1.77931387936763        1.07268342273867
N           -1.87277381049677       -1.22433577473042        0.99118447822966
C           -1.78483070014002       -0.17295759090294        0.25834351915845
C           -2.87705699705256        0.76037890131655       -0.12402794741004
O           -0.51579678178887        0.05782699291616       -0.18688851362287
H            1.70608744842978        1.35517422344859        0.60047181159134
H            3.18113610998615        0.49412956618779        1.12526437592675
H            3.22081064068551        1.53129801548750       -0.32511742368427
H           -3.82260258366110        0.38844733463560        0.26479470517317
H           -2.94367639743878        0.84839531134603       -1.20891539358656
H           -2.69168981046560        1.75524067484396        0.28319814661612

          :  Hamiltonian                  GFN1-xTB          :
         :: total energy             -34.130488496802 Eh    ::
         :: gradient norm              0.000762844742 Eh/a0 ::
         :: HOMO-LUMO gap              2.977903512104 eV    ::
         :: SCC energy               -34.379199709600 Eh    ::
         :: -> Gsolv                  -0.094084377812 Eh    ::
         :: repulsion energy           0.255842737445 Eh    ::

    * Orbital Energies and Occupations

         #    Occupation            Energy/Eh            Energy/eV
      -------------------------------------------------------------
         1        2.0000           -0.8473198             -23.0567
       ...           ...                  ...                  ...
        16        2.0000           -0.5137374             -13.9795
        17        2.0000           -0.5084889             -13.8367
        18        2.0000           -0.4881496             -13.2832
        19        2.0000           -0.4843708             -13.1804
        20        2.0000           -0.4671648             -12.7122
        21        2.0000           -0.4475166             -12.1775
        22        2.0000           -0.4341017             -11.8125
        23        2.0000           -0.4322649             -11.7625
        24        2.0000           -0.4241716             -11.5423
        25        2.0000           -0.4091749             -11.1342
        26        2.0000           -0.3964408             -10.7877
        27        2.0000           -0.3839580             -10.4480
        28        2.0000           -0.3088646              -8.4046 (HOMO)
        29                         -0.1994287              -5.4267 (LUMO)
        30                         -0.1801800              -4.9029
        31                         -0.1346207              -3.6632
        32                         -0.1199876              -3.2650
        33                         -0.1084920              -2.9522
        34                         -0.0537959              -1.4639
        35                         -0.0529592              -1.4411
        36                         -0.0473956              -1.2897
        37                         -0.0431652              -1.1746
        38                          0.0163235               0.4442
        39                          0.0206986               0.5632
       ...                                ...                  ...
        57                          0.6362500              17.3132
      -------------------------------------------------------------
                  HL-Gap            0.1094359 Eh            2.9779 eV

Wiberg/Mayer (AO) data.
largest (>0.10) Wiberg bond orders for each atom

     #   Z sym  total        # sym  WBO       # sym  WBO       # sym  WBO
 ---------------------------------------------------------------------------
     1   6 C    3.932 --    13 H    0.987    11 H    0.982    12 H    0.982
                             2 O    0.932
     2   8 O    2.057 --     3 C    1.006     1 C    0.932
     3   6 C    3.432 --     5 C    1.339     2 O    1.006     4 Cl   0.804
                             6 N    0.145
     4  17 Cl   0.912 --     3 C    0.804
     5   6 C    3.856 --     6 N    1.406     3 C    1.339    10 O    0.982
     6   7 N    2.863 --     5 C    1.406     7 N    1.141     3 C    0.145
     7   7 N    2.983 --     8 C    1.678     6 N    1.141
     8   6 C    3.890 --     7 N    1.678    10 O    1.020     9 C    1.020
     9   6 C    3.995 --     8 C    1.020    14 H    0.986    15 H    0.975
                            16 H    0.973
    10   8 O    2.220 --     8 C    1.020     5 C    0.982
    11   1 H    1.018 --     1 C    0.982
    12   1 H    1.020 --     1 C    0.982
    13   1 H    1.021 --     1 C    0.987
    14   1 H    1.006 --     9 C    0.986
    15   1 H    1.005 --     9 C    0.975
    16   1 H    1.005 --     9 C    0.973
 ---------------------------------------------------------------------------

           -------------------------------------------------
          | TOTAL ENERGY              -34.130488496802 Eh   |
          | GRADIENT NORM               0.000762844742 Eh/α |
          | HOMO-LUMO GAP               2.977903512104 eV   |
           -------------------------------------------------

 * finished run on 2023/06/20 at 14:54:02.834
