   * xtb version 6.5.1 (579679a) compiled by 'ehlert@majestix' on 2022-07-11
          program call               : /lustre/hpc/kemi/ree/PhD/git/ReactivityQM/dep/xtb-6.5.1/bin/xtb --gfn 1 /lustre/hpc/kemi/ree/PhD/git/ReactivityQM/calculations/RaltegravirCLI/reac02prodN03/conf16/RaltegravirCLI_reac02prodN03_conf16_gfn1.xyz --opt --vfukui --chrg 1 --uhf 0 --alpb DMSO

   ID    Z sym.   atoms
    1    6 C      1, 3-5, 8-12, 14, 15, 17-20, 23, 24
    2    8 O      2, 6, 25
    3    7 N      7, 16, 21, 22
    4    9 F      13
    5    1 H      26-47

      * Solvation model:               ALPB
        Solvent                        DMSO
        Solvent mass                       7.8130E+01 g/mol
          :  Hamiltonian                  GFN1-xTB          :
 * total energy  :   -79.4792980 Eh     change       -0.4533263E-11 Eh
 * total energy  :   -79.4938988 Eh     change       -0.1460079E-01 Eh
 * total energy  :   -79.5014429 Eh     change       -0.7544121E-02 Eh
 * total energy  :   -79.5060622 Eh     change       -0.4619273E-02 Eh
 * total energy  :   -79.5114759 Eh     change       -0.5413778E-02 Eh
 * total energy  :   -79.5151594 Eh     change       -0.3683460E-02 Eh
 * total energy  :   -79.5208857 Eh     change       -0.5726261E-02 Eh
 * total energy  :   -79.5233562 Eh     change       -0.2470542E-02 Eh
 * total energy  :   -79.5264844 Eh     change       -0.3128153E-02 Eh
 * total energy  :   -79.5287238 Eh     change       -0.2239439E-02 Eh
 * total energy  :   -79.5369112 Eh     change       -0.1399593E-04 Eh
 * total energy  :   -79.5369279 Eh     change       -0.1675539E-04 Eh
 * total energy  :   -79.5369444 Eh     change       -0.1652216E-04 Eh
 * total energy  :   -79.5369570 Eh     change       -0.1256846E-04 Eh
 * total energy  :   -79.5369685 Eh     change       -0.1147254E-04 Eh
 * total energy  :   -79.5369814 Eh     change       -0.1287877E-04 Eh
 * total energy  :   -79.5369932 Eh     change       -0.1179474E-04 Eh
 * total energy  :   -79.5369997 Eh     change       -0.6501899E-05 Eh
 * total energy  :   -79.5370011 Eh     change       -0.1481328E-05 Eh
   *** GEOMETRY OPTIMIZATION CONVERGED AFTER 54 ITERATIONS ***

 final structure:
================
47
 xtb: 6.5.1 (579679a)
C           -0.52038005323866       -4.43279478284089       -1.76767342054571
O           -0.00893515711804       -3.30886868317670       -1.02905272530145
C           -0.76236687537829       -2.25295646269351       -0.69497465592273
C           -0.17809529719187       -1.22232031136977        0.00676831556733
C            1.21329760440799       -1.19022814344225        0.42370805563840
O            2.07175310915765       -2.13495190584468        0.15251918783110
N            1.61868324739619       -0.16118784004225        1.11391921171639
C            2.98790159182008        0.03172129593473        1.59333225339109
C            3.75877581586589        0.87496320383115        0.60099292807268
C            3.85468962538614        2.25254704510686        0.77911541413070
C            4.54790601452702        3.03184432643419       -0.13617792899922
C            5.13049762181826        2.40523614040247       -1.22361801807551
F            5.79926329575622        3.14997199299151       -2.11222596966953
C            5.04809637180639        1.03936026228938       -1.43122946468931
C            4.35311539214441        0.27406401827268       -0.50647659311382
N           -0.88182797385888       -0.10806549409260        0.35670652347622
C           -2.14404328594296        0.00204290023665        0.06415714536661
C           -2.81426607226582        1.29223402417284        0.51337731402980
C           -1.74207335793533        2.38280000999692        0.67926397342140
C           -3.50109959959582        1.04839461555343        1.86590186392645
N           -3.79840513951959        1.72314716313093       -0.47054624792628
N           -2.81060954408012       -1.00333890164541       -0.57440606694421
C           -4.24895825022441       -0.94547823921354       -0.86885036459480
C           -2.17925263858133       -2.15347197349704       -1.04217739344299
O           -2.80239312005265       -2.99074496433630       -1.67722036190308
H           -0.87698101043932       -4.11427632742220       -2.74845781842460
H           -1.32328731206495       -4.92134341216239       -1.21366747027809
H            0.32450676682302       -5.11110499271569       -1.87850501101553
H            1.66979477123846       -2.88494517459484       -0.33449045469040
H            0.93142689645900        0.56530097751020        1.28796408690685
H            3.44326620448875       -0.95323178116549        1.71411778165727
H            2.92105490576246        0.52855796052589        2.56276843741484
H            3.38587743632239        2.72012508825832        1.63628935645963
H            4.63136846669707        4.10341868712133       -0.01067766695833
H            5.51428870937110        0.58740957371775       -2.29712107508781
H            4.27044221333511       -0.79659563974100       -0.64660035839644
H           -2.22309973783465        3.32195776992395        0.94689278501098
H           -1.03618183583378        2.11026285869312        1.46176332947135
H           -1.19737791827256        2.51613850652669       -0.25376608029124
H           -2.76762223043322        0.70364899004354        2.59314978368803
H           -3.93847781959742        1.98027836361735        2.22086190444388
H           -4.28888508963349        0.30199085637987        1.78069745135402
H           -3.31718082074692        2.04755322616921       -1.29926200796305
H           -4.31932496105706        2.50338237306189       -0.09250586710633
H           -4.76669236170301       -0.40159490531237       -0.08758945570754
H           -4.62661572103584       -1.96614287759417       -0.92308162189743
H           -4.40156987694992       -0.44470641699821       -1.82365700402851

          :  Hamiltonian                  GFN1-xTB          :
         :: total energy             -79.537001133660 Eh    ::
         :: gradient norm              0.000325836569 Eh/a0 ::
         :: HOMO-LUMO gap              1.657863804243 eV    ::
         :: SCC energy               -80.432366848784 Eh    ::
         :: -> Gsolv                  -0.097451932500 Eh    ::
         :: repulsion energy           0.925402258524 Eh    ::

    * Orbital Energies and Occupations

         #    Occupation            Energy/Eh            Energy/eV
      -------------------------------------------------------------
         1        2.0000           -0.8771666             -23.8689
       ...           ...                  ...                  ...
        55        2.0000           -0.5193371             -14.1319
        56        2.0000           -0.5110920             -13.9075
        57        2.0000           -0.5061725             -13.7737
        58        2.0000           -0.5056252             -13.7588
        59        2.0000           -0.4951833             -13.4746
        60        2.0000           -0.4872554             -13.2589
        61        2.0000           -0.4838008             -13.1649
        62        2.0000           -0.4746231             -12.9152
        63        2.0000           -0.4702541             -12.7963
        64        2.0000           -0.4656482             -12.6709
        65        2.0000           -0.4534784             -12.3398
        66        2.0000           -0.4453933             -12.1198
        67        2.0000           -0.4231151             -11.5135 (HOMO)
        68                         -0.3621897              -9.8557 (LUMO)
        69                         -0.3036625              -8.2631
        70                         -0.2874545              -7.8220
        71                         -0.2839002              -7.7253
        72                         -0.2762241              -7.5164
        73                         -0.1863539              -5.0709
        74                         -0.1613543              -4.3907
        75                         -0.1469921              -3.9999
        76                         -0.1414329              -3.8486
        77                         -0.1403349              -3.8187
        78                         -0.1382741              -3.7626
       ...                                ...                  ...
       144                          0.6739698              18.3397
      -------------------------------------------------------------
                  HL-Gap            0.0609254 Eh            1.6579 eV

Wiberg/Mayer (AO) data.
largest (>0.10) Wiberg bond orders for each atom

     #   Z sym  total        # sym  WBO       # sym  WBO       # sym  WBO
 ---------------------------------------------------------------------------
     1   6 C    3.844 --    28 H    0.983    27 H    0.977    26 H    0.977
                             2 O    0.868
     2   8 O    2.214 --     3 C    1.097     1 C    0.868
     3   6 C    3.909 --     4 C    1.437     2 O    1.097    24 C    1.070
     4   6 C    3.962 --     3 C    1.437    16 N    1.187     5 C    1.092
     5   6 C    3.877 --     7 N    1.475     6 O    1.189     4 C    1.092
     6   8 O    2.155 --     5 C    1.189    29 H    0.763     7 N    0.102
     7   7 N    3.490 --     5 C    1.475     8 C    0.913    30 H    0.871
                             6 O    0.102
     8   6 C    3.914 --     9 C    0.986    32 H    0.971    31 H    0.970
                             7 N    0.913
     9   6 C    3.981 --    10 C    1.420    15 C    1.417     8 C    0.986
    10   6 C    3.993 --    11 C    1.443     9 C    1.420    33 H    0.970
                            14 C    0.110
    11   6 C    3.990 --    10 C    1.443    12 C    1.399    34 H    0.968
                            15 C    0.110
    12   6 C    3.863 --    11 C    1.399    14 C    1.397    13 F    0.935
    13   9 F    1.066 --    12 C    0.935
    14   6 C    3.991 --    15 C    1.447    12 C    1.397    35 H    0.968
                            10 C    0.110
    15   6 C    3.993 --    14 C    1.447     9 C    1.417    36 H    0.970
                            11 C    0.110
    16   7 N    3.046 --    17 C    1.532     4 C    1.187
    17   6 C    3.912 --    16 N    1.532    22 N    1.198    18 C    0.977
    18   6 C    3.964 --    21 N    0.988    19 C    0.987    20 C    0.977
                            17 C    0.977
    19   6 C    3.993 --    18 C    0.987    39 H    0.985    37 H    0.984
                            38 H    0.982
    20   6 C    3.991 --    40 H    0.985    41 H    0.981    42 H    0.979
                            18 C    0.977
    21   7 N    2.977 --    18 C    0.988    43 H    0.939    44 H    0.935
    22   7 N    3.526 --    17 C    1.198    24 C    1.122    23 C    0.920
                            25 O    0.137
    23   6 C    3.910 --    45 H    0.977    46 H    0.975    47 H    0.973
                            22 N    0.920
    24   6 C    3.918 --    25 O    1.579    22 N    1.122     3 C    1.070
    25   8 O    1.922 --    24 C    1.579    22 N    0.137
    26   1 H    1.010 --     1 C    0.977
    27   1 H    1.010 --     1 C    0.977
    28   1 H    1.008 --     1 C    0.983
    29   1 H    0.824 --     6 O    0.763
    30   1 H    0.947 --     7 N    0.871
    31   1 H    1.000 --     8 C    0.970
    32   1 H    0.997 --     8 C    0.971
    33   1 H    0.997 --    10 C    0.970
    34   1 H    0.996 --    11 C    0.968
    35   1 H    0.996 --    14 C    0.968
    36   1 H    1.002 --    15 C    0.970
    37   1 H    1.001 --    19 C    0.984
    38   1 H    1.012 --    19 C    0.982
    39   1 H    1.005 --    19 C    0.985
    40   1 H    1.002 --    20 C    0.985
    41   1 H    0.998 --    20 C    0.981
    42   1 H    1.003 --    20 C    0.979
    43   1 H    0.954 --    21 N    0.939
    44   1 H    0.950 --    21 N    0.935
    45   1 H    1.023 --    23 C    0.977
    46   1 H    1.006 --    23 C    0.975
    47   1 H    1.010 --    23 C    0.973
 ---------------------------------------------------------------------------

           -------------------------------------------------
          | TOTAL ENERGY              -79.537001133660 Eh   |
          | GRADIENT NORM               0.000325836569 Eh/α |
          | HOMO-LUMO GAP               1.657863804243 eV   |
           -------------------------------------------------

 * finished run on 2023/06/20 at 15:19:50.745
