   * xtb version 6.5.1 (579679a) compiled by 'ehlert@majestix' on 2022-07-11
          program call               : /lustre/hpc/kemi/ree/PhD/git/ReactivityQM/dep/xtb-6.5.1/bin/xtb --gfn 1 /lustre/hpc/kemi/ree/PhD/git/ReactivityQM/calculations/R02methylcation/reac01prodE11/conf03/R02methylcation_reac01prodE11_conf03_gfn1.xyz --opt --vfukui --chrg -2 --uhf 0 --alpb DMSO

   ID    Z sym.   atoms
    1    6 C      1, 3, 5, 7-10, 12, 14, 17-19, 22, 24
    2    8 O      2, 4, 13, 20, 23, 25
    3    7 N      6, 11, 15, 16, 21
    4    1 H      26-42

      * Solvation model:               ALPB
        Solvent                        DMSO
        Solvent mass                       7.8130E+01 g/mol
          :  Hamiltonian                  GFN1-xTB          :
 * total energy  :   -83.6539029 Eh     change       -0.3797140E-10 Eh
 * total energy  :   -83.6640359 Eh     change       -0.1013299E-01 Eh
 * total energy  :   -83.6672282 Eh     change       -0.3192352E-02 Eh
 * total energy  :   -83.6677506 Eh     change       -0.5223993E-03 Eh
 * total energy  :   -83.6681091 Eh     change       -0.3585111E-03 Eh
 * total energy  :   -83.6682478 Eh     change       -0.1386660E-03 Eh
 * total energy  :   -83.6683618 Eh     change       -0.1139898E-03 Eh
 * total energy  :   -83.6684256 Eh     change       -0.6380543E-04 Eh
 * total energy  :   -83.6684631 Eh     change       -0.3756337E-04 Eh
 * total energy  :   -83.6684865 Eh     change       -0.2336667E-04 Eh
 * total energy  :   -83.6685192 Eh     change       -0.9289230E-05 Eh
 * total energy  :   -83.6685256 Eh     change       -0.6419724E-05 Eh
 * total energy  :   -83.6685337 Eh     change       -0.8110345E-05 Eh
 * total energy  :   -83.6685435 Eh     change       -0.9778738E-05 Eh
 * total energy  :   -83.6685523 Eh     change       -0.8813016E-05 Eh
 * total energy  :   -83.6685604 Eh     change       -0.8130863E-05 Eh
 * total energy  :   -83.6685687 Eh     change       -0.8246223E-05 Eh
 * total energy  :   -83.6685767 Eh     change       -0.7976151E-05 Eh
 * total energy  :   -83.6685790 Eh     change       -0.2325463E-05 Eh
   *** GEOMETRY OPTIMIZATION CONVERGED AFTER 22 ITERATIONS ***

 final structure:
================
42
 xtb: 6.5.1 (579679a)
C            6.81197881067812        1.66585960005001        0.70443668381373
O            5.54484401964091        1.76317369207858        0.07451916448655
C            4.66776370650498        0.76004207113529        0.35128021042294
O            4.98799440690249       -0.14754643747865        1.11292563999597
C            3.38517009612776        0.87044347231496       -0.32163440498869
N            2.53056362221597       -0.17784680925270       -0.02098311971142
C            1.36371247965911       -0.24074237508833       -0.54691505579463
C            0.46122459725021       -1.43707391920702       -0.30071654519301
C            0.77585456420359       -2.04474059187130        1.07461220121644
C            0.75602915939373       -2.44922465132399       -1.42293638180216
N           -0.92419197534781       -0.97702109958524       -0.37949453376851
C           -1.98431450177336       -1.87971631053074       -0.14396490038240
O           -1.83238520939898       -3.11726239380566       -0.22129806211273
C           -3.21629093061738       -1.24702507244582        0.12381414244046
N           -4.38650932298707       -1.83555613694857        0.33476977942060
N           -5.32099050518249       -0.96199574273187        0.55452623601321
C           -4.70738348695529        0.37468731164457        0.48576526782676
C           -5.35859644195144        1.18726439504718       -0.64617998869643
C           -4.87486198689695        1.08891504167853        1.83697827889163
O           -3.33115029232192        0.15737659542460        0.20695058374216
N            0.91888364249050        0.71120471454006       -1.44084231655688
C            1.65225687443376        1.79923804877381       -1.82537398723026
O            1.18131636161869        2.60344040129596       -2.63023794185347
C            3.03110775147387        1.91443623046445       -1.21480180107627
O            3.74355349873779        2.88722264904412       -1.53508544645795
H            7.32703293158977        0.74763970317764        0.40354907453403
H            7.39373532445014        2.53171141712874        0.39030430298079
H            6.70727937372689        1.66793325252058        1.79424714380673
H            1.84288315334291       -2.25610016653809        1.14343525568703
H            0.50665625307127       -1.34188519370145        1.86259309377054
H            0.21850905266729       -2.96942398173814        1.21594585462696
H            1.82483735056615       -2.66110962051674       -1.44571177663900
H            0.21695958391620       -3.38034414387645       -1.26000453624278
H            0.45838475072577       -2.03133329057061       -2.38426372915338
H           -1.07504418810767       -0.08486239092296        0.07703100648361
H           -5.23431925446335        0.65653632314941       -1.58894817765502
H           -6.42097953728005        1.30945343662285       -0.44517635628908
H           -4.89151204841202        2.16755838737479       -0.72486709181063
H           -4.39263734545341        0.50139457408236        2.61660273050271
H           -4.42046867557540        2.07748524705494        1.80304032853916
H           -5.93337803550425        1.18633339295592        2.06924354104885
H           -0.00351662716048        0.61145737057317       -1.83982336683436

          :  Hamiltonian                  GFN1-xTB          :
         :: total energy             -83.668578989016 Eh    ::
         :: gradient norm              0.000206779352 Eh/a0 ::
         :: HOMO-LUMO gap              1.349212291566 eV    ::
         :: SCC energy               -84.405358421820 Eh    ::
         :: -> Gsolv                  -0.251938240578 Eh    ::
         :: repulsion energy           0.762229612011 Eh    ::

    * Orbital Energies and Occupations

         #    Occupation            Energy/Eh            Energy/eV
      -------------------------------------------------------------
         1        2.0000           -0.7916206             -21.5411
       ...           ...                  ...                  ...
        56        2.0000           -0.4450951             -12.1117
        57        2.0000           -0.4423697             -12.0375
        58        2.0000           -0.4291777             -11.6785
        59        2.0000           -0.4289324             -11.6718
        60        2.0000           -0.4274066             -11.6303
        61        2.0000           -0.4088209             -11.1246
        62        2.0000           -0.4042431             -11.0000
        63        2.0000           -0.3994379             -10.8693
        64        2.0000           -0.3869521             -10.5295
        65        2.0000           -0.3688037             -10.0357
        66        2.0000           -0.3645956              -9.9212
        67        2.0000           -0.3550031              -9.6601
        68        2.0000           -0.3107592              -8.4562 (HOMO)
        69                         -0.2611766              -7.1070 (LUMO)
        70                         -0.2332799              -6.3479
        71                         -0.2245251              -6.1096
        72                         -0.1881589              -5.1201
        73                         -0.1207301              -3.2852
        74                         -0.1183647              -3.2209
        75                         -0.1006285              -2.7382
        76                         -0.1004352              -2.7330
        77                         -0.0969825              -2.6390
        78                         -0.0946133              -2.5746
        79                         -0.0944619              -2.5704
       ...                                ...                  ...
       134                          0.7587011              20.6453
      -------------------------------------------------------------
                  HL-Gap            0.0495826 Eh            1.3492 eV

Wiberg/Mayer (AO) data.
largest (>0.10) Wiberg bond orders for each atom

     #   Z sym  total        # sym  WBO       # sym  WBO       # sym  WBO
 ---------------------------------------------------------------------------
     1   6 C    3.902 --    27 H    0.987    26 H    0.980    28 H    0.980
                             2 O    0.929
     2   8 O    2.155 --     3 C    1.039     1 C    0.929     4 O    0.107
     3   6 C    3.849 --     4 O    1.569     5 C    1.124     2 O    1.039
     4   8 O    1.846 --     3 C    1.569     2 O    0.107
     5   6 C    3.918 --    24 C    1.277     6 N    1.146     3 C    1.124
                            25 O    0.130
     6   7 N    3.026 --     7 C    1.634     5 C    1.146
     7   6 C    3.929 --     6 N    1.634    21 N    1.096     8 C    0.977
     8   6 C    3.958 --     9 C    0.988    10 C    0.980     7 C    0.977
                            11 N    0.954
     9   6 C    3.994 --     8 C    0.988    30 H    0.987    29 H    0.984
                            31 H    0.984
    10   6 C    3.992 --    32 H    0.988    34 H    0.987     8 C    0.980
                            33 H    0.978
    11   7 N    3.180 --    12 C    1.058     8 C    0.954    35 H    0.919
    12   6 C    3.924 --    13 O    1.450    14 C    1.235    11 N    1.058
    13   8 O    1.791 --    12 C    1.450
    14   6 C    3.844 --    15 N    1.393    12 C    1.235    20 O    0.922
                            16 N    0.156
    15   7 N    3.024 --    16 N    1.473    14 C    1.393
    16   7 N    2.879 --    15 N    1.473    17 C    0.981    14 C    0.156
    17   6 C    3.899 --    16 N    0.981    19 C    0.978    18 C    0.978
                            20 O    0.924
    18   6 C    3.994 --    37 H    0.988    38 H    0.987    36 H    0.985
                            17 C    0.978
    19   6 C    3.994 --    41 H    0.988    40 H    0.987    39 H    0.985
                            17 C    0.978
    20   8 O    2.052 --    17 C    0.924    14 C    0.922
    21   7 N    3.435 --    22 C    1.172     7 C    1.096    42 H    0.894
                            23 O    0.136
    22   6 C    3.882 --    23 O    1.566    21 N    1.172    24 C    0.971
    23   8 O    1.846 --    22 C    1.566    21 N    0.136
    24   6 C    3.944 --    25 O    1.508     5 C    1.277    22 C    0.971
    25   8 O    1.814 --    24 C    1.508     5 C    0.130
    26   1 H    1.015 --     1 C    0.980
    27   1 H    1.016 --     1 C    0.987
    28   1 H    1.015 --     1 C    0.980
    29   1 H    1.019 --     9 C    0.984
    30   1 H    1.007 --     9 C    0.987
    31   1 H    1.016 --     9 C    0.984
    32   1 H    1.009 --    10 C    0.988
    33   1 H    1.024 --    10 C    0.978
    34   1 H    1.009 --    10 C    0.987
    35   1 H    0.968 --    11 N    0.919
    36   1 H    1.015 --    18 C    0.985
    37   1 H    1.011 --    18 C    0.988
    38   1 H    1.008 --    18 C    0.987
    39   1 H    1.015 --    19 C    0.985
    40   1 H    1.008 --    19 C    0.987
    41   1 H    1.011 --    19 C    0.988
    42   1 H    0.955 --    21 N    0.894
 ---------------------------------------------------------------------------

           -------------------------------------------------
          | TOTAL ENERGY              -83.668578989016 Eh   |
          | GRADIENT NORM               0.000206779352 Eh/α |
          | HOMO-LUMO GAP               1.349212291566 eV   |
           -------------------------------------------------

 * finished run on 2023/06/21 at 17:22:35.409
