   * xtb version 6.5.1 (579679a) compiled by 'ehlert@majestix' on 2022-07-11
          program call               : /lustre/hpc/kemi/ree/PhD/git/ReactivityQM/dep/xtb-6.5.1/bin/xtb --gfn 1 /lustre/hpc/kemi/ree/PhD/git/ReactivityQM/calculations/R03/reac01prodE02/conf03/R03_reac01prodE02_conf03_gfn1.xyz --opt --vfukui --chrg -1 --uhf 0 --alpb DMSO

   ID    Z sym.   atoms
    1    6 C      1-4, 6-9
    2    9 F      5
    3    7 N      10
    4    1 H      11-21

      * Solvation model:               ALPB
        Solvent                        DMSO
        Solvent mass                       7.8130E+01 g/mol
          :  Hamiltonian                  GFN1-xTB          :
 * total energy  :   -31.4570868 Eh     change       -0.4845901E-11 Eh
 * total energy  :   -31.4623492 Eh     change       -0.5262366E-02 Eh
 * total energy  :   -31.4634352 Eh     change       -0.1086079E-02 Eh
 * total energy  :   -31.4636089 Eh     change       -0.1736862E-03 Eh
 * total energy  :   -31.4637782 Eh     change       -0.1693168E-03 Eh
 * total energy  :   -31.4639204 Eh     change       -0.1421777E-03 Eh
 * total energy  :   -31.4640755 Eh     change       -0.1550326E-03 Eh
 * total energy  :   -31.4642342 Eh     change       -0.1587823E-03 Eh
 * total energy  :   -31.4643388 Eh     change       -0.1045416E-03 Eh
 * total energy  :   -31.4644070 Eh     change       -0.6825595E-04 Eh
 * total energy  :   -31.4649832 Eh     change       -0.1657892E-04 Eh
 * total energy  :   -31.4649978 Eh     change       -0.1464667E-04 Eh
 * total energy  :   -31.4650085 Eh     change       -0.1063415E-04 Eh
 * total energy  :   -31.4650163 Eh     change       -0.7841800E-05 Eh
 * total energy  :   -31.4650240 Eh     change       -0.7659362E-05 Eh
 * total energy  :   -31.4650302 Eh     change       -0.6267057E-05 Eh
 * total energy  :   -31.4650237 Eh     change        0.6540427E-05 Eh
 * total energy  :   -31.4650327 Eh     change       -0.9004082E-05 Eh
 * total energy  :   -31.4650339 Eh     change       -0.1229939E-05 Eh
   *** GEOMETRY OPTIMIZATION CONVERGED AFTER 40 ITERATIONS ***

 final structure:
================
21
 xtb: 6.5.1 (579679a)
C           -0.65630089088664        1.97647102095676        0.49537030619525
C           -0.47024520119695        0.72360923290127       -0.42082075685190
C           -1.80832228144658        0.07062014869161       -0.70091272804759
C           -2.15767270467655       -1.05885731253131       -0.03408615990092
F           -3.43360626377268       -1.54094052575287       -0.23556909960270
C           -1.32045411993674       -1.82415466156506        0.78340404597031
C            0.03870536610416       -1.42446351301292        0.80104372176562
C            0.48510853307575       -0.27971313831668        0.21198328738272
C            1.95592603285258        0.04141704762077        0.11738145999694
N            2.42285348873781       -0.03076163663350       -1.28846429815159
H            0.29353088679646        2.49219214099995        0.64557505384960
H           -1.04734435561290        1.67468491543881        1.46829123805440
H           -1.36120227210543        2.67319008248459        0.03800907855314
H           -0.03273629104772        1.10251654075148       -1.36631202489056
H           -2.49619003268452        0.56592183483372       -1.37682394533684
H           -1.66180548849052       -2.73333684274028        1.25866696383906
H            0.75838360169844       -2.08458739713031        1.28666845518265
H            2.16671830553171        1.06267326443927        0.46800816273135
H            2.54357558114063       -0.65116322383192        0.74389372381459
H            2.38664245396886       -0.99816549132404       -1.58690234321568
H            3.39443765195110        0.24284751372060       -1.30840314133782

          :  Hamiltonian                  GFN1-xTB          :
         :: total energy             -31.465033930607 Eh    ::
         :: gradient norm              0.000303798210 Eh/a0 ::
         :: HOMO-LUMO gap              2.698768013247 eV    ::
         :: SCC energy               -31.836934323386 Eh    ::
         :: -> Gsolv                  -0.083602301759 Eh    ::
         :: repulsion energy           0.382134476793 Eh    ::

    * Orbital Energies and Occupations

         #    Occupation            Energy/Eh            Energy/eV
      -------------------------------------------------------------
         1        2.0000           -0.7890978             -21.4724
       ...           ...                  ...                  ...
        16        2.0000           -0.4873522             -13.2615
        17        2.0000           -0.4783255             -13.0159
        18        2.0000           -0.4690207             -12.7627
        19        2.0000           -0.4634830             -12.6120
        20        2.0000           -0.4553293             -12.3901
        21        2.0000           -0.4446857             -12.1005
        22        2.0000           -0.4341551             -11.8140
        23        2.0000           -0.4118311             -11.2065
        24        2.0000           -0.4039226             -10.9913
        25        2.0000           -0.4006605             -10.9025
        26        2.0000           -0.3737314             -10.1698
        27        2.0000           -0.3597128              -9.7883
        28        2.0000           -0.2773253              -7.5464 (HOMO)
        29                         -0.1781474              -4.8476 (LUMO)
        30                         -0.1092469              -2.9728
        31                         -0.0863523              -2.3498
        32                         -0.0801986              -2.1823
        33                         -0.0687506              -1.8708
        34                         -0.0571719              -1.5557
        35                         -0.0486408              -1.3236
        36                         -0.0382485              -1.0408
        37                         -0.0300962              -0.8190
        38                         -0.0215535              -0.5865
        39                         -0.0175072              -0.4764
       ...                                ...                  ...
        62                          0.6606228              17.9765
      -------------------------------------------------------------
                  HL-Gap            0.0991779 Eh            2.6988 eV

Wiberg/Mayer (AO) data.
largest (>0.10) Wiberg bond orders for each atom

     #   Z sym  total        # sym  WBO       # sym  WBO       # sym  WBO
 ---------------------------------------------------------------------------
     1   6 C    3.991 --    12 H    0.989    13 H    0.988    11 H    0.986
                             2 C    0.965
     2   6 C    3.992 --     3 C    1.007     8 C    0.997    14 H    0.970
                             1 C    0.965
     3   6 C    3.898 --     4 C    1.580     2 C    1.007    15 H    0.975
                             6 C    0.112
     4   6 C    3.823 --     3 C    1.580     6 C    1.306     5 F    0.851
     5   9 F    0.958 --     4 C    0.851
     6   6 C    3.871 --     4 C    1.306     7 C    1.280    16 H    0.977
                             3 C    0.112     8 C    0.105
     7   6 C    3.994 --     8 C    1.631     6 C    1.280    17 H    0.971
     8   6 C    3.934 --     7 C    1.631     9 C    1.009     2 C    0.997
                             6 C    0.105
     9   6 C    3.969 --     8 C    1.009    18 H    0.976    19 H    0.976
                            10 N    0.967
    10   7 N    2.940 --     9 C    0.967    20 H    0.959    21 H    0.958
    11   1 H    1.013 --     1 C    0.986
    12   1 H    1.022 --     1 C    0.989
    13   1 H    1.016 --     1 C    0.988
    14   1 H    1.027 --     2 C    0.970
    15   1 H    1.004 --     3 C    0.975
    16   1 H    1.005 --     6 C    0.977
    17   1 H    1.007 --     7 C    0.971
    18   1 H    1.022 --     9 C    0.976
    19   1 H    1.009 --     9 C    0.976
    20   1 H    0.978 --    10 N    0.959
    21   1 H    0.972 --    10 N    0.958
 ---------------------------------------------------------------------------

           -------------------------------------------------
          | TOTAL ENERGY              -31.465033930607 Eh   |
          | GRADIENT NORM               0.000303798210 Eh/α |
          | HOMO-LUMO GAP               2.698768013247 eV   |
           -------------------------------------------------

 * finished run on 2023/06/20 at 15:12:58.639
