   * xtb version 6.5.1 (579679a) compiled by 'ehlert@majestix' on 2022-07-11
          program call               : /lustre/hpc/kemi/ree/PhD/git/ReactivityQM/dep/xtb-6.5.1/bin/xtb --gfn 1 /lustre/hpc/kemi/ree/PhD/git/ReactivityQM/calculations/R02methylcation/reac01prodE14/conf18/R02methylcation_reac01prodE14_conf18_gfn1.xyz --opt --vfukui --chrg -2 --uhf 0 --alpb DMSO

   ID    Z sym.   atoms
    1    6 C      1, 3, 5, 7-10, 12, 14, 17, 18, 21, 23, 24
    2    8 O      2, 4, 13, 19, 22, 25
    3    7 N      6, 11, 15, 16, 20
    4    1 H      26-42

      * Solvation model:               ALPB
        Solvent                        DMSO
        Solvent mass                       7.8130E+01 g/mol
          :  Hamiltonian                  GFN1-xTB          :
 * total energy  :   -83.5851062 Eh     change       -0.5376251E-09 Eh
 * total energy  :   -83.6011798 Eh     change       -0.1607363E-01 Eh
 * total energy  :   -83.6076264 Eh     change       -0.6446652E-02 Eh
 * total energy  :   -83.6087726 Eh     change       -0.1146173E-02 Eh
 * total energy  :   -83.6094032 Eh     change       -0.6305385E-03 Eh
 * total energy  :   -83.6097347 Eh     change       -0.3315029E-03 Eh
 * total energy  :   -83.6100188 Eh     change       -0.2841595E-03 Eh
 * total energy  :   -83.6102535 Eh     change       -0.2347144E-03 Eh
 * total energy  :   -83.6104626 Eh     change       -0.2090698E-03 Eh
 * total energy  :   -83.6106827 Eh     change       -0.2201365E-03 Eh
 * total energy  :   -83.6119352 Eh     change       -0.1712467E-04 Eh
 * total energy  :   -83.6119469 Eh     change       -0.1167559E-04 Eh
 * total energy  :   -83.6119620 Eh     change       -0.1511452E-04 Eh
 * total energy  :   -83.6119818 Eh     change       -0.1978631E-04 Eh
 * total energy  :   -83.6119942 Eh     change       -0.1241200E-04 Eh
 * total energy  :   -83.6120026 Eh     change       -0.8359203E-05 Eh
 * total energy  :   -83.6120097 Eh     change       -0.7134881E-05 Eh
 * total energy  :   -83.6120154 Eh     change       -0.5673321E-05 Eh
 * total energy  :   -83.6120193 Eh     change       -0.3954227E-05 Eh
   *** GEOMETRY OPTIMIZATION CONVERGED AFTER 37 ITERATIONS ***

 final structure:
================
42
 xtb: 6.5.1 (579679a)
C           -6.13806257205559       -0.84887877515180        1.53961709968837
O           -5.03130395482451       -0.10232933777888        1.08569814943022
C           -3.89199720420146       -0.86466309382808        0.76458099804996
O           -3.96661483646796       -2.10391271910143        0.92078203278283
C           -2.79549072625945       -0.14452303574284        0.26602342524182
N           -1.68936055047734       -0.93602947544584        0.04253218375818
C           -0.62558082584098       -0.48668276916464       -0.51114632549196
C            0.59523836417328       -1.36385048204197       -0.69687910317436
C            0.75502520551788       -1.76978134711570       -2.17192175379408
C            0.47131627571901       -2.60526020482772        0.19308079736155
N            1.76731447604123       -0.56915925155797       -0.28801645142774
C            3.03178577552006       -1.02240848769127       -0.27450616535487
O            3.39346584854109       -2.15656102616916       -0.57131339157560
C            3.97031707251209        0.03470306010094        0.17568737485590
N            3.64550789623764        1.24020184778516        0.54995298847497
N            4.80619897739066        1.87175946493870        0.89405112785138
C            5.76155495401996        1.01664028620906        0.70929263853878
C            7.20891711593534        1.22201730007516        0.93976086553852
O            5.30511723327750       -0.16381060453798        0.25824847166343
N           -0.54030396516801        0.82362037599689       -1.03585765478519
C           -1.63712519315422        1.64702157020073       -1.00907943713242
O           -1.69993487463635        2.58147786135850       -1.81685239635337
C           -2.62168900339798        1.40741369400802        0.18780708502744
C           -3.96276305148514        2.10534743088380       -0.22508473874225
O           -2.06124497992364        1.95179200810787        1.28030676003761
H           -6.94731737296171       -0.14590534451663        1.74539607893647
H           -5.90325784055794       -1.40256811585719        2.45839297433409
H           -6.47497892223782       -1.56961067314433        0.78311250709771
H           -0.13998848670880       -2.29629330520898       -2.50069719823984
H            1.61642494638542       -2.42315095607947       -2.30013098667414
H            0.89228559701930       -0.88549751058514       -2.79222572692230
H           -0.47151785162709       -3.10565907848402       -0.02830070119899
H            1.29228956675926       -3.29620636053820        0.01434415254960
H            0.47205676826387       -2.31256874151406        1.24324692570873
H            1.61609468279574        0.40967366111366       -0.07570090674910
H            7.57851588275077        0.50239100569197        1.66968206187049
H            7.76106558482281        1.07418155422417        0.01236394533056
H            7.37961511180378        2.23083533421577        1.30629442567645
H            0.10945368616060        0.98012114768233       -1.78827024607285
H           -4.48694232204096        1.54307717093432       -0.99860281215679
H           -4.60434968860336        2.21234361136515        0.64740543336740
H           -3.73973479902126        3.10454831119324       -0.60307850732876

          :  Hamiltonian                  GFN1-xTB          :
         :: total energy             -83.612019325555 Eh    ::
         :: gradient norm              0.000347285084 Eh/a0 ::
         :: HOMO-LUMO gap              0.165597732632 eV    ::
         :: SCC energy               -84.347042349355 Eh    ::
         :: -> Gsolv                  -0.300335397437 Eh    ::
         :: repulsion energy           0.760698225270 Eh    ::

    * Orbital Energies and Occupations

         #    Occupation            Energy/Eh            Energy/eV
      -------------------------------------------------------------
         1        2.0000           -0.8475117             -23.0620
       ...           ...                  ...                  ...
        56        2.0000           -0.4430090             -12.0549
        57        2.0000           -0.4371108             -11.8944
        58        2.0000           -0.4321304             -11.7589
        59        2.0000           -0.4258575             -11.5882
        60        2.0000           -0.4217441             -11.4762
        61        2.0000           -0.4158119             -11.3148
        62        2.0000           -0.4008533             -10.9078
        63        2.0000           -0.3930551             -10.6956
        64        2.0000           -0.3842988             -10.4573
        65        2.0000           -0.3709698             -10.0946
        66        2.0000           -0.3081942              -8.3864
        67        1.9929           -0.3003832              -8.1738
        68        1.9253           -0.2981112              -8.1120 (HOMO)
        69        0.0817           -0.2920256              -7.9464 (LUMO)
        70                         -0.2438023              -6.6342
        71                         -0.2126664              -5.7869
        72                         -0.1788056              -4.8655
        73                         -0.1740250              -4.7355
        74                         -0.1374930              -3.7414
        75                         -0.1141165              -3.1053
        76                         -0.1060750              -2.8864
        77                         -0.1045123              -2.8439
        78                         -0.0983963              -2.6775
        79                         -0.0809472              -2.2027
       ...                                ...                  ...
       134                          0.7263680              19.7655
      -------------------------------------------------------------
                  HL-Gap            0.0060856 Eh            0.1656 eV

Wiberg/Mayer (AO) data.
largest (>0.10) Wiberg bond orders for each atom

     #   Z sym  total        # sym  WBO       # sym  WBO       # sym  WBO
 ---------------------------------------------------------------------------
     1   6 C    3.922 --    26 H    0.987    27 H    0.980    28 H    0.980
                             2 O    0.953
     2   8 O    2.081 --     1 C    0.953     3 C    0.931
     3   6 C    3.847 --     4 O    1.444     5 C    1.334     2 O    0.931
     4   8 O    1.742 --     3 C    1.444     5 C    0.108
     5   6 C    3.821 --     3 C    1.334     6 N    1.185    23 C    0.917
                             4 O    0.108
     6   7 N    3.053 --     7 C    1.625     5 C    1.185
     7   6 C    3.892 --     6 N    1.625    20 N    0.998     8 C    0.978
     8   6 C    3.924 --    10 C    0.995     9 C    0.982     7 C    0.978
                            11 N    0.905
     9   6 C    3.989 --    29 H    0.986    31 H    0.984    30 H    0.983
                             8 C    0.982
    10   6 C    3.994 --     8 C    0.995    34 H    0.986    33 H    0.985
                            32 H    0.983
    11   7 N    3.347 --    12 C    1.272     8 C    0.905    35 H    0.898
                            13 O    0.178
    12   6 C    3.895 --    13 O    1.548    11 N    1.272    14 C    0.999
    13   8 O    1.856 --    12 C    1.548    11 N    0.178
    14   6 C    3.832 --    15 N    1.585    19 O    1.048    12 C    0.999
    15   7 N    2.967 --    14 C    1.585    16 N    1.189
    16   7 N    2.980 --    17 C    1.618    15 N    1.189
    17   6 C    3.865 --    16 N    1.618    19 O    1.076    18 C    1.029
    18   6 C    3.989 --    17 C    1.029    38 H    0.984    36 H    0.966
                            37 H    0.966
    19   8 O    2.301 --    17 C    1.076    14 C    1.048
    20   7 N    3.340 --    21 C    1.167     7 C    0.998    39 H    0.914
                            22 O    0.115
    21   6 C    3.810 --    22 O    1.564    20 N    1.167    23 C    0.878
    22   8 O    1.831 --    21 C    1.564    20 N    0.115
    23   6 C    3.962 --    25 O    1.122    24 C    0.947     5 C    0.917
                            21 C    0.878
    24   6 C    3.989 --    40 H    0.990    41 H    0.987    42 H    0.986
                            23 C    0.947
    25   8 O    1.409 --    23 C    1.122
    26   1 H    1.020 --     1 C    0.987
    27   1 H    1.023 --     1 C    0.980
    28   1 H    1.022 --     1 C    0.980
    29   1 H    1.008 --     9 C    0.986
    30   1 H    1.011 --     9 C    0.983
    31   1 H    1.007 --     9 C    0.984
    32   1 H    1.023 --    10 C    0.983
    33   1 H    1.015 --    10 C    0.985
    34   1 H    1.012 --    10 C    0.986
    35   1 H    0.967 --    11 N    0.898
    36   1 H    0.998 --    18 C    0.966
    37   1 H    0.998 --    18 C    0.966
    38   1 H    1.000 --    18 C    0.984
    39   1 H    0.967 --    20 N    0.914
    40   1 H    1.018 --    24 C    0.990
    41   1 H    1.033 --    24 C    0.987
    42   1 H    1.026 --    24 C    0.986
 ---------------------------------------------------------------------------

           -------------------------------------------------
          | TOTAL ENERGY              -83.612019325555 Eh   |
          | GRADIENT NORM               0.000347285084 Eh/α |
          | HOMO-LUMO GAP               0.165597732632 eV   |
           -------------------------------------------------

 * finished run on 2023/06/21 at 17:28:51.881
