   * xtb version 6.5.1 (579679a) compiled by 'ehlert@majestix' on 2022-07-11
          program call               : /lustre/hpc/kemi/ree/PhD/git/ReactivityQM/dep/xtb-6.5.1/bin/xtb --gfn 1 /lustre/hpc/kemi/ree/PhD/git/ReactivityQM/calculations/R03/reac02prodN08/conf11/R03_reac02prodN08_conf11_gfn1.xyz --opt --vfukui --chrg 1 --uhf 0 --alpb DMSO

   ID    Z sym.   atoms
    1    6 C      1, 3, 4, 6, 8-11, 13, 15, 18, 19, 22, 23, 25
    2    8 O      2, 5, 14, 20, 24, 26
    3    7 N      7, 12, 16, 17, 21
    4    1 H      27-46

      * Solvation model:               ALPB
        Solvent                        DMSO
        Solvent mass                       7.8130E+01 g/mol
          :  Hamiltonian                  GFN1-xTB          :
 * total energy  :   -86.1860563 Eh     change       -0.2126370E-09 Eh
 * total energy  :   -86.2023862 Eh     change       -0.1632983E-01 Eh
 * total energy  :   -86.2121398 Eh     change       -0.9753592E-02 Eh
 * total energy  :   -86.2154089 Eh     change       -0.3269155E-02 Eh
 * total energy  :   -86.2177067 Eh     change       -0.2297775E-02 Eh
 * total energy  :   -86.2193431 Eh     change       -0.1636371E-02 Eh
 * total energy  :   -86.2208498 Eh     change       -0.1506764E-02 Eh
 * total energy  :   -86.2224173 Eh     change       -0.1567496E-02 Eh
 * total energy  :   -86.2243165 Eh     change       -0.1899149E-02 Eh
 * total energy  :   -86.2269126 Eh     change       -0.2596116E-02 Eh
 * total energy  :   -86.3085709 Eh     change       -0.5474567E-04 Eh
 * total energy  :   -86.3086036 Eh     change       -0.3268777E-04 Eh
 * total energy  :   -86.3086285 Eh     change       -0.2493626E-04 Eh
 * total energy  :   -86.3086391 Eh     change       -0.1058754E-04 Eh
 * total energy  :   -86.3086586 Eh     change       -0.1955385E-04 Eh
 * total energy  :   -86.3086674 Eh     change       -0.8752125E-05 Eh
 * total energy  :   -86.3086623 Eh     change        0.5065995E-05 Eh
 * total energy  :   -86.3086728 Eh     change       -0.1042279E-04 Eh
 * total energy  :   -86.3086770 Eh     change       -0.4213368E-05 Eh
   *** GEOMETRY OPTIMIZATION CONVERGED AFTER 68 ITERATIONS ***

 final structure:
================
46
 xtb: 6.5.1 (579679a)
C           -3.50123339545445        1.30078242123286        2.94450527623631
O           -3.07758596928002        0.95157932439805        1.60663342049753
C           -3.72939832848381        0.03398066764047        0.97287604735868
C           -4.22568018576541        0.60690779983901       -1.35480101870304
O           -4.66774495970584       -0.60773698917716        1.32881969913444
C           -3.15310053114132       -0.13496779182779       -0.51671934981836
N           -1.91376301858853        0.54094123273622       -0.61755482063563
C           -0.79969130875742       -0.02766941259035       -0.88381197152135
C            0.40418048935059        0.89862360547224       -0.99488649153610
C            0.05162845461451        2.27031587263109       -0.40337156196887
C            0.76457102564091        1.04543233992866       -2.48152781168012
N            1.50738907999364        0.32829446909729       -0.21983685411841
C            2.75423834353153        0.87640839390328       -0.20589562449821
O            3.13874587692485        1.77440486622630       -0.92637124162054
C            3.60830218832649        0.19324937557984        0.79324760020682
N            3.24229279829593       -0.76680586933912        1.59013283081333
N            4.33572138381910       -1.10302843931376        2.32644620870740
C            5.30170440848559       -0.32611448659070        1.93262296810213
C            6.69647591187989       -0.29469414621547        2.42457168599323
O            4.90199171741356        0.51395265369802        0.96772078444391
N           -0.69043689680987       -1.39543500415637       -1.13010657127295
C            0.53664141970601       -2.11488346601714       -1.49222905986015
C           -1.78106856218038       -2.21339636109400       -1.09064128321573
O           -1.75242638328604       -3.41138174946262       -1.30222630596284
C           -3.07272400824964       -1.55407745296717       -0.79862571859241
O           -4.11107883976425       -2.29214997456360       -0.78094461027346
H           -3.23428599277242        2.34652724492759        3.08164183362383
H           -2.96378313456070        0.67052385943613        3.65327424672839
H           -4.57704823819113        1.15387550194616        3.04325768760867
H           -4.27768003948784        1.64046493974955       -1.02071151664349
H           -5.18861752345162        0.11742059820217       -1.22677313403348
H           -3.92740667627519        0.57822077476773       -2.39997525896404
H            0.92655937371682        2.91649898741733       -0.45088626854326
H           -0.75909504496961        2.72265793855672       -0.97037537144648
H           -0.25966097245544        2.15887903200838        0.63348914462379
H           -0.13166748915465        1.32097732995941       -3.03488450021608
H            1.15739167938626        0.11654247582722       -2.88693244548535
H            1.51054432207264        1.82789426893357       -2.60611169556757
H            1.26452126112262       -0.26605620289054        0.55824537593007
H            7.38735843239520       -0.35916076165892        1.58439480826839
H            6.86403755277245       -1.12604185357979        3.10513498227814
H            6.88515228588135        0.64436440742143        2.94605459345306
H            1.39841807640387       -1.46266912305022       -1.43820209664947
H            0.41090580261367       -2.50496201065711       -2.50233160913168
H            0.64821861241002       -2.95030005291501       -0.80092442924140
H           -3.90181099797892       -3.24025223346968       -0.95541357280746

          :  Hamiltonian                  GFN1-xTB          :
         :: total energy             -86.308676967902 Eh    ::
         :: gradient norm              0.000366352443 Eh/a0 ::
         :: HOMO-LUMO gap              0.841601528956 eV    ::
         :: SCC energy               -87.142411508984 Eh    ::
         :: -> Gsolv                  -0.106763583457 Eh    ::
         :: repulsion energy           0.863653410352 Eh    ::

    * Orbital Energies and Occupations

         #    Occupation            Energy/Eh            Energy/eV
      -------------------------------------------------------------
         1        2.0000           -0.9160432             -24.9268
       ...           ...                  ...                  ...
        58        2.0000           -0.5299138             -14.4197
        59        2.0000           -0.5276314             -14.3576
        60        2.0000           -0.5227671             -14.2252
        61        2.0000           -0.5145073             -14.0005
        62        2.0000           -0.5128176             -13.9545
        63        2.0000           -0.5096431             -13.8681
        64        2.0000           -0.4930029             -13.4153
        65        2.0000           -0.4899258             -13.3316
        66        2.0000           -0.4878211             -13.2743
        67        2.0000           -0.4759604             -12.9515
        68        2.0000           -0.4697295             -12.7820
        69        2.0000           -0.4599416             -12.5156
        70        2.0000           -0.4569155             -12.4333 (HOMO)
        71        0.0000           -0.4259872             -11.5917 (LUMO)
        72                         -0.3299542              -8.9785
        73                         -0.3216294              -8.7520
        74                         -0.3102339              -8.4419
        75                         -0.2693034              -7.3281
        76                         -0.2628548              -7.1526
        77                         -0.2091120              -5.6902
        78                         -0.1625716              -4.4238
        79                         -0.1598111              -4.3487
        80                         -0.1571613              -4.2766
        81                         -0.1519904              -4.1359
       ...                                ...                  ...
       144                          0.7362930              20.0356
      -------------------------------------------------------------
                  HL-Gap            0.0309283 Eh            0.8416 eV

Wiberg/Mayer (AO) data.
largest (>0.10) Wiberg bond orders for each atom

     #   Z sym  total        # sym  WBO       # sym  WBO       # sym  WBO
 ---------------------------------------------------------------------------
     1   6 C    3.824 --    29 H    0.980    27 H    0.980    28 H    0.976
                             2 O    0.845
     2   8 O    2.264 --     3 C    1.219     1 C    0.845     5 O    0.148
     3   6 C    3.859 --     5 O    1.725     2 O    1.219     6 C    0.759
     4   6 C    3.955 --    31 H    0.981    30 H    0.980    32 H    0.977
                             6 C    0.891
     5   8 O    2.053 --     3 C    1.725     2 O    0.148
     6   6 C    3.966 --    25 C    1.106     7 N    1.034     4 C    0.891
                             3 C    0.759
     7   7 N    3.036 --     8 C    1.689     6 C    1.034
     8   6 C    3.912 --     7 N    1.689    21 N    1.091     9 C    0.975
     9   6 C    3.932 --    10 C    0.988    11 C    0.975     8 C    0.975
                            12 N    0.930
    10   6 C    3.986 --     9 C    0.988    35 H    0.984    34 H    0.983
                            33 H    0.981
    11   6 C    3.984 --    36 H    0.984    37 H    0.981     9 C    0.975
                            38 H    0.974
    12   7 N    3.316 --    13 C    1.207     9 C    0.930    39 H    0.894
                            14 O    0.166
    13   6 C    3.911 --    14 O    1.620    12 N    1.207    15 C    0.995
    14   8 O    1.933 --    13 C    1.620    12 N    0.166
    15   6 C    3.878 --    16 N    1.603    20 O    1.066    13 C    0.995
    16   7 N    3.019 --    15 C    1.603    17 N    1.207
    17   7 N    2.981 --    18 C    1.596    16 N    1.207
    18   6 C    3.868 --    17 N    1.596    20 O    1.085    19 C    1.032
    19   6 C    3.985 --    18 C    1.032    41 H    0.982    40 H    0.965
                            42 H    0.959
    20   8 O    2.335 --    18 C    1.085    15 C    1.066
    21   7 N    3.530 --    23 C    1.194     8 C    1.091    22 C    0.912
                            24 O    0.171
    22   6 C    3.894 --    43 H    0.974    45 H    0.967    44 H    0.965
                            21 N    0.912
    23   6 C    3.927 --    24 O    1.602    21 N    1.194    25 C    1.000
    24   8 O    1.962 --    23 C    1.602    21 N    0.171
    25   6 C    3.814 --    26 O    1.370     6 C    1.106    23 C    1.000
    26   8 O    2.295 --    25 C    1.370    46 H    0.742
    27   1 H    1.002 --     1 C    0.980
    28   1 H    0.999 --     1 C    0.976
    29   1 H    0.999 --     1 C    0.980
    30   1 H    0.994 --     4 C    0.980
    31   1 H    0.995 --     4 C    0.981
    32   1 H    0.993 --     4 C    0.977
    33   1 H    1.003 --    10 C    0.981
    34   1 H    1.007 --    10 C    0.983
    35   1 H    1.005 --    10 C    0.984
    36   1 H    1.000 --    11 C    0.984
    37   1 H    0.999 --    11 C    0.981
    38   1 H    1.009 --    11 C    0.974
    39   1 H    0.949 --    12 N    0.894
    40   1 H    0.996 --    19 C    0.965
    41   1 H    0.998 --    19 C    0.982
    42   1 H    0.996 --    19 C    0.959
    43   1 H    1.007 --    22 C    0.974
    44   1 H    0.994 --    22 C    0.965
    45   1 H    0.996 --    22 C    0.967
    46   1 H    0.790 --    26 O    0.742
 ---------------------------------------------------------------------------

           -------------------------------------------------
          | TOTAL ENERGY              -86.308676967902 Eh   |
          | GRADIENT NORM               0.000366352443 Eh/α |
          | HOMO-LUMO GAP               0.841601528956 eV   |
           -------------------------------------------------

 * finished run on 2023/06/20 at 15:43:08.043
