   * xtb version 6.5.1 (579679a) compiled by 'ehlert@majestix' on 2022-07-11
          program call               : /lustre/hpc/kemi/ree/PhD/git/ReactivityQM/dep/xtb-6.5.1/bin/xtb --gfn 1 /lustre/hpc/kemi/ree/PhD/git/ReactivityQM/calculations/R02/reac01prodN01/conf08/R02_reac01prodN01_conf08_gfn1.xyz --opt --vfukui --chrg 1 --uhf 0 --alpb DMSO

   ID    Z sym.   atoms
    1    6 C      1, 3, 5, 7-10, 12, 14, 17, 18, 20, 22, 24
    2    8 O      2, 4, 13, 19, 23, 25
    3    7 N      6, 11, 15, 16, 21
    4    1 H      26-43

      * Solvation model:               ALPB
        Solvent                        DMSO
        Solvent mass                       7.8130E+01 g/mol
          :  Hamiltonian                  GFN1-xTB          :
 * total energy  :   -83.0841002 Eh     change       -0.2629008E-11 Eh
 * total energy  :   -83.1026251 Eh     change       -0.1852490E-01 Eh
 * total energy  :   -83.1110677 Eh     change       -0.8442616E-02 Eh
 * total energy  :   -83.1135640 Eh     change       -0.2496306E-02 Eh
 * total energy  :   -83.1152386 Eh     change       -0.1674598E-02 Eh
 * total energy  :   -83.1160545 Eh     change       -0.8159097E-03 Eh
 * total energy  :   -83.1166429 Eh     change       -0.5883961E-03 Eh
 * total energy  :   -83.1170260 Eh     change       -0.3831184E-03 Eh
 * total energy  :   -83.1172482 Eh     change       -0.2221259E-03 Eh
 * total energy  :   -83.1173953 Eh     change       -0.1471005E-03 Eh
 * total energy  :   -83.1189005 Eh     change       -0.7476501E-04 Eh
 * total energy  :   -83.1189234 Eh     change       -0.2286410E-04 Eh
 * total energy  :   -83.1189455 Eh     change       -0.2215721E-04 Eh
 * total energy  :   -83.1189534 Eh     change       -0.7872087E-05 Eh
 * total energy  :   -83.1189646 Eh     change       -0.1123555E-04 Eh
 * total energy  :   -83.1189713 Eh     change       -0.6681334E-05 Eh
 * total energy  :   -83.1189785 Eh     change       -0.7228191E-05 Eh
 * total energy  :   -83.1189770 Eh     change        0.1595842E-05 Eh
 * total energy  :   -83.1189816 Eh     change       -0.4684153E-05 Eh
   *** GEOMETRY OPTIMIZATION CONVERGED AFTER 40 ITERATIONS ***

 final structure:
================
43
 xtb: 6.5.1 (579679a)
C           -6.18349595164909       -1.87962407928811       -1.13296862625635
O           -4.96816785063518       -1.20281893347847       -0.78831201369210
C           -4.97844099394576        0.11777284655818       -0.87644760996990
O           -5.95237201065702        0.75707273558429       -1.23346548197978
C           -3.69507756427818        0.75629985357200       -0.49941056552946
N           -2.66943454035056       -0.07323671996397       -0.11570662383620
C           -1.54530111215721        0.44773162102349        0.23102550761766
C           -0.42468378552928       -0.44047712023870        0.72270149317679
C           -0.33813787079748       -0.30166521459584        2.24946524221597
C           -0.67069304397663       -1.89118234599384        0.30326871867993
N            0.82602349930586        0.04249324544421        0.10524856335657
C            2.02554748802225       -0.46571155510184        0.40709546623138
O            2.27568956333850       -1.32779218694142        1.22656661503849
C            3.10557031064023        0.17792560056415       -0.40360202537594
N            3.01541480969302        1.06488422997242       -1.32045768291119
N            4.27046375644065        1.35547747701359       -1.77768076985452
C            5.12095937125051        0.64511871447503       -1.14001368194592
C            6.58514154504086        0.60193406246952       -1.27205259275825
O            4.44533540923234       -0.16186997030934       -0.21632939915715
C            4.97638099695264       -1.13927528737497        0.73730296040924
N           -1.33661453493766        1.79739830418245        0.24231937383990
C           -2.28491044846247        2.73808609422792       -0.12793678882444
O           -2.03002130748652        3.92670535079466       -0.10161961785041
C           -3.55807446932769        2.12332944259691       -0.52580617512721
O           -4.52359935811255        2.96296799276071       -0.89072808032796
H           -6.45878297105590       -1.64926105472710       -2.16461880986962
H           -5.98728783722839       -2.94365628603580       -1.01891524890572
H           -6.98700854718310       -1.56486741742382       -0.46318257174848
H           -1.31222467278481       -0.52494108190449        2.68316972120909
H            0.39633096003783       -0.99502659722294        2.65236368578725
H           -0.05289444413992        0.71442415129459        2.51507556956282
H            0.12484627229580       -2.52820110758221        0.68317897260970
H           -0.70351264494412       -1.96345828922892       -0.78253343237844
H           -1.62489648312753       -2.22374017988682        0.70949567027381
H            0.76585628343419        0.70120953251897       -0.65567755415450
H            7.06167037241885        0.86569584411458       -0.32736739258014
H            6.88532632891857        1.31175055379738       -2.04127390712492
H            6.91393493859365       -0.39950623116939       -1.55198449971395
H            4.67689779437543       -0.81667156078296        1.73208079984939
H            4.54381993629530       -2.10531957639865        0.48590541565511
H            6.05505008636688       -1.13488548442733        0.61968299491553
H           -0.44660355112229        2.16141580215631        0.54247970685607
H           -5.33802172876446        2.46349182495216       -1.13701532541346

          :  Hamiltonian                  GFN1-xTB          :
         :: total energy             -83.118981635043 Eh    ::
         :: gradient norm              0.000784774024 Eh/a0 ::
         :: HOMO-LUMO gap              1.936493991215 eV    ::
         :: SCC energy               -83.921287488826 Eh    ::
         :: -> Gsolv                  -0.127980771982 Eh    ::
         :: repulsion energy           0.828489251061 Eh    ::

    * Orbital Energies and Occupations

         #    Occupation            Energy/Eh            Energy/eV
      -------------------------------------------------------------
         1        2.0000           -0.9699455             -26.3936
       ...           ...                  ...                  ...
        55        2.0000           -0.5220986             -14.2070
        56        2.0000           -0.5196265             -14.1398
        57        2.0000           -0.5170536             -14.0697
        58        2.0000           -0.5156227             -14.0308
        59        2.0000           -0.5118390             -13.9278
        60        2.0000           -0.5047409             -13.7347
        61        2.0000           -0.4983119             -13.5598
        62        2.0000           -0.4957078             -13.4889
        63        2.0000           -0.4956402             -13.4871
        64        2.0000           -0.4831843             -13.1481
        65        2.0000           -0.4694583             -12.7746
        66        2.0000           -0.4559283             -12.4064
        67        2.0000           -0.4390561             -11.9473 (HOMO)
        68                         -0.3678912             -10.0108 (LUMO)
        69                         -0.3335086              -9.0752
        70                         -0.3158248              -8.5940
        71                         -0.2944151              -8.0114
        72                         -0.2496888              -6.7944
        73                         -0.2484635              -6.7610
        74                         -0.1908081              -5.1922
        75                         -0.1762415              -4.7958
        76                         -0.1677400              -4.5644
        77                         -0.1427874              -3.8854
        78                         -0.1406804              -3.8281
       ...                                ...                  ...
       136                          0.7188860              19.5619
      -------------------------------------------------------------
                  HL-Gap            0.0711648 Eh            1.9365 eV

Wiberg/Mayer (AO) data.
largest (>0.10) Wiberg bond orders for each atom

     #   Z sym  total        # sym  WBO       # sym  WBO       # sym  WBO
 ---------------------------------------------------------------------------
     1   6 C    3.864 --    27 H    0.986    26 H    0.979    28 H    0.979
                             2 O    0.889
     2   8 O    2.219 --     3 C    1.140     1 C    0.889     4 O    0.131
     3   6 C    3.850 --     4 O    1.607     2 O    1.140     5 C    1.018
     4   8 O    1.947 --     3 C    1.607     2 O    0.131
     5   6 C    3.962 --    24 C    1.488     6 N    1.171     3 C    1.018
     6   7 N    3.029 --     7 C    1.601     5 C    1.171
     7   6 C    3.935 --     6 N    1.601    21 N    1.164     8 C    0.982
     8   6 C    3.916 --    10 C    0.990     7 C    0.982     9 C    0.976
                            11 N    0.902
     9   6 C    3.984 --    31 H    0.984    29 H    0.983    30 H    0.977
                             8 C    0.976
    10   6 C    3.986 --     8 C    0.990    33 H    0.984    32 H    0.982
                            34 H    0.981
    11   7 N    3.379 --    12 C    1.296     8 C    0.902    35 H    0.888
                            13 O    0.192
    12   6 C    3.926 --    13 O    1.589    11 N    1.296    14 C    0.969
    13   8 O    1.946 --    12 C    1.589    11 N    0.192
    14   6 C    3.802 --    15 N    1.704    12 C    0.969    19 O    0.888
    15   7 N    3.045 --    14 C    1.704    16 N    1.148
    16   7 N    3.024 --    17 C    1.694    15 N    1.148
    17   6 C    3.802 --    16 N    1.694    18 C    1.044    19 O    0.877
    18   6 C    3.968 --    17 C    1.044    37 H    0.969    36 H    0.950
                            38 H    0.950
    19   8 O    2.656 --    14 C    0.888    17 C    0.877    20 C    0.744
    20   6 C    3.721 --    41 H    0.974    39 H    0.967    40 H    0.967
                            19 O    0.744
    21   7 N    3.453 --     7 C    1.164    22 C    1.112    42 H    0.885
                            23 O    0.135
    22   6 C    3.906 --    23 O    1.613    21 N    1.112    24 C    1.051
    23   8 O    1.911 --    22 C    1.613    21 N    0.135
    24   6 C    3.922 --     5 C    1.488    25 O    1.135    22 C    1.051
    25   8 O    2.101 --    24 C    1.135    43 H    0.772
    26   1 H    1.006 --     1 C    0.979
    27   1 H    1.010 --     1 C    0.986
    28   1 H    1.005 --     1 C    0.979
    29   1 H    0.999 --     9 C    0.983
    30   1 H    1.005 --     9 C    0.977
    31   1 H    0.999 --     9 C    0.984
    32   1 H    1.003 --    10 C    0.982
    33   1 H    1.003 --    10 C    0.984
    34   1 H    1.008 --    10 C    0.981
    35   1 H    0.936 --    11 N    0.888
    36   1 H    0.988 --    18 C    0.950
    37   1 H    0.989 --    18 C    0.969
    38   1 H    0.988 --    18 C    0.950
    39   1 H    0.998 --    20 C    0.967
    40   1 H    0.999 --    20 C    0.967
    41   1 H    0.990 --    20 C    0.974
    42   1 H    0.927 --    21 N    0.885
    43   1 H    0.849 --    25 O    0.772
 ---------------------------------------------------------------------------

           -------------------------------------------------
          | TOTAL ENERGY              -83.118981635043 Eh   |
          | GRADIENT NORM               0.000784774024 Eh/α |
          | HOMO-LUMO GAP               1.936493991215 eV   |
           -------------------------------------------------

 * finished run on 2023/06/20 at 15:18:28.763
