   * xtb version 6.5.1 (579679a) compiled by 'ehlert@majestix' on 2022-07-11
          program call               : /lustre/hpc/kemi/ree/PhD/git/ReactivityQM/dep/xtb-6.5.1/bin/xtb --gfn 1 /lustre/hpc/kemi/ree/PhD/git/ReactivityQM/calculations/RaltegravirCLI/reac02prodN04/conf05/RaltegravirCLI_reac02prodN04_conf05_gfn1.xyz --opt --vfukui --chrg 1 --uhf 0 --alpb DMSO

   ID    Z sym.   atoms
    1    6 C      1, 3-6, 9-11, 14-18, 20-22, 24
    2    7 N      2, 7, 8, 13
    3    8 O      12, 23, 25
    4    9 F      19
    5    1 H      26-47

      * Solvation model:               ALPB
        Solvent                        DMSO
        Solvent mass                       7.8130E+01 g/mol
          :  Hamiltonian                  GFN1-xTB          :
 * total energy  :   -79.4967480 Eh     change       -0.2169998E-10 Eh
 * total energy  :   -79.5115243 Eh     change       -0.1477623E-01 Eh
 * total energy  :   -79.5166376 Eh     change       -0.5113327E-02 Eh
 * total energy  :   -79.5179556 Eh     change       -0.1318026E-02 Eh
 * total energy  :   -79.5191123 Eh     change       -0.1156640E-02 Eh
 * total energy  :   -79.5198119 Eh     change       -0.6996408E-03 Eh
 * total energy  :   -79.5205132 Eh     change       -0.7013348E-03 Eh
 * total energy  :   -79.5211320 Eh     change       -0.6187290E-03 Eh
 * total energy  :   -79.5216415 Eh     change       -0.5095225E-03 Eh
 * total energy  :   -79.5220352 Eh     change       -0.3937435E-03 Eh
 * total energy  :   -79.5243674 Eh     change       -0.8486368E-04 Eh
 * total energy  :   -79.5244277 Eh     change       -0.6036093E-04 Eh
 * total energy  :   -79.5244657 Eh     change       -0.3792988E-04 Eh
 * total energy  :   -79.5244860 Eh     change       -0.2030330E-04 Eh
 * total energy  :   -79.5245072 Eh     change       -0.2125174E-04 Eh
 * total energy  :   -79.5245241 Eh     change       -0.1684444E-04 Eh
 * total energy  :   -79.5245316 Eh     change       -0.7495007E-05 Eh
 * total energy  :   -79.5245412 Eh     change       -0.9629433E-05 Eh
 * total energy  :   -79.5245445 Eh     change       -0.3349366E-05 Eh
   *** GEOMETRY OPTIMIZATION CONVERGED AFTER 41 ITERATIONS ***

 final structure:
================
47
 xtb: 6.5.1 (579679a)
C           -3.40465904633917        2.29880267096016        1.01165308270359
N           -2.25332504918034        1.49937210587837        0.56795120557056
C           -2.34255126754080        0.38258674849546       -0.18753754631763
C           -3.64773962459027       -0.42517644038618       -0.26360165758278
C           -4.41277402489956       -0.41633091873499        1.07755073318341
C           -4.55005197858787        0.06794365741932       -1.40360219067733
N           -3.28647506317604       -1.81494020656386       -0.52216603114787
N           -1.22933777570973       -0.05749304303954       -0.78320194440753
C           -1.27752829475934       -0.96842026114035       -1.94312934621326
C            0.03991115286700        0.40865397075408       -0.45615917186947
C            1.25012612404439       -0.35438847651404       -0.96008754452854
O            1.23139493994836       -1.57012440992527       -1.07615465066607
N            2.30848669033209        0.41020090659700       -1.23442539603767
C            3.58082939409499       -0.19734410848845       -1.63466191163666
C            4.39570634466539       -0.54338038325341       -0.40793916715012
C            5.33373678010756        0.35751752325686        0.08959410329014
C            6.06282043829819        0.05723987000086        1.23211444104719
C            5.82719395334849       -1.15218300834259        1.86077930544472
F            6.52445632032993       -1.44936587598733        2.96747342910666
C            4.90051063283740       -2.06795872126226        1.39442924519187
C            4.18286973579927       -1.75342156936636        0.24957052663274
C            0.14532555930033        1.43226154761828        0.42968724562580
O            1.31934237186266        1.92123287815590        0.83938805019084
C           -1.03942592209890        2.08641553141547        0.94769912411805
O           -0.99376417842664        3.07244613593406        1.65519197958120
H           -3.63649887631560        2.07180166516774        2.05034973656022
H           -3.11086788975221        3.34583554615430        0.93622954647065
H           -4.25710453441441        2.12085792701934        0.37005829337909
H           -5.00111401570720       -1.33184130058392        1.12546359996670
H           -3.72333663634292       -0.40884463938982        1.91930181016821
H           -5.10493395742862        0.41660537627433        1.16167702909602
H           -4.79466785003368        1.12112963246058       -1.28522108111722
H           -5.47353772153176       -0.50824852398718       -1.39153179233661
H           -4.06611868764230       -0.06821450764953       -2.36851581200859
H           -2.94478813892251       -2.23647272335433        0.33208270113487
H           -4.11484550493147       -2.31760210451458       -0.80924601612487
H           -0.50853747293763       -0.64814903090834       -2.64325074254771
H           -2.24599925952342       -0.89747258922361       -2.42058856874650
H           -1.09021043758177       -1.99084212326925       -1.62345318252594
H            2.29346772248798        1.40069950068397       -1.06497685010674
H            4.10448219892933        0.52254558002872       -2.26594695893740
H            3.35310008919510       -1.09553219219126       -2.21536787819187
H            5.49775857614083        1.30132921859925       -0.41641967456792
H            6.79581025528802        0.74749745029610        1.62833825824347
H            4.74342455149880       -3.00227649651294        1.91791801084210
H            3.44829853535009       -2.45144635662152       -0.13359850504437
H            1.17113884165381        2.68449556805387        1.42891816292736

          :  Hamiltonian                  GFN1-xTB          :
         :: total energy             -79.524544543920 Eh    ::
         :: gradient norm              0.000976091600 Eh/a0 ::
         :: HOMO-LUMO gap              2.316435139018 eV    ::
         :: SCC energy               -80.425315345813 Eh    ::
         :: -> Gsolv                  -0.107580117085 Eh    ::
         :: repulsion energy           0.932169033717 Eh    ::

    * Orbital Energies and Occupations

         #    Occupation            Energy/Eh            Energy/eV
      -------------------------------------------------------------
         1        2.0000           -0.8796450             -23.9364
       ...           ...                  ...                  ...
        55        2.0000           -0.5190365             -14.1237
        56        2.0000           -0.5158056             -14.0358
        57        2.0000           -0.5147276             -14.0065
        58        2.0000           -0.5124386             -13.9442
        59        2.0000           -0.5089334             -13.8488
        60        2.0000           -0.5056318             -13.7589
        61        2.0000           -0.4809761             -13.0880
        62        2.0000           -0.4780991             -13.0097
        63        2.0000           -0.4710310             -12.8174
        64        2.0000           -0.4602199             -12.5232
        65        2.0000           -0.4575374             -12.4502
        66        2.0000           -0.4442719             -12.0893
        67        2.0000           -0.4375702             -11.9069 (HOMO)
        68                         -0.3524427              -9.5905 (LUMO)
        69                         -0.3498267              -9.5193
        70                         -0.2794725              -7.6048
        71                         -0.2752374              -7.4896
        72                         -0.2675828              -7.2813
        73                         -0.2097452              -5.7075
        74                         -0.1623763              -4.4185
        75                         -0.1529452              -4.1619
        76                         -0.1519298              -4.1342
        77                         -0.1450813              -3.9479
        78                         -0.1370102              -3.7282
       ...                                ...                  ...
       144                          0.6950416              18.9130
      -------------------------------------------------------------
                  HL-Gap            0.0851274 Eh            2.3164 eV

Wiberg/Mayer (AO) data.
largest (>0.10) Wiberg bond orders for each atom

     #   Z sym  total        # sym  WBO       # sym  WBO       # sym  WBO
 ---------------------------------------------------------------------------
     1   6 C    3.896 --    28 H    0.978    26 H    0.972    27 H    0.967
                             2 N    0.910
     2   7 N    3.528 --     3 C    1.279    24 C    1.071     1 C    0.910
                            25 O    0.119
     3   6 C    3.886 --     8 N    1.369     2 N    1.279     4 C    0.968
     4   6 C    3.954 --     7 N    0.993     6 C    0.978     5 C    0.978
                             3 C    0.968
     5   6 C    3.987 --    30 H    0.984    31 H    0.979     4 C    0.978
                            29 H    0.978
     6   6 C    3.987 --    33 H    0.979     4 C    0.978    32 H    0.978
                            34 H    0.977
     7   7 N    2.976 --     4 C    0.993    35 H    0.935    36 H    0.929
     8   7 N    3.576 --     3 C    1.369    10 C    1.101     9 C    0.900
     9   6 C    3.890 --    38 H    0.976    37 H    0.975    39 H    0.966
                             8 N    0.900
    10   6 C    3.922 --    22 C    1.537     8 N    1.101    11 C    0.957
    11   6 C    3.920 --    12 O    1.571    13 N    1.315    10 C    0.957
    12   8 O    1.914 --    11 C    1.571    13 N    0.184
    13   7 N    3.385 --    11 C    1.315    14 C    0.924    40 H    0.890
                            12 O    0.184
    14   6 C    3.933 --    15 C    0.993    41 H    0.976    42 H    0.971
                            13 N    0.924
    15   6 C    3.987 --    16 C    1.421    21 C    1.417    14 C    0.993
    16   6 C    3.993 --    17 C    1.442    15 C    1.421    43 H    0.971
                            20 C    0.110
    17   6 C    3.991 --    16 C    1.442    18 C    1.401    44 H    0.969
                            21 C    0.111
    18   6 C    3.861 --    17 C    1.401    20 C    1.398    19 F    0.928
    19   9 F    1.058 --    18 C    0.928
    20   6 C    3.992 --    21 C    1.446    18 C    1.398    45 H    0.969
                            16 C    0.110
    21   6 C    3.993 --    20 C    1.446    15 C    1.417    46 H    0.969
                            17 C    0.111
    22   6 C    3.927 --    10 C    1.537    23 O    1.106    24 C    1.067
    23   8 O    2.085 --    22 C    1.106    47 H    0.790
    24   6 C    3.908 --    25 O    1.621     2 N    1.071    22 C    1.067
    25   8 O    1.953 --    24 C    1.621     2 N    0.119
    26   1 H    0.997 --     1 C    0.972
    27   1 H    0.999 --     1 C    0.967
    28   1 H    1.004 --     1 C    0.978
    29   1 H    0.998 --     5 C    0.978
    30   1 H    0.997 --     5 C    0.984
    31   1 H    1.000 --     5 C    0.979
    32   1 H    1.001 --     6 C    0.978
    33   1 H    0.995 --     6 C    0.979
    34   1 H    1.001 --     6 C    0.977
    35   1 H    0.948 --     7 N    0.935
    36   1 H    0.944 --     7 N    0.929
    37   1 H    1.000 --     9 C    0.975
    38   1 H    1.018 --     9 C    0.976
    39   1 H    1.022 --     9 C    0.966
    40   1 H    0.937 --    13 N    0.890
    41   1 H    1.001 --    14 C    0.976
    42   1 H    1.005 --    14 C    0.971
    43   1 H    0.998 --    16 C    0.971
    44   1 H    0.997 --    17 C    0.969
    45   1 H    0.998 --    20 C    0.969
    46   1 H    1.009 --    21 C    0.969
    47   1 H    0.824 --    23 O    0.790
 ---------------------------------------------------------------------------

           -------------------------------------------------
          | TOTAL ENERGY              -79.524544543920 Eh   |
          | GRADIENT NORM               0.000976091600 Eh/α |
          | HOMO-LUMO GAP               2.316435139018 eV   |
           -------------------------------------------------

 * finished run on 2023/06/20 at 15:20:16.139
