   * xtb version 6.5.1 (579679a) compiled by 'ehlert@majestix' on 2022-07-11
          program call               : /lustre/hpc/kemi/ree/PhD/git/ReactivityQM/dep/xtb-6.5.1/bin/xtb --gfn 1 /lustre/hpc/kemi/ree/PhD/git/ReactivityQM/calculations/R03/reac01prodN02/conf10/R03_reac01prodN02_conf10_gfn1.xyz --opt --vfukui --chrg 1 --uhf 0 --alpb DMSO

   ID    Z sym.   atoms
    1    6 C      1-3, 5-7, 9, 10
    2    7 N      4
    3    9 F      8
    4    1 H      11-21

      * Solvation model:               ALPB
        Solvent                        DMSO
        Solvent mass                       7.8130E+01 g/mol
          :  Hamiltonian                  GFN1-xTB          :
 * total energy  :   -30.7612672 Eh     change       -0.1042970E-09 Eh
 * total energy  :   -30.7664370 Eh     change       -0.5169744E-02 Eh
 * total energy  :   -30.7687623 Eh     change       -0.2325370E-02 Eh
 * total energy  :   -30.7693104 Eh     change       -0.5480509E-03 Eh
 * total energy  :   -30.7701699 Eh     change       -0.8594769E-03 Eh
 * total energy  :   -30.7707561 Eh     change       -0.5862679E-03 Eh
 * total energy  :   -30.7714677 Eh     change       -0.7116035E-03 Eh
 * total energy  :   -30.7724986 Eh     change       -0.1030822E-02 Eh
 * total energy  :   -30.7731017 Eh     change       -0.6031048E-03 Eh
 * total energy  :   -30.7738957 Eh     change       -0.7940567E-03 Eh
 * total energy  :   -30.7817252 Eh     change       -0.8688880E-05 Eh
 * total energy  :   -30.7817854 Eh     change       -0.6023193E-04 Eh
 * total energy  :   -30.7818100 Eh     change       -0.2454939E-04 Eh
 * total energy  :   -30.7818356 Eh     change       -0.2562986E-04 Eh
 * total energy  :   -30.7818507 Eh     change       -0.1508669E-04 Eh
 * total energy  :   -30.7818670 Eh     change       -0.1632863E-04 Eh
 * total energy  :   -30.7818739 Eh     change       -0.6832535E-05 Eh
 * total energy  :   -30.7818796 Eh     change       -0.5767662E-05 Eh
 * total energy  :   -30.7818828 Eh     change       -0.3177893E-05 Eh
   *** GEOMETRY OPTIMIZATION CONVERGED AFTER 68 ITERATIONS ***

 final structure:
================
21
 xtb: 6.5.1 (579679a)
C           -1.12667683381481        0.65609441347139        1.74684598869331
C            0.07773414220329        0.46016339603173        0.87426070918686
C           -1.15546402168874       -0.72324554145025       -1.44437011520028
N           -2.30821249760330       -1.03993895261832       -0.97399729350918
C            0.87831537131931        1.54433523262266        0.51266731867667
C            2.02411727991816        1.35994244710906       -0.24512227221336
C            2.36515553528851        0.07185893063599       -0.63460500558497
F            3.47820577478905       -0.10874074589440       -1.35228585353614
C            1.59867306942303       -1.02647896639365       -0.30635772441654
C            0.42737742695760       -0.82378216513652        0.43073485858003
H           -1.86191864885427       -0.12759489382660        1.57036988172076
H           -1.58581865766561        1.62699249599069        1.56574017121972
H           -0.83022686086256        0.60927106480936        2.79722242409313
H           -0.52029629575559       -1.49086591714284       -1.86016360554253
H           -0.90600983186309        0.31669975872776       -1.59495697607603
H           -2.59650153793715       -2.00141302674536       -0.88128533064948
H           -2.96151273897512       -0.34226699710146       -0.65193054565344
H            0.60478634685654        2.54234146622888        0.83411063834849
H            2.64992589019197        2.19694631149043       -0.52844951037088
H            1.89111155115808       -2.01898848713444       -0.62280811552217
H           -0.14276646308483       -1.68132882367342        0.76438035775631

          :  Hamiltonian                  GFN1-xTB          :
         :: total energy             -30.781882808418 Eh    ::
         :: gradient norm              0.000345359987 Eh/a0 ::
         :: HOMO-LUMO gap              1.921471063848 eV    ::
         :: SCC energy               -31.214251634386 Eh    ::
         :: -> Gsolv                  -0.103140602048 Eh    ::
         :: repulsion energy           0.443144616176 Eh    ::

    * Orbital Energies and Occupations

         #    Occupation            Energy/Eh            Energy/eV
      -------------------------------------------------------------
         1        2.0000           -0.8815591             -23.9884
       ...           ...                  ...                  ...
        15        2.0000           -0.5940929             -16.1661
        16        2.0000           -0.5851816             -15.9236
        17        2.0000           -0.5760528             -15.6752
        18        2.0000           -0.5595579             -15.2263
        19        2.0000           -0.5572176             -15.1627
        20        2.0000           -0.5556701             -15.1206
        21        2.0000           -0.5498996             -14.9635
        22        2.0000           -0.5231163             -14.2347
        23        2.0000           -0.5207334             -14.1699
        24        2.0000           -0.5102388             -13.8843
        25        2.0000           -0.4924352             -13.3998
        26        2.0000           -0.4735178             -12.8851
        27        2.0000           -0.4541066             -12.3569 (HOMO)
        28                         -0.3834939             -10.4354 (LUMO)
        29                         -0.2926596              -7.9637
        30                         -0.2849773              -7.7546
        31                         -0.1827834              -4.9738
        32                         -0.1673347              -4.5534
        33                         -0.1652813              -4.4975
        34                         -0.1541240              -4.1939
        35                         -0.1378918              -3.7522
        36                         -0.1184804              -3.2240
        37                         -0.1099305              -2.9914
        38                         -0.1064343              -2.8962
       ...                                ...                  ...
        62                          0.6196855              16.8625
      -------------------------------------------------------------
                  HL-Gap            0.0706128 Eh            1.9215 eV

Wiberg/Mayer (AO) data.
largest (>0.10) Wiberg bond orders for each atom

     #   Z sym  total        # sym  WBO       # sym  WBO       # sym  WBO
 ---------------------------------------------------------------------------
     1   6 C    3.993 --     2 C    1.030    12 H    0.979    11 H    0.978
                            13 H    0.959
     2   6 C    3.985 --     5 C    1.401    10 C    1.355     1 C    1.030
     3   6 C    3.866 --     4 N    1.718    15 H    0.968    14 H    0.966
                            10 C    0.114
     4   7 N    3.555 --     3 C    1.718    17 H    0.872    16 H    0.868
     5   6 C    3.992 --     6 C    1.457     2 C    1.401    18 H    0.969
                             9 C    0.108
     6   6 C    3.991 --     5 C    1.457     7 C    1.369    19 H    0.967
     7   6 C    3.868 --     9 C    1.426     6 C    1.369     8 F    0.940
     8   9 F    1.072 --     7 C    0.940
     9   6 C    3.991 --     7 C    1.426    10 C    1.377    20 H    0.966
                             5 C    0.108
    10   6 C    3.992 --     9 C    1.377     2 C    1.355    21 H    0.966
                             3 C    0.114
    11   1 H    1.001 --     1 C    0.978
    12   1 H    0.999 --     1 C    0.979
    13   1 H    0.998 --     1 C    0.959
    14   1 H    0.999 --     3 C    0.966
    15   1 H    0.997 --     3 C    0.968
    16   1 H    0.896 --     4 N    0.868
    17   1 H    0.904 --     4 N    0.872
    18   1 H    0.997 --     5 C    0.969
    19   1 H    0.995 --     6 C    0.967
    20   1 H    0.994 --     9 C    0.966
    21   1 H    0.999 --    10 C    0.966
 ---------------------------------------------------------------------------

           -------------------------------------------------
          | TOTAL ENERGY              -30.781882808418 Eh   |
          | GRADIENT NORM               0.000345359987 Eh/α |
          | HOMO-LUMO GAP               1.921471063848 eV   |
           -------------------------------------------------

 * finished run on 2023/06/20 at 15:14:11.085
