   * xtb version 6.5.1 (579679a) compiled by 'ehlert@majestix' on 2022-07-11
          program call               : /lustre/hpc/kemi/ree/PhD/git/ReactivityQM/dep/xtb-6.5.1/bin/xtb --gfn 1 /lustre/hpc/kemi/ree/PhD/git/ReactivityQM/calculations/R03/reac02prodE13/conf09/R03_reac02prodE13_conf09_gfn1.xyz --opt --vfukui --chrg -1 --uhf 0 --alpb DMSO

   ID    Z sym.   atoms
    1    6 C      1, 3, 5, 6, 8, 10, 12-16, 18, 20, 23, 24
    2    8 O      2, 4, 7, 9, 19, 25
    3    7 N      11, 17, 21, 22, 26
    4    1 H      27-46

      * Solvation model:               ALPB
        Solvent                        DMSO
        Solvent mass                       7.8130E+01 g/mol
          :  Hamiltonian                  GFN1-xTB          :
 * total energy  :   -87.0057360 Eh     change       -0.6026823E-09 Eh
 * total energy  :   -87.0207972 Eh     change       -0.1506128E-01 Eh
 * total energy  :   -87.0265434 Eh     change       -0.5746198E-02 Eh
 * total energy  :   -87.0278873 Eh     change       -0.1343837E-02 Eh
 * total energy  :   -87.0289624 Eh     change       -0.1075101E-02 Eh
 * total energy  :   -87.0295422 Eh     change       -0.5798345E-03 Eh
 * total energy  :   -87.0299599 Eh     change       -0.4177169E-03 Eh
 * total energy  :   -87.0302549 Eh     change       -0.2949839E-03 Eh
 * total energy  :   -87.0304343 Eh     change       -0.1793578E-03 Eh
 * total energy  :   -87.0305414 Eh     change       -0.1070876E-03 Eh
 * total energy  :   -87.0320119 Eh     change       -0.1408474E-04 Eh
 * total energy  :   -87.0320233 Eh     change       -0.1146051E-04 Eh
 * total energy  :   -87.0320257 Eh     change       -0.2353972E-05 Eh
 * total energy  :   -87.0320386 Eh     change       -0.1290208E-04 Eh
 * total energy  :   -87.0320504 Eh     change       -0.1177583E-04 Eh
 * total energy  :   -87.0320599 Eh     change       -0.9524873E-05 Eh
 * total energy  :   -87.0320708 Eh     change       -0.1089753E-04 Eh
 * total energy  :   -87.0320760 Eh     change       -0.5232931E-05 Eh
 * total energy  :   -87.0320806 Eh     change       -0.4616241E-05 Eh
   *** GEOMETRY OPTIMIZATION CONVERGED AFTER 40 ITERATIONS ***

 final structure:
================
46
 xtb: 6.5.1 (579679a)
C           -5.10834165152579       -2.29169183921802       -2.26488779526264
O           -3.90994536127973       -1.92137260936998       -1.61159236070844
C           -4.03279155257250       -0.85607113536113       -0.71695017357924
O           -5.17598252553007       -0.32724827379835       -0.55117748049650
C           -2.87338137278179       -0.46824110916301       -0.06442222116909
C           -2.88805830697575        0.65901884509929        0.86127344605837
O           -4.06025476856355        1.34465440340253        1.01960711353708
C           -1.74746603639078        1.01034726618085        1.48585905102845
O           -1.53978849654289        2.06441445605194        2.36161441313834
C           -2.38472130380372        3.19802217298705        2.25463219305511
N           -0.56582268794225        0.22891116010725        1.29976562117252
C            0.58254074598806        0.61203102932160        2.10325571949725
C           -0.57551271710758       -0.72885478570917        0.28632479170425
C            0.69437905856844       -1.48711153463350       -0.09574232567178
C            0.98891185026079       -2.58474252138338        0.93492444089193
C            0.49610923835621       -2.14322339301803       -1.47251454592623
N            1.85372990110434       -0.59507916409790       -0.16682945148405
C            1.86420643686036        0.51830309106094       -0.95184296541950
O            0.88717759111702        0.94088620047984       -1.56882414242288
C            3.16070510848485        1.20130871173627       -0.96883929409636
N            3.47954909478193        2.29362793192742       -1.61837335023209
N            4.79076632679377        2.54925801443645       -1.33454184729699
C            5.19545644684641        1.61309286401434       -0.53798921295698
C            6.54395127047151        1.44971143581063        0.05110195401761
O            4.22217538358311        0.72285228482316       -0.25950859645255
N           -1.64035683709915       -1.07555393585649       -0.33359443972948
H           -5.87720918940802       -2.59716769198000       -1.54466501171661
H           -5.50615671413664       -1.46539479835145       -2.86722773567533
H           -4.87373073617595       -3.13329701682311       -2.91879968098166
H           -4.73408568949397        0.83457225021041        0.45226039212127
H           -2.50714505876098        3.51535067783742        1.21206445677082
H           -3.37298284390475        3.00442435840225        2.68754001502943
H           -1.90285386491252        3.99988243140296        2.81876344355448
H            1.34952497036281       -0.15394834619165        2.06797563105472
H            1.01066192455725        1.55702542086051        1.75163401618991
H            0.27023103864086        0.73478995272458        3.14255932736801
H            1.19597702858806       -2.16777447836029        1.91792684791270
H            0.12696165952469       -3.24658989743401        1.01361195557523
H            1.85141472430535       -3.17004824402062        0.62017124650236
H           -0.30698208634388       -2.87662117760669       -1.41696383841317
H            1.41534368894578       -2.64134814511998       -1.77560141589006
H            0.23250992022575       -1.39137028172387       -2.21593250060310
H            2.72941462390390       -0.94321663452171        0.18053112991418
H            7.19818036720016        2.23947324740254       -0.31055446085095
H            6.48657026340337        1.49461776189128        1.13900383325286
H            6.95711913837894        0.47938904557672       -0.22398419231112

          :  Hamiltonian                  GFN1-xTB          :
         :: total energy             -87.032080627931 Eh    ::
         :: gradient norm              0.000843526590 Eh/a0 ::
         :: HOMO-LUMO gap              0.105810777188 eV    ::
         :: SCC energy               -87.818857720369 Eh    ::
         :: -> Gsolv                  -0.122031406414 Eh    ::
         :: repulsion energy           0.815969085474 Eh    ::

    * Orbital Energies and Occupations

         #    Occupation            Energy/Eh            Energy/eV
      -------------------------------------------------------------
         1        2.0000           -0.8412168             -22.8907
       ...           ...                  ...                  ...
        59        2.0000           -0.4619456             -12.5702
        60        2.0000           -0.4616388             -12.5618
        61        2.0000           -0.4586870             -12.4815
        62        2.0000           -0.4419806             -12.0269
        63        2.0000           -0.4407283             -11.9928
        64        2.0000           -0.4372771             -11.8989
        65        2.0000           -0.4301560             -11.7051
        66        2.0000           -0.4221005             -11.4859
        67        2.0000           -0.4114955             -11.1974
        68        2.0000           -0.4052282             -11.0268
        69        2.0000           -0.3843968             -10.4600
        70        2.0000           -0.3816955             -10.3865
        71        1.7712           -0.2950034              -8.0275 (HOMO)
        72        0.2288           -0.2911150              -7.9216 (LUMO)
        73                         -0.2385120              -6.4902
        74                         -0.2234774              -6.0811
        75                         -0.1864426              -5.0734
        76                         -0.1737658              -4.7284
        77                         -0.1348032              -3.6682
        78                         -0.1232487              -3.3538
        79                         -0.1178512              -3.2069
        80                         -0.1121317              -3.0513
        81                         -0.1111968              -3.0258
        82                         -0.1024329              -2.7873
       ...                                ...                  ...
       144                          0.7180942              19.5403
      -------------------------------------------------------------
                  HL-Gap            0.0038885 Eh            0.1058 eV

Wiberg/Mayer (AO) data.
largest (>0.10) Wiberg bond orders for each atom

     #   Z sym  total        # sym  WBO       # sym  WBO       # sym  WBO
 ---------------------------------------------------------------------------
     1   6 C    3.914 --    29 H    0.987    28 H    0.981    27 H    0.981
                             2 O    0.945
     2   8 O    2.067 --     3 C    0.953     1 C    0.945
     3   6 C    3.828 --     5 C    1.380     4 O    1.345     2 O    0.953
     4   8 O    1.777 --     3 C    1.345    30 H    0.135     5 C    0.104
     5   6 C    3.801 --     3 C    1.380     6 C    1.082    26 N    1.079
                             4 O    0.104
     6   6 C    3.888 --     8 C    1.598     5 C    1.082     7 O    1.040
     7   8 O    1.975 --     6 C    1.040    30 H    0.733
     8   6 C    3.776 --     6 C    1.598    11 N    0.981     9 O    0.967
     9   8 O    2.066 --     8 C    0.967    10 C    0.930
    10   6 C    3.903 --    33 H    0.985    31 H    0.982    32 H    0.981
                             9 O    0.930
    11   7 N    3.272 --    13 C    1.083     8 C    0.981    12 C    0.955
                            26 N    0.116
    12   6 C    3.957 --    36 H    0.982    35 H    0.980    34 H    0.979
                            11 N    0.955
    13   6 C    3.925 --    26 N    1.665    11 N    1.083    14 C    0.969
    14   6 C    3.936 --    15 C    0.990    16 C    0.989    13 C    0.969
                            17 N    0.926
    15   6 C    3.992 --    14 C    0.990    38 H    0.984    39 H    0.984
                            37 H    0.979
    16   6 C    3.991 --    14 C    0.989    41 H    0.987    40 H    0.984
                            42 H    0.982
    17   7 N    3.287 --    18 C    1.204    14 C    0.926    43 H    0.903
                            19 O    0.156
    18   6 C    3.850 --    19 O    1.533    17 N    1.204    20 C    1.038
    19   8 O    1.803 --    18 C    1.533    17 N    0.156
    20   6 C    3.786 --    21 N    1.543    18 C    1.038    25 O    1.017
    21   7 N    2.886 --    20 C    1.543    22 N    1.190
    22   7 N    2.981 --    23 C    1.622    21 N    1.190
    23   6 C    3.846 --    22 N    1.622    25 O    1.061    24 C    1.029
    24   6 C    3.990 --    23 C    1.029    44 H    0.984    46 H    0.967
                            45 H    0.966
    25   8 O    2.260 --    23 C    1.061    20 C    1.017
    26   7 N    3.009 --    13 C    1.665     5 C    1.079    11 N    0.116
    27   1 H    1.019 --     1 C    0.981
    28   1 H    1.018 --     1 C    0.981
    29   1 H    1.019 --     1 C    0.987
    30   1 H    0.882 --     7 O    0.733     4 O    0.135
    31   1 H    1.013 --    10 C    0.982
    32   1 H    1.024 --    10 C    0.981
    33   1 H    1.017 --    10 C    0.985
    34   1 H    1.015 --    12 C    0.979
    35   1 H    1.009 --    12 C    0.980
    36   1 H    1.012 --    12 C    0.982
    37   1 H    1.005 --    15 C    0.979
    38   1 H    1.006 --    15 C    0.984
    39   1 H    1.000 --    15 C    0.984
    40   1 H    1.020 --    16 C    0.984
    41   1 H    1.005 --    16 C    0.987
    42   1 H    1.019 --    16 C    0.982
    43   1 H    0.947 --    17 N    0.903
    44   1 H    1.001 --    24 C    0.984
    45   1 H    0.998 --    24 C    0.966
    46   1 H    0.998 --    24 C    0.967
 ---------------------------------------------------------------------------

           -------------------------------------------------
          | TOTAL ENERGY              -87.032080627931 Eh   |
          | GRADIENT NORM               0.000843526590 Eh/α |
          | HOMO-LUMO GAP               0.105810777188 eV   |
           -------------------------------------------------

 * finished run on 2023/06/20 at 15:34:15.747
