                         Program Version 5.0.1 -  RELEASE  -
|  1> # ORCA input file
|  2> ! SP r2SCAN-3c CPCM
|  3>
|  4> %maxcore 1875.0
|  5> %pal nprocs 4 end
|  6> %cpcm smd true SMDsolvent "DMSO" end
|  7>
|  8> *xyz -1 1
|  9> C       4.599470   -1.011562   -0.009415
| 10> O       3.192531   -0.903732   -0.073125
| 11> C       2.695479    0.406362    0.033359
| 12> O       3.530742    1.360097    0.144306
| 13> C       1.324775    0.542780   -0.014487
| 14> C       0.703392    1.859638    0.150737
| 15> O       1.515173    2.919221    0.461467
| 16> C      -0.631425    1.980006    0.071067
| 17> O      -1.385811    3.134105    0.254994
| 18> C      -1.280413    3.739150    1.536417
| 19> N      -1.424484    0.842960   -0.317996
| 20> C      -0.792471   -0.405325   -0.146166
| 21> C      -1.739210   -1.591413   -0.192732
| 22> C      -2.151579   -1.836847   -1.651676
| 23> C      -1.057831   -2.837973    0.387338
| 24> N      -2.946151   -1.251475    0.568750
| 25> N       0.465163   -0.577769   -0.066786
| 26> H       5.081396   -0.485377   -0.843969
| 27> H       4.991512   -0.601258    0.930223
| 28> H       4.846447   -2.073607   -0.066366
| 29> H       2.455340    2.541834    0.412971
| 30> H      -1.543958    3.032343    2.334040
| 31> H      -1.982883    4.575317    1.553277
| 32> H      -0.265359    4.117089    1.718824
| 33> H      -2.362674    0.860042    0.069099
| 34> H      -2.647663   -0.951434   -2.050098
| 35> H      -1.272494   -2.053979   -2.258994
| 36> H      -2.837521   -2.681041   -1.714186
| 37> H      -0.773595   -2.658996    1.424041
| 38> H      -0.157838   -3.068814   -0.183985
| 39> H      -1.734701   -3.689955    0.350128
| 40> H      -2.746720   -1.297766    1.559463
| 41> H      -3.666645   -1.932619    0.378523
| 42> **                         ****END OF INPUT****

CARTESIAN COORDINATES (ANGSTROEM)
---------------------------------
  C      4.599470   -1.011562   -0.009415
  O      3.192531   -0.903732   -0.073125
  C      2.695479    0.406362    0.033359
  O      3.530742    1.360097    0.144306
  C      1.324775    0.542780   -0.014487
  C      0.703392    1.859638    0.150737
  O      1.515173    2.919221    0.461467
  C     -0.631425    1.980006    0.071067
  O     -1.385811    3.134105    0.254994
  C     -1.280413    3.739150    1.536417
  N     -1.424484    0.842960   -0.317996
  C     -0.792471   -0.405325   -0.146166
  C     -1.739210   -1.591413   -0.192732
  C     -2.151579   -1.836847   -1.651676
  C     -1.057831   -2.837973    0.387338
  N     -2.946151   -1.251475    0.568750
  N      0.465163   -0.577769   -0.066786
  H      5.081396   -0.485377   -0.843969
  H      4.991512   -0.601258    0.930223
  H      4.846447   -2.073607   -0.066366
  H      2.455340    2.541834    0.412971
  H     -1.543958    3.032343    2.334040
  H     -1.982883    4.575317    1.553277
  H     -0.265359    4.117089    1.718824
  H     -2.362674    0.860042    0.069099
  H     -2.647663   -0.951434   -2.050098
  H     -1.272494   -2.053979   -2.258994
  H     -2.837521   -2.681041   -1.714186
  H     -0.773595   -2.658996    1.424041
  H     -0.157838   -3.068814   -0.183985
  H     -1.734701   -3.689955    0.350128
  H     -2.746720   -1.297766    1.559463
  H     -3.666645   -1.932619    0.378523

 Total Charge           Charge          ....   -1
 Multiplicity           Mult            ....    1
 Number of Electrons    NEL             ....  130
 Basis Dimension        Dim             ....  438

ORBITAL ENERGIES
----------------

  NO   OCC          E(Eh)            E(eV)
   0   2.0000     -18.958967      -515.8997
   1   2.0000     -18.943823      -515.4876
   2   2.0000     -18.930267      -515.1188
   3   2.0000     -18.879806      -513.7456
   4   2.0000     -14.155321      -385.1859
   5   2.0000     -14.129862      -384.4931
   6   2.0000     -14.121594      -384.2681
   7   2.0000     -10.088108      -274.5114
   8   2.0000     -10.069183      -273.9964
   9   2.0000     -10.067915      -273.9619
  10   2.0000     -10.062306      -273.8093
  11   2.0000     -10.058459      -273.7046
  12   2.0000     -10.054066      -273.5850
  13   2.0000     -10.052067      -273.5306
  14   2.0000     -10.010067      -272.3878
  15   2.0000     -10.006491      -272.2905
  16   2.0000     -10.002992      -272.1953
  17   2.0000      -1.005249       -27.3542
  18   2.0000      -1.001022       -27.2392
  19   2.0000      -0.970085       -26.3973
  20   2.0000      -0.912690       -24.8356
  21   2.0000      -0.911147       -24.7936
  22   2.0000      -0.848576       -23.0909
  23   2.0000      -0.821034       -22.3415
  24   2.0000      -0.726955       -19.7815
  25   2.0000      -0.695659       -18.9299
  26   2.0000      -0.669553       -18.2195
  27   2.0000      -0.645990       -17.5783
  28   2.0000      -0.642038       -17.4707
  29   2.0000      -0.609760       -16.5924
  30   2.0000      -0.582097       -15.8397
  31   2.0000      -0.519022       -14.1233
  32   2.0000      -0.502973       -13.6866
  33   2.0000      -0.487422       -13.2634
  34   2.0000      -0.476408       -12.9637
  35   2.0000      -0.456996       -12.4355
  36   2.0000      -0.447983       -12.1902
  37   2.0000      -0.422839       -11.5060
  38   2.0000      -0.418376       -11.3846
  39   2.0000      -0.414553       -11.2805
  40   2.0000      -0.405588       -11.0366
  41   2.0000      -0.403740       -10.9863
  42   2.0000      -0.397524       -10.8172
  43   2.0000      -0.390571       -10.6280
  44   2.0000      -0.373304       -10.1581
  45   2.0000      -0.366341        -9.9687
  46   2.0000      -0.356370        -9.6973
  47   2.0000      -0.350924        -9.5491
  48   2.0000      -0.344251        -9.3675
  49   2.0000      -0.331812        -9.0291
  50   2.0000      -0.323960        -8.8154
  51   2.0000      -0.316193        -8.6041
  52   2.0000      -0.308776        -8.4022
  53   2.0000      -0.307263        -8.3610
  54   2.0000      -0.296439        -8.0665
  55   2.0000      -0.291721        -7.9381
  56   2.0000      -0.281418        -7.6578
  57   2.0000      -0.256810        -6.9882
  58   2.0000      -0.231560        -6.3011
  59   2.0000      -0.225929        -6.1478
  60   2.0000      -0.221173        -6.0184
  61   2.0000      -0.207026        -5.6335
  62   2.0000      -0.194322        -5.2878
  63   2.0000      -0.178733        -4.8636
  64   2.0000      -0.091477        -2.4892
  65   0.0000       0.003208         0.0873
  66   0.0000       0.040440         1.1004
  67   0.0000       0.057443         1.5631
  68   0.0000       0.080860         2.2003
  69   0.0000       0.088512         2.4085

MULLIKEN ATOMIC CHARGES
-----------------------
   0 C :   -0.351248
   1 O :   -0.225602
   2 C :    0.181057
   3 O :   -0.570833
   4 C :   -0.280913
   5 C :    0.025655
   6 O :   -0.439301
   7 C :   -0.169384
   8 O :   -0.205378
   9 C :   -0.332182
  10 N :   -0.217627
  11 C :    0.200045
  12 C :    0.244636
  13 C :   -0.594954
  14 C :   -0.587192
  15 N :   -0.696894
  16 N :   -0.200703
  17 H :    0.150901
  18 H :    0.152830
  19 H :    0.152155
  20 H :    0.383955
  21 H :    0.150147
  22 H :    0.155995
  23 H :    0.168775
  24 H :    0.313568
  25 H :    0.174235
  26 H :    0.176745
  27 H :    0.170701
  28 H :    0.168036
  29 H :    0.171366
  30 H :    0.165344
  31 H :    0.280189
  32 H :    0.285875
Sum of atomic charges:   -1.0000000

LOEWDIN ATOMIC CHARGES
----------------------
   0 C :   -0.070286
   1 O :   -0.658379
   2 C :    0.336917
   3 O :   -0.648513
   4 C :    0.059044
   5 C :    0.210422
   6 O :   -0.559755
   7 C :    0.280306
   8 O :   -0.661865
   9 C :   -0.061050
  10 N :   -0.605445
  11 C :    0.302519
  12 C :    0.055560
  13 C :   -0.364735
  14 C :   -0.382061
  15 N :   -0.702793
  16 N :   -0.625632
  17 H :    0.163133
  18 H :    0.164711
  19 H :    0.170578
  20 H :    0.309303
  21 H :    0.163590
  22 H :    0.174072
  23 H :    0.171080
  24 H :    0.286902
  25 H :    0.167875
  26 H :    0.167738
  27 H :    0.162899
  28 H :    0.164721
  29 H :    0.167304
  30 H :    0.158080
  31 H :    0.251187
  32 H :    0.252575

  Mayer bond orders larger than 0.100000
B(  0-C ,  1-O ) :   0.8605 B(  0-C , 17-H ) :   0.9694 B(  0-C , 18-H ) :   0.9708
B(  0-C , 19-H ) :   0.9702 B(  1-O ,  2-C ) :   1.0242 B(  2-C ,  3-O ) :   1.4683
B(  2-C ,  4-C ) :   1.4870 B(  3-O , 20-H ) :   0.1648 B(  4-C ,  5-C ) :   0.8750
B(  4-C , 16-N ) :   0.9273 B(  5-C ,  6-O ) :   1.0887 B(  5-C ,  7-C ) :   1.6045
B(  6-O ,  7-C ) :   0.1119 B(  6-O , 20-H ) :   0.6847 B(  7-C ,  8-O ) :   1.2520
B(  7-C , 10-N ) :   1.0404 B(  8-O ,  9-C ) :   0.8411 B(  9-C , 21-H ) :   0.9612
B(  9-C , 22-H ) :   0.9681 B(  9-C , 23-H ) :   0.9633 B( 10-N , 11-C ) :   1.0066
B( 10-N , 24-H ) :   0.8441 B( 11-C , 12-C ) :   0.8735 B( 11-C , 15-N ) :  -0.1128
B( 11-C , 16-N ) :   1.8972 B( 12-C , 13-C ) :   0.8899 B( 12-C , 14-C ) :   0.9566
B( 12-C , 15-N ) :   0.8777 B( 13-C , 25-H ) :   0.9734 B( 13-C , 26-H ) :   0.9769
B( 13-C , 27-H ) :   0.9663 B( 14-C , 28-H ) :   0.9734 B( 14-C , 29-H ) :   0.9771
B( 14-C , 30-H ) :   0.9723 B( 15-N , 31-H ) :   0.9107 B( 15-N , 32-H ) :   0.9133

Dispersion correction           -0.013079427
FINAL SINGLE POINT ENERGY      -855.784619378381

DIPOLE MOMENT
-------------
                                X             Y             Z
Electronic contribution:      5.54129       9.74791      -1.06552
Nuclear contribution   :     -8.63235     -11.74138       2.10725
                        -----------------------------------------
Total Dipole Moment    :     -3.09107      -1.99347       1.04173
                        -----------------------------------------
Magnitude (a.u.)       :      3.82281
Magnitude (Debye)      :      9.71680

Rotational constants in cm-1:     0.017306     0.013002     0.007962
Rotational constants in MHz :   518.806592   389.803405   238.700183

                             ****ORCA TERMINATED NORMALLY****
TOTAL RUN TIME: 0 days 0 hours 1 minutes 19 seconds 337 msec
