   * xtb version 6.5.1 (579679a) compiled by 'ehlert@majestix' on 2022-07-11
          program call               : /lustre/hpc/kemi/ree/PhD/git/ReactivityQM/dep/xtb-6.5.1/bin/xtb --gfn 1 /lustre/hpc/kemi/ree/PhD/git/ReactivityQM/calculations/R01/reac02prodE07/conf04/R01_reac02prodE07_conf04_gfn1.xyz --opt --vfukui --chrg -1 --uhf 0 --alpb DMSO

   ID    Z sym.   atoms
    1    6 C      1, 3, 5, 6, 8, 10, 12-15
    2    8 O      2, 4, 7, 9
    3    7 N      11, 16, 17
    4    1 H      18-33

      * Solvation model:               ALPB
        Solvent                        DMSO
        Solvent mass                       7.8130E+01 g/mol
          :  Hamiltonian                  GFN1-xTB          :
 * total energy  :   -58.5037321 Eh     change       -0.6416201E-11 Eh
 * total energy  :   -58.5192084 Eh     change       -0.1547621E-01 Eh
 * total energy  :   -58.5232859 Eh     change       -0.4077568E-02 Eh
 * total energy  :   -58.5238155 Eh     change       -0.5295871E-03 Eh
 * total energy  :   -58.5242491 Eh     change       -0.4335685E-03 Eh
 * total energy  :   -58.5245115 Eh     change       -0.2623919E-03 Eh
 * total energy  :   -58.5250008 Eh     change       -0.4893106E-03 Eh
 * total energy  :   -58.5255007 Eh     change       -0.4999035E-03 Eh
 * total energy  :   -58.5262436 Eh     change       -0.7428761E-03 Eh
 * total energy  :   -58.5263927 Eh     change       -0.1491617E-03 Eh
 * total energy  :   -58.5310520 Eh     change       -0.1106876E-04 Eh
 * total energy  :   -58.5310678 Eh     change       -0.1575044E-04 Eh
 * total energy  :   -58.5310872 Eh     change       -0.1942238E-04 Eh
 * total energy  :   -58.5311012 Eh     change       -0.1402232E-04 Eh
 * total energy  :   -58.5311122 Eh     change       -0.1096960E-04 Eh
 * total energy  :   -58.5311217 Eh     change       -0.9541460E-05 Eh
 * total energy  :   -58.5311231 Eh     change       -0.1350937E-05 Eh
 * total energy  :   -58.5311293 Eh     change       -0.6191992E-05 Eh
 * total energy  :   -58.5311327 Eh     change       -0.3449716E-05 Eh
   *** GEOMETRY OPTIMIZATION CONVERGED AFTER 105 ITERATIONS ***

 final structure:
================
33
 xtb: 6.5.1 (579679a)
C            4.59947038300631       -1.01156183659305       -0.00941465520604
O            3.19253118291607       -0.90373220712540       -0.07312459766707
C            2.69547934498592        0.40636228991916        0.03335938099345
O            3.53074223337330        1.36009718148434        0.14430602273258
C            1.32477539302654        0.54277950135938       -0.01448716302259
C            0.70339236728063        1.85963818078829        0.15073654374699
O            1.51517313882086        2.91922085525928        0.46146698135448
C           -0.63142497461080        1.98000593606091        0.07106673113731
O           -1.38581074554943        3.13410488549304        0.25499373535857
C           -1.28041258387122        3.73914979063894        1.53641736867161
N           -1.42448374396606        0.84296011182310       -0.31799629745477
C           -0.79247110412607       -0.40532524768306       -0.14616601853979
C           -1.73921030164948       -1.59141349368369       -0.19273208974139
C           -2.15157899186219       -1.83684661154124       -1.65167585002596
C           -1.05783088825147       -2.83797344916897        0.38733783343163
N           -2.94615054413608       -1.25147491572661        0.56874969594155
N            0.46516277659678       -0.57776896268898       -0.06678619371319
H            5.08139622488973       -0.48537729796253       -0.84396922746145
H            4.99151201904454       -0.60125821441960        0.93022333457386
H            4.84644724760240       -2.07360656504669       -0.06636633795916
H            2.45533969664809        2.54183389485820        0.41297132430427
H           -1.54395791257632        3.03234253335885        2.33404028007941
H           -1.98288274893407        4.57531692228540        1.55327662303728
H           -0.26535884275547        4.11708917900342        1.71882424188945
H           -2.36267448267593        0.86004184835504        0.06909943510661
H           -2.64766293993079       -0.95143385798032       -2.05009800568732
H           -1.27249410215816       -2.05397893834435       -2.25899414246801
H           -2.83752062398454       -2.68104060194576       -1.71418571362477
H           -0.77359503025514       -2.65899634444310        1.42404055670589
H           -0.15783791668718       -3.06881360180412       -0.18398479933418
H           -1.73470093393492       -3.68995522799089        0.35012757146360
H           -2.74671980557999       -1.29776589129791        1.55946273727437
H           -3.66664479069447       -1.93261884524181        0.37852269410169

          :  Hamiltonian                  GFN1-xTB          :
         :: total energy             -58.531132703868 Eh    ::
         :: gradient norm              0.000963195912 Eh/a0 ::
         :: HOMO-LUMO gap              2.237722200323 eV    ::
         :: SCC energy               -59.064687724655 Eh    ::
         :: -> Gsolv                  -0.105506788544 Eh    ::
         :: repulsion energy           0.551540562520 Eh    ::

    * Orbital Energies and Occupations

         #    Occupation            Energy/Eh            Energy/eV
      -------------------------------------------------------------
         1        2.0000           -0.7657556             -20.8373
       ...           ...                  ...                  ...
        36        2.0000           -0.4747904             -12.9197
        37        2.0000           -0.4692154             -12.7680
        38        2.0000           -0.4624238             -12.5832
        39        2.0000           -0.4574268             -12.4472
        40        2.0000           -0.4487283             -12.2105
        41        2.0000           -0.4386940             -11.9375
        42        2.0000           -0.4327271             -11.7751
        43        2.0000           -0.4092547             -11.1364
        44        2.0000           -0.3992379             -10.8638
        45        2.0000           -0.3916032             -10.6561
        46        2.0000           -0.3763139             -10.2400
        47        2.0000           -0.3686902             -10.0326
        48        2.0000           -0.2933765              -7.9832 (HOMO)
        49                         -0.2111417              -5.7455 (LUMO)
        50                         -0.1807410              -4.9182
        51                         -0.1146724              -3.1204
        52                         -0.1097796              -2.9873
        53                         -0.1079859              -2.9384
        54                         -0.1044379              -2.8419
        55                         -0.0877930              -2.3890
        56                         -0.0849181              -2.3107
        57                         -0.0635474              -1.7292
        58                         -0.0569963              -1.5509
        59                         -0.0512231              -1.3939
       ...                                ...                  ...
       100                          0.7101926              19.3253
      -------------------------------------------------------------
                  HL-Gap            0.0822348 Eh            2.2377 eV

Wiberg/Mayer (AO) data.
largest (>0.10) Wiberg bond orders for each atom

     #   Z sym  total        # sym  WBO       # sym  WBO       # sym  WBO
 ---------------------------------------------------------------------------
     1   6 C    3.919 --    20 H    0.987    18 H    0.981    19 H    0.980
                             2 O    0.951
     2   8 O    2.063 --     1 C    0.951     3 C    0.936
     3   6 C    3.872 --     5 C    1.430     4 O    1.335     2 O    0.936
     4   8 O    1.792 --     3 C    1.335    21 H    0.129     5 C    0.122
     5   6 C    3.861 --     3 C    1.430     6 C    1.068    17 N    1.055
                             4 O    0.122
     6   6 C    3.913 --     8 C    1.653     5 C    1.068     7 O    1.032
     7   8 O    1.973 --     6 C    1.032    21 H    0.747
     8   6 C    3.824 --     6 C    1.653    11 N    0.963     9 O    0.950
     9   8 O    2.027 --     8 C    0.950    10 C    0.935
    10   6 C    3.915 --    23 H    0.986    22 H    0.983    24 H    0.981
                             9 O    0.935
    11   7 N    3.193 --    12 C    1.046     8 C    0.963    25 H    0.914
                            17 N    0.112
    12   6 C    3.946 --    17 N    1.727    11 N    1.046    13 C    0.975
    13   6 C    3.964 --    15 C    0.992    14 C    0.986    16 N    0.975
                            12 C    0.975
    14   6 C    3.994 --    27 H    0.987    13 C    0.986    26 H    0.986
                            28 H    0.986
    15   6 C    3.996 --    13 C    0.992    31 H    0.988    29 H    0.985
                            30 H    0.983
    16   7 N    2.973 --    13 C    0.975    32 H    0.948    33 H    0.948
    17   7 N    3.026 --    12 C    1.727     5 C    1.055    11 N    0.112
    18   1 H    1.021 --     1 C    0.981
    19   1 H    1.021 --     1 C    0.980
    20   1 H    1.020 --     1 C    0.987
    21   1 H    0.889 --     7 O    0.747     4 O    0.129
    22   1 H    1.014 --    10 C    0.983
    23   1 H    1.019 --    10 C    0.986
    24   1 H    1.025 --    10 C    0.981
    25   1 H    0.984 --    11 N    0.914
    26   1 H    1.011 --    14 C    0.986
    27   1 H    1.008 --    14 C    0.987
    28   1 H    1.003 --    14 C    0.986
    29   1 H    1.011 --    15 C    0.985
    30   1 H    1.018 --    15 C    0.983
    31   1 H    1.006 --    15 C    0.988
    32   1 H    0.964 --    16 N    0.948
    33   1 H    0.963 --    16 N    0.948
 ---------------------------------------------------------------------------

           -------------------------------------------------
          | TOTAL ENERGY              -58.531132703868 Eh   |
          | GRADIENT NORM               0.000963195912 Eh/α |
          | HOMO-LUMO GAP               2.237722200323 eV   |
           -------------------------------------------------

 * finished run on 2023/06/20 at 15:02:06.561
