   * xtb version 6.5.1 (579679a) compiled by 'ehlert@majestix' on 2022-07-11
          program call               : /lustre/hpc/kemi/ree/PhD/git/ReactivityQM/dep/xtb-6.5.1/bin/xtb --gfn 1 /lustre/hpc/kemi/ree/PhD/git/ReactivityQM/calculations/R02methylcation/reac01prodN10/conf05/R02methylcation_reac01prodN10_conf05_gfn1.xyz --opt --vfukui --chrg 0 --uhf 0 --alpb DMSO

   ID    Z sym.   atoms
    1    6 C      1, 3, 5, 6, 8, 11-15, 17, 19, 22, 23
    2    8 O      2, 4, 7, 9, 18, 24
    3    7 N      10, 16, 20, 21, 25
    4    1 H      26-42

      * Solvation model:               ALPB
        Solvent                        DMSO
        Solvent mass                       7.8130E+01 g/mol
          :  Hamiltonian                  GFN1-xTB          :
 * total energy  :   -82.9655189 Eh     change       -0.1267608E-10 Eh
 * total energy  :   -82.9764642 Eh     change       -0.1094530E-01 Eh
 * total energy  :   -82.9807814 Eh     change       -0.4317247E-02 Eh
 * total energy  :   -82.9814371 Eh     change       -0.6556845E-03 Eh
 * total energy  :   -82.9819369 Eh     change       -0.4997776E-03 Eh
 * total energy  :   -82.9823452 Eh     change       -0.4082726E-03 Eh
 * total energy  :   -82.9827793 Eh     change       -0.4341247E-03 Eh
 * total energy  :   -82.9831798 Eh     change       -0.4005058E-03 Eh
 * total energy  :   -82.9834768 Eh     change       -0.2970416E-03 Eh
 * total energy  :   -82.9836656 Eh     change       -0.1887309E-03 Eh
 * total energy  :   -82.9843801 Eh     change       -0.5141630E-05 Eh
 * total energy  :   -82.9843982 Eh     change       -0.1810904E-04 Eh
 * total energy  :   -82.9844067 Eh     change       -0.8496480E-05 Eh
 * total energy  :   -82.9844161 Eh     change       -0.9416350E-05 Eh
 * total energy  :   -82.9844282 Eh     change       -0.1210514E-04 Eh
 * total energy  :   -82.9844426 Eh     change       -0.1439342E-04 Eh
 * total energy  :   -82.9844549 Eh     change       -0.1233136E-04 Eh
 * total energy  :   -82.9844646 Eh     change       -0.9656734E-05 Eh
 * total energy  :   -82.9844692 Eh     change       -0.4610631E-05 Eh
   *** GEOMETRY OPTIMIZATION CONVERGED AFTER 34 ITERATIONS ***

 final structure:
================
42
 xtb: 6.5.1 (579679a)
C           -3.70958553814625        3.35996213844785       -1.80071922550996
O           -3.05384850880626        2.54756611858703       -0.81780944248839
C           -2.81973720992920        1.29041336979702       -1.14380081003078
O           -3.10585947703271        0.78898259928199       -2.20119438372398
C           -2.12238429042760        0.52866090105835       -0.03285147710420
C           -2.14033031250210        1.01333676540471        1.37907840002878
O           -3.01033450581228        1.70008753921588        1.84708771248896
C           -0.95815130906581        0.50269292713430        2.20894668428271
O           -0.55267295137980        1.06776163067378        3.20252893058572
N           -0.38620957616050       -0.61334724635604        1.70580215334949
C           -0.89071962047692       -1.39445325564443        0.58726260614969
C           -1.92885491020714       -2.39911947957873        1.10813692575624
C            0.31197613141931       -2.05960677679570       -0.15406707643561
C            1.02507036873837       -3.10474846644071        0.70845377026785
C           -0.15809041407130       -2.68820649754528       -1.47030585130078
N            1.23357243806336       -0.95457970615795       -0.43993802283083
C            2.38728045504441       -1.09041874842340       -1.12479115905801
O            2.78311486397304       -2.11285421351421       -1.65957821753409
C            3.15590955805018        0.17885413420578       -1.19644736624520
N            4.25830386327034        0.39674342724298       -1.84261684149275
N            4.58715413366079        1.70213169362533       -1.63194219340304
C            3.66574918031401        2.20160023035527       -0.86893792074021
C            3.57501301104564        3.58390393452842       -0.35058684022370
O            2.72734944030320        1.29080396774377       -0.55809315094275
N           -1.56465848656662       -0.56575663523531       -0.36952043329061
H           -3.10554761668610        3.40170690027938       -2.70922789209333
H           -3.81157449884479        4.35079742628756       -1.36419153550236
H           -4.68998800373103        2.93964610402416       -2.03429936363747
H            0.32317708601834       -1.03865348412262        2.28242710822178
H           -2.33443651321544       -2.98743347815404        0.28864989549865
H           -1.47072009514135       -3.05817949436601        1.84066220446047
H           -2.73804807943774       -1.84798183031912        1.58468513206768
H            1.34553038643000       -2.67979072767757        1.65705798235987
H            1.90429485211435       -3.46660171929309        0.17659445000509
H            0.36688685452279       -3.94935611680230        0.90056898909890
H            0.68988188399028       -3.12818548591735       -1.99165285877394
H           -0.88353080325782       -3.47362659912805       -1.26906487281377
H           -0.61745154239699       -1.93366004379288       -2.10705540328533
H            1.06496688257380       -0.08303991440221        0.03889673362540
H            3.68383701903716        3.58248914670172        0.73406965272210
H            4.36174257608755        4.19132308425685       -0.79173226151621
H            2.60192627863392        4.01013388081025       -0.59135273097033

          :  Hamiltonian                  GFN1-xTB          :
         :: total energy             -82.984469169811 Eh    ::
         :: gradient norm              0.000513696998 Eh/a0 ::
         :: HOMO-LUMO gap              1.772265082875 eV    ::
         :: SCC energy               -83.765610374488 Eh    ::
         :: -> Gsolv                  -0.058075301992 Eh    ::
         :: repulsion energy           0.808613224167 Eh    ::

    * Orbital Energies and Occupations

         #    Occupation            Energy/Eh            Energy/eV
      -------------------------------------------------------------
         1        2.0000           -0.8672185             -23.5982
       ...           ...                  ...                  ...
        55        2.0000           -0.5070496             -13.7975
        56        2.0000           -0.5062193             -13.7749
        57        2.0000           -0.5058497             -13.7649
        58        2.0000           -0.5028439             -13.6831
        59        2.0000           -0.4962519             -13.5037
        60        2.0000           -0.4821522             -13.1200
        61        2.0000           -0.4810763             -13.0908
        62        2.0000           -0.4696844             -12.7808
        63        2.0000           -0.4634895             -12.6122
        64        2.0000           -0.4618875             -12.5686
        65        2.0000           -0.4529783             -12.3262
        66        2.0000           -0.4498139             -12.2401
        67        2.0000           -0.4380556             -11.9201 (HOMO)
        68                         -0.3729260             -10.1478 (LUMO)
        69                         -0.3205992              -8.7239
        70                         -0.3121593              -8.4943
        71                         -0.2583859              -7.0310
        72                         -0.2503849              -6.8133
        73                         -0.2064898              -5.6189
        74                         -0.2004518              -5.4546
        75                         -0.1441890              -3.9236
        76                         -0.1436751              -3.9096
        77                         -0.1422179              -3.8699
        78                         -0.1373293              -3.7369
       ...                                ...                  ...
       134                          0.7678578              20.8945
      -------------------------------------------------------------
                  HL-Gap            0.0651295 Eh            1.7723 eV

Wiberg/Mayer (AO) data.
largest (>0.10) Wiberg bond orders for each atom

     #   Z sym  total        # sym  WBO       # sym  WBO       # sym  WBO
 ---------------------------------------------------------------------------
     1   6 C    3.859 --    27 H    0.985    26 H    0.979    28 H    0.978
                             2 O    0.884
     2   8 O    2.226 --     3 C    1.148     1 C    0.884     4 O    0.147
     3   6 C    3.854 --     4 O    1.684     2 O    1.148     5 C    0.944
     4   8 O    1.949 --     3 C    1.684     2 O    0.147
     5   6 C    3.953 --    25 N    1.800     6 C    0.989     3 C    0.944
     6   6 C    3.854 --     7 O    1.810     5 C    0.989     8 C    0.904
     7   8 O    2.015 --     6 C    1.810
     8   6 C    3.903 --     9 O    1.641    10 N    1.242     6 C    0.904
     9   8 O    1.934 --     8 C    1.641    10 N    0.183
    10   7 N    3.357 --     8 C    1.242    11 C    0.935    29 H    0.881
                             9 O    0.183
    11   6 C    3.913 --    25 N    0.995    12 C    0.951    13 C    0.937
                            10 N    0.935
    12   6 C    3.982 --    32 H    0.981    30 H    0.979    31 H    0.979
                            11 C    0.951
    13   6 C    3.928 --    15 C    0.997    14 C    0.995    11 C    0.937
                            16 N    0.927
    14   6 C    3.988 --    13 C    0.995    35 H    0.982    33 H    0.980
                            34 H    0.976
    15   6 C    3.988 --    13 C    0.997    38 H    0.982    37 H    0.982
                            36 H    0.977
    16   7 N    3.349 --    17 C    1.258    13 C    0.927    39 H    0.893
                            18 O    0.177
    17   6 C    3.917 --    18 O    1.585    16 N    1.258    19 C    0.991
    18   8 O    1.904 --    17 C    1.585    16 N    0.177
    19   6 C    3.872 --    20 N    1.624    24 O    1.046    17 C    0.991
    20   7 N    3.000 --    19 C    1.624    21 N    1.198
    21   7 N    2.982 --    22 C    1.612    20 N    1.198
    22   6 C    3.868 --    21 N    1.612    24 O    1.071    23 C    1.032
    23   6 C    3.986 --    22 C    1.032    41 H    0.982    42 H    0.966
                            40 H    0.960
    24   8 O    2.314 --    22 C    1.071    19 C    1.046
    25   7 N    3.052 --     5 C    1.800    11 C    0.995
    26   1 H    1.005 --     1 C    0.979
    27   1 H    1.008 --     1 C    0.985
    28   1 H    1.004 --     1 C    0.978
    29   1 H    0.927 --    10 N    0.881
    30   1 H    0.999 --    12 C    0.979
    31   1 H    0.999 --    12 C    0.979
    32   1 H    0.999 --    12 C    0.981
    33   1 H    0.999 --    14 C    0.980
    34   1 H    1.005 --    14 C    0.976
    35   1 H    1.000 --    14 C    0.982
    36   1 H    1.010 --    15 C    0.977
    37   1 H    1.001 --    15 C    0.982
    38   1 H    1.014 --    15 C    0.982
    39   1 H    0.947 --    16 N    0.893
    40   1 H    0.996 --    23 C    0.960
    41   1 H    0.998 --    23 C    0.982
    42   1 H    0.997 --    23 C    0.966
 ---------------------------------------------------------------------------

           -------------------------------------------------
          | TOTAL ENERGY              -82.984469169811 Eh   |
          | GRADIENT NORM               0.000513696998 Eh/α |
          | HOMO-LUMO GAP               1.772265082875 eV   |
           -------------------------------------------------

 * finished run on 2023/06/21 at 17:41:43.646
