   * xtb version 6.5.1 (579679a) compiled by 'ehlert@majestix' on 2022-07-11
          program call               : /lustre/hpc/kemi/ree/PhD/git/ReactivityQM/dep/xtb-6.5.1/bin/xtb --gfn 1 /lustre/hpc/kemi/ree/PhD/git/ReactivityQM/calculations/R02oxygendeprot/reac01prodE03/conf11/R02oxygendeprot_reac01prodE03_conf11_gfn1.xyz --opt --vfukui --chrg -2 --uhf 0 --alpb DMSO

   ID    Z sym.   atoms
    1    6 C      1, 3, 5, 6, 8-11, 13, 15, 18, 19, 22, 24
    2    8 O      2, 4, 14, 20, 23, 25
    3    7 N      7, 12, 16, 17, 21
    4    1 H      26-42

      * Solvation model:               ALPB
        Solvent                        DMSO
        Solvent mass                       7.8130E+01 g/mol
          :  Hamiltonian                  GFN1-xTB          :
 * total energy  :   -83.5531277 Eh     change       -0.3269463E-08 Eh
 * total energy  :   -83.5674333 Eh     change       -0.1430565E-01 Eh
 * total energy  :   -83.5732352 Eh     change       -0.5801869E-02 Eh
 * total energy  :   -83.5745044 Eh     change       -0.1269203E-02 Eh
 * total energy  :   -83.5753398 Eh     change       -0.8354134E-03 Eh
 * total energy  :   -83.5758132 Eh     change       -0.4734192E-03 Eh
 * total energy  :   -83.5762292 Eh     change       -0.4159748E-03 Eh
 * total energy  :   -83.5765792 Eh     change       -0.3499922E-03 Eh
 * total energy  :   -83.5768565 Eh     change       -0.2773106E-03 Eh
 * total energy  :   -83.5770605 Eh     change       -0.2040298E-03 Eh
 * total energy  :   -83.5824784 Eh     change       -0.1807855E-04 Eh
 * total energy  :   -83.5824890 Eh     change       -0.1053514E-04 Eh
 * total energy  :   -83.5824960 Eh     change       -0.7000379E-05 Eh
 * total energy  :   -83.5825057 Eh     change       -0.9714195E-05 Eh
 * total energy  :   -83.5825148 Eh     change       -0.9143221E-05 Eh
 * total energy  :   -83.5825228 Eh     change       -0.8011054E-05 Eh
 * total energy  :   -83.5825322 Eh     change       -0.9325447E-05 Eh
 * total energy  :   -83.5825416 Eh     change       -0.9450145E-05 Eh
 * total energy  :   -83.5825459 Eh     change       -0.4253481E-05 Eh
   *** GEOMETRY OPTIMIZATION CONVERGED AFTER 61 ITERATIONS ***

 final structure:
================
42
 xtb: 6.5.1 (579679a)
C           -3.98829560019230        0.56204524520805        1.85323415694069
O           -3.59187066796571        1.82207153615075        1.33318733230247
C           -3.37265298311000        1.89551680118997       -0.04794817610353
O           -4.19325369764410        2.81252089409582       -0.68073968958314
C           -5.58775780540342        2.57457585480358       -0.58635725739583
C           -2.37290058865912        1.18901427748483       -0.68778014598094
N           -1.56227804739284        0.41822587458428        0.15283333420583
C           -0.60147907604171       -0.27920378279082       -0.35409489061625
C            0.23114400443517       -1.19247846693903        0.53025638880849
C            0.22845016734221       -0.69112646578626        1.98103467574919
C           -0.39014480072738       -2.59633263015187        0.46821528496955
N            1.58885131033356       -1.29844354581822       -0.00596953303359
C            2.46828157194141       -0.19819632452020        0.11135538402315
O            2.06083445649701        0.97808361846748        0.20982760632181
C            3.82930770166683       -0.61088880685802        0.03675760731392
N            4.27144032808772       -1.87340915916327       -0.07023367535394
N            5.63813419568881       -1.80484797822493       -0.07831978816482
C            5.96462527153320       -0.55765872133849        0.02116312729640
C            7.33814118784801        0.00499037998406        0.06325058644165
O            4.89423211415835        0.27117181141063        0.09769245415191
N           -0.34222653700241       -0.31355032967425       -1.68557882129643
C           -1.07562088100227        0.39987516614760       -2.64385166140567
O           -0.73733321659235        0.26331100108451       -3.84967689926557
C           -2.15765941316148        1.21685749225090       -2.13390783528211
O           -2.89063433043780        1.90177373414608       -2.92299852911503
H           -4.28362152129733        0.72136093466575        2.89211370273530
H           -4.83965294710686        0.14687883763712        1.29981241625280
H           -3.15997291440746       -0.15801781258282        1.82132493169501
H           -5.92933495613197        2.61875092423309        0.45496067524381
H           -6.08971286519704        3.35873944450236       -1.15624427289474
H           -5.85602192330251        1.59540853744822       -1.00588225824861
H            0.85450741348260       -1.33232232231716        2.59947964602730
H           -0.79004884114246       -0.71166448969599        2.36725419634347
H            0.60008628180662        0.33214178983961        2.03395718192376
H           -1.42415830948963       -2.55567107385369        0.80839391531318
H           -0.37016946203861       -2.97160105678763       -0.55442962531145
H            0.16056048370450       -3.28633362158313        1.10587369832542
H            2.03612207516068       -2.17648130810371        0.22369570762011
H            7.52014176332757        0.49328252443070        1.02150217824099
H            7.47219779786583        0.74779428738802       -0.72362443278631
H            8.06151481319563       -0.79577608795894       -0.07087197289355
H            0.38823144737944       -0.92038998301364       -2.02458272350593

          :  Hamiltonian                  GFN1-xTB          :
         :: total energy             -83.582545876857 Eh    ::
         :: gradient norm              0.000770548944 Eh/a0 ::
         :: HOMO-LUMO gap              0.028943466211 eV    ::
         :: SCC energy               -84.304042099503 Eh    ::
         :: -> Gsolv                  -0.290206850817 Eh    ::
         :: repulsion energy           0.747654424234 Eh    ::

    * Orbital Energies and Occupations

         #    Occupation            Energy/Eh            Energy/eV
      -------------------------------------------------------------
         1        2.0000           -0.7977118             -21.7068
       ...           ...                  ...                  ...
        56        2.0000           -0.4404353             -11.9849
        57        2.0000           -0.4278732             -11.6430
        58        2.0000           -0.4269403             -11.6176
        59        2.0000           -0.4070566             -11.0766
        60        2.0000           -0.4041262             -10.9968
        61        2.0000           -0.4015661             -10.9272
        62        2.0000           -0.4012548             -10.9187
        63        2.0000           -0.3952401             -10.7550
        64        2.0000           -0.3866775             -10.5220
        65        2.0000           -0.3760824             -10.2337
        66        2.0000           -0.3446427              -9.3782
        67        2.0000           -0.3401109              -9.2549
        68        1.2728           -0.2663520              -7.2478 (HOMO)
        69        0.7272           -0.2652883              -7.2189 (LUMO)
        70                         -0.2077373              -5.6528
        71                         -0.2039200              -5.5489
        72                         -0.1789592              -4.8697
        73                         -0.1372624              -3.7351
        74                         -0.1234874              -3.3603
        75                         -0.1159654              -3.1556
        76                         -0.1119769              -3.0470
        77                         -0.1044644              -2.8426
        78                         -0.0940451              -2.5591
        79                         -0.0751672              -2.0454
       ...                                ...                  ...
       134                          0.7293394              19.8463
      -------------------------------------------------------------
                  HL-Gap            0.0010637 Eh            0.0289 eV

Wiberg/Mayer (AO) data.
largest (>0.10) Wiberg bond orders for each atom

     #   Z sym  total        # sym  WBO       # sym  WBO       # sym  WBO
 ---------------------------------------------------------------------------
     1   6 C    3.910 --    26 H    0.985    27 H    0.982    28 H    0.975
                             2 O    0.936
     2   8 O    2.009 --     3 C    0.937     1 C    0.936
     3   6 C    3.539 --     6 C    1.464     4 O    0.965     2 O    0.937
     4   8 O    2.029 --     3 C    0.965     5 C    0.937
     5   6 C    3.911 --    30 H    0.985    29 H    0.982    31 H    0.981
                             4 O    0.937
     6   6 C    3.942 --     3 C    1.464    24 C    1.118     7 N    1.106
     7   7 N    2.980 --     8 C    1.571     6 C    1.106    21 N    0.108
     8   6 C    3.910 --     7 N    1.571    21 N    1.170     9 C    0.973
     9   6 C    3.953 --    10 C    0.990    11 C    0.985     8 C    0.973
                            12 N    0.947
    10   6 C    3.992 --     9 C    0.990    32 H    0.988    33 H    0.984
                            34 H    0.981
    11   6 C    3.992 --    36 H    0.986    35 H    0.986    37 H    0.985
                             9 C    0.985
    12   7 N    3.127 --    13 C    1.053     9 C    0.947    38 H    0.921
                            14 O    0.103
    13   6 C    3.743 --    14 O    1.452    15 C    1.169    12 N    1.053
    14   8 O    1.669 --    13 C    1.452    12 N    0.103
    15   6 C    3.687 --    16 N    1.376    13 C    1.169    20 O    0.972
    16   7 N    2.727 --    15 C    1.376    17 N    1.186
    17   7 N    2.980 --    18 C    1.628    16 N    1.186
    18   6 C    3.817 --    17 N    1.628    20 O    1.047    19 C    1.023
    19   6 C    3.994 --    18 C    1.023    41 H    0.986    40 H    0.973
                            39 H    0.970
    20   8 O    2.176 --    18 C    1.047    15 C    0.972
    21   7 N    3.395 --     8 C    1.170    22 C    1.046    42 H    0.905
                             7 N    0.108
    22   6 C    3.772 --    23 O    1.422    24 C    1.139    21 N    1.046
    23   8 O    1.644 --    22 C    1.422
    24   6 C    3.807 --    25 O    1.388    22 C    1.139     6 C    1.118
    25   8 O    1.580 --    24 C    1.388
    26   1 H    1.019 --     1 C    0.985
    27   1 H    1.015 --     1 C    0.982
    28   1 H    1.045 --     1 C    0.975
    29   1 H    1.019 --     5 C    0.982
    30   1 H    1.020 --     5 C    0.985
    31   1 H    1.014 --     5 C    0.981
    32   1 H    1.005 --    10 C    0.988
    33   1 H    1.019 --    10 C    0.984
    34   1 H    1.021 --    10 C    0.981
    35   1 H    1.008 --    11 C    0.986
    36   1 H    1.006 --    11 C    0.986
    37   1 H    1.002 --    11 C    0.985
    38   1 H    0.977 --    12 N    0.921
    39   1 H    1.001 --    19 C    0.970
    40   1 H    1.001 --    19 C    0.973
    41   1 H    1.005 --    19 C    0.986
    42   1 H    0.971 --    21 N    0.905
 ---------------------------------------------------------------------------

           -------------------------------------------------
          | TOTAL ENERGY              -83.582545876857 Eh   |
          | GRADIENT NORM               0.000770548944 Eh/α |
          | HOMO-LUMO GAP               0.028943466211 eV   |
           -------------------------------------------------

 * finished run on 2023/06/21 at 17:02:55.692
