   * xtb version 6.5.1 (579679a) compiled by 'ehlert@majestix' on 2022-07-11
          program call               : /lustre/hpc/kemi/ree/PhD/git/ReactivityQM/dep/xtb-6.5.1/bin/xtb --gfn 1 /lustre/hpc/kemi/ree/PhD/git/ReactivityQM/calculations/R02deprot/reac01prodN03/conf17/R02deprot_reac01prodN03_conf17_gfn1.xyz --opt --vfukui --chrg 0 --uhf 0 --alpb DMSO

   ID    Z sym.   atoms
    1    6 C      1, 3, 5, 7-10, 12, 14, 17, 18, 21, 22, 24
    2    8 O      2, 4, 13, 19, 23, 25
    3    7 N      6, 11, 15, 16, 20
    4    1 H      26-42

      * Solvation model:               ALPB
        Solvent                        DMSO
        Solvent mass                       7.8130E+01 g/mol
          :  Hamiltonian                  GFN1-xTB          :
 * total energy  :   -82.9997966 Eh     change       -0.1698197E-10 Eh
 * total energy  :   -83.0098493 Eh     change       -0.1005273E-01 Eh
 * total energy  :   -83.0137747 Eh     change       -0.3925401E-02 Eh
 * total energy  :   -83.0148354 Eh     change       -0.1060621E-02 Eh
 * total energy  :   -83.0158363 Eh     change       -0.1000942E-02 Eh
 * total energy  :   -83.0165188 Eh     change       -0.6825232E-03 Eh
 * total energy  :   -83.0170450 Eh     change       -0.5262042E-03 Eh
 * total energy  :   -83.0173622 Eh     change       -0.3171322E-03 Eh
 * total energy  :   -83.0175102 Eh     change       -0.1480350E-03 Eh
 * total energy  :   -83.0175823 Eh     change       -0.7214530E-04 Eh
 * total energy  :   -83.0183371 Eh     change       -0.1253199E-04 Eh
 * total energy  :   -83.0183482 Eh     change       -0.1106450E-04 Eh
 * total energy  :   -83.0183600 Eh     change       -0.1187995E-04 Eh
 * total energy  :   -83.0183750 Eh     change       -0.1498908E-04 Eh
 * total energy  :   -83.0183856 Eh     change       -0.1054952E-04 Eh
 * total energy  :   -83.0183944 Eh     change       -0.8770226E-05 Eh
 * total energy  :   -83.0184013 Eh     change       -0.6942274E-05 Eh
 * total energy  :   -83.0184087 Eh     change       -0.7451585E-05 Eh
 * total energy  :   -83.0184122 Eh     change       -0.3478143E-05 Eh
   *** GEOMETRY OPTIMIZATION CONVERGED AFTER 38 ITERATIONS ***

 final structure:
================
42
 xtb: 6.5.1 (579679a)
C           -5.45259884028263        1.62354924002986       -1.78090687578198
O           -4.25449448256817        1.04668004239141       -1.25122143443356
C           -4.33446071680292        0.52909805939091       -0.03331418721519
O           -5.36010060268169        0.53298714428572        0.62576362048186
C           -3.06797578126015       -0.05968758469886        0.45725775980385
N           -1.97868420292267        0.00314613871686       -0.36251419039782
C           -0.84735117247935       -0.50818322970322        0.00398900074467
C            0.28128532728553       -0.38504383321612       -1.01165304237242
C            0.44083927180624       -1.69890397738747       -1.78426955741023
C           -0.04368719029583        0.74814057637045       -1.99665715999547
N            1.54659545130405       -0.06689141975265       -0.35099331016194
C            1.64438949373432        0.95702813003972        0.52602882712356
O            0.69770542872697        1.60646063714883        0.93861967228998
C            3.03482903082445        1.18930089696489        0.98426779158768
N            3.45627119822294        2.06612018720919        1.84163896399092
N            4.80312306592022        1.89366026259071        1.95083685186480
C            5.12187708102691        0.92072081420349        1.15472097804290
C            6.46284893503772        0.34635640744644        0.91262031425660
O            4.04858392811689        0.43034871980666        0.51329636576131
N           -0.70278611274502       -1.15772627708611        1.20101092238380
C            0.52441416337318       -1.82320359567265        1.63844600591560
C           -1.72922899484341       -1.22481556026816        2.14201971098866
O           -1.54743002166702       -1.76191593907306        3.22558288095267
C           -2.98970294589694       -0.63309897400769        1.70124882764292
O           -4.00663876807054       -0.70478171394049        2.56451348108032
H           -6.25682148711073        0.88452786110355       -1.77672746134256
H           -5.22537167158647        1.93220596041465       -2.79898309273885
H           -5.75001876109268        2.48537231954226       -1.17904108770482
H            0.70701839342744       -2.52242960336104       -1.12606039871383
H            1.22067300516339       -1.58774414754606       -2.53517240531611
H           -0.49659654081057       -1.93947360074331       -2.28341935224175
H            0.78631908406482        0.87045284896543       -2.68929019120359
H           -0.94494588872408        0.50402994772302       -2.55548371691157
H           -0.20409130840804        1.68072727770733       -1.45732091241691
H            2.38488355997236       -0.47957578388440       -0.72157457791234
H            6.46930134942213       -0.70868606865681        1.18726953350747
H            7.20401671258215        0.88195608891849        1.50102846356932
H            6.71175808301024        0.41811812385296       -0.14616406814597
H            1.05729743788579       -1.18023884655552        2.34009406818635
H            1.16122833260810       -2.05149060986957        0.79445507987635
H            0.24489843987789       -2.74786882761147        2.14377882366926
H           -4.81717028314581       -0.30922509178881        2.17131407869277

          :  Hamiltonian                  GFN1-xTB          :
         :: total energy             -83.018412225714 Eh    ::
         :: gradient norm              0.000743408028 Eh/a0 ::
         :: HOMO-LUMO gap              2.762059520169 eV    ::
         :: SCC energy               -83.799122853974 Eh    ::
         :: -> Gsolv                  -0.063620869266 Eh    ::
         :: repulsion energy           0.807773467121 Eh    ::

    * Orbital Energies and Occupations

         #    Occupation            Energy/Eh            Energy/eV
      -------------------------------------------------------------
         1        2.0000           -0.8670894             -23.5947
       ...           ...                  ...                  ...
        55        2.0000           -0.5067761             -13.7901
        56        2.0000           -0.5019699             -13.6593
        57        2.0000           -0.4998356             -13.6012
        58        2.0000           -0.4881885             -13.2843
        59        2.0000           -0.4824404             -13.1279
        60        2.0000           -0.4749969             -12.9253
        61        2.0000           -0.4685939             -12.7511
        62        2.0000           -0.4645579             -12.6413
        63        2.0000           -0.4585560             -12.4779
        64        2.0000           -0.4540970             -12.3566
        65        2.0000           -0.4479986             -12.1907
        66        2.0000           -0.4421725             -12.0321
        67        2.0000           -0.4255918             -11.5809 (HOMO)
        68                         -0.3240880              -8.8189 (LUMO)
        69                         -0.3137091              -8.5365
        70                         -0.2817470              -7.6667
        71                         -0.2580294              -7.0213
        72                         -0.2414297              -6.5696
        73                         -0.2011258              -5.4729
        74                         -0.1571602              -4.2765
        75                         -0.1421802              -3.8689
        76                         -0.1408509              -3.8327
        77                         -0.1385555              -3.7703
        78                         -0.1315878              -3.5807
       ...                                ...                  ...
       134                          0.7214403              19.6314
      -------------------------------------------------------------
                  HL-Gap            0.1015038 Eh            2.7621 eV

Wiberg/Mayer (AO) data.
largest (>0.10) Wiberg bond orders for each atom

     #   Z sym  total        # sym  WBO       # sym  WBO       # sym  WBO
 ---------------------------------------------------------------------------
     1   6 C    3.867 --    27 H    0.986    26 H    0.979    28 H    0.979
                             2 O    0.893
     2   8 O    2.216 --     3 C    1.134     1 C    0.893     4 O    0.129
     3   6 C    3.847 --     4 O    1.606     2 O    1.134     5 C    1.020
     4   8 O    1.940 --     3 C    1.606     2 O    0.129
     5   6 C    3.965 --    24 C    1.475     6 N    1.190     3 C    1.020
     6   7 N    3.030 --     7 C    1.565     5 C    1.190
     7   6 C    3.931 --     6 N    1.565    20 N    1.177     8 C    0.975
     8   6 C    3.936 --    10 C    0.987     9 C    0.985     7 C    0.975
                            11 N    0.927
     9   6 C    3.989 --     8 C    0.985    31 H    0.983    30 H    0.981
                            29 H    0.979
    10   6 C    3.988 --     8 C    0.987    32 H    0.986    33 H    0.983
                            34 H    0.982
    11   7 N    3.346 --    12 C    1.247     8 C    0.927    35 H    0.891
                            13 O    0.174
    12   6 C    3.917 --    13 O    1.587    11 N    1.247    14 C    0.995
    13   8 O    1.890 --    12 C    1.587    11 N    0.174
    14   6 C    3.873 --    15 N    1.621    19 O    1.047    12 C    0.995
    15   7 N    3.000 --    14 C    1.621    16 N    1.200
    16   7 N    2.981 --    17 C    1.609    15 N    1.200
    17   6 C    3.868 --    16 N    1.609    19 O    1.073    18 C    1.032
    18   6 C    3.986 --    17 C    1.032    37 H    0.982    38 H    0.963
                            36 H    0.962
    19   8 O    2.316 --    17 C    1.073    14 C    1.047
    20   7 N    3.509 --     7 C    1.177    22 C    1.113    21 C    0.932
                            23 O    0.137
    21   6 C    3.925 --    40 H    0.979    41 H    0.975    39 H    0.975
                            20 N    0.932
    22   6 C    3.913 --    23 O    1.580    20 N    1.113    24 C    1.071
    23   8 O    1.895 --    22 C    1.580    20 N    0.137
    24   6 C    3.922 --     5 C    1.475    25 O    1.118    22 C    1.071
    25   8 O    2.087 --    24 C    1.118    42 H    0.781
    26   1 H    1.007 --     1 C    0.979
    27   1 H    1.010 --     1 C    0.986
    28   1 H    1.006 --     1 C    0.979
    29   1 H    1.000 --     9 C    0.979
    30   1 H    0.996 --     9 C    0.981
    31   1 H    1.001 --     9 C    0.983
    32   1 H    1.001 --    10 C    0.986
    33   1 H    1.013 --    10 C    0.983
    34   1 H    1.010 --    10 C    0.982
    35   1 H    0.934 --    11 N    0.891
    36   1 H    0.996 --    18 C    0.962
    37   1 H    0.998 --    18 C    0.982
    38   1 H    0.996 --    18 C    0.963
    39   1 H    1.003 --    21 C    0.975
    40   1 H    1.010 --    21 C    0.979
    41   1 H    1.007 --    21 C    0.975
    42   1 H    0.854 --    25 O    0.781
 ---------------------------------------------------------------------------

           -------------------------------------------------
          | TOTAL ENERGY              -83.018412225714 Eh   |
          | GRADIENT NORM               0.000743408028 Eh/α |
          | HOMO-LUMO GAP               2.762059520169 eV   |
           -------------------------------------------------

 * finished run on 2023/06/20 at 18:07:49.500
