                         Program Version 5.0.1 -  RELEASE  -
|  1> # ORCA input file
|  2> ! SP r2SCAN-3c CPCM
|  3>
|  4> %maxcore 1875.0
|  5> %pal nprocs 4 end
|  6> %cpcm smd true SMDsolvent "DMSO" end
|  7>
|  8> *xyz 1 1
|  9> C      -2.380067    2.215901   -1.864541
| 10> N      -2.498684    2.055725   -0.394868
| 11> C      -3.198357    0.808255    0.091416
| 12> C      -3.399962    1.025972    1.595736
| 13> C      -4.530987    0.693246   -0.646095
| 14> C      -2.191119   -0.313929   -0.141011
| 15> N      -0.984959    0.097132   -0.361411
| 16> C       0.059853   -0.761793   -0.570270
| 17> C       1.345236   -0.044909   -0.864837
| 18> O       1.354505    1.171572   -1.018778
| 19> N       2.442032   -0.811303   -0.961294
| 20> C       3.748530   -0.216040   -1.238941
| 21> C       4.471012    0.123992    0.047617
| 22> C       5.523817   -0.667790    0.498265
| 23> C       6.180253   -0.363260    1.683726
| 24> C       5.757831    0.740348    2.401655
| 25> F       6.385846    1.041549    3.549850
| 26> C       4.714139    1.547306    1.984355
| 27> C       4.072348    1.230372    0.796271
| 28> C      -0.180845   -2.102113   -0.527620
| 29> O       0.754495   -3.043228   -0.727826
| 30> C      -1.519362   -2.606472   -0.262221
| 31> O      -1.758088   -3.805330   -0.218889
| 32> N      -2.502612   -1.640569   -0.060995
| 33> C      -3.843414   -2.161288    0.214760
| 34> H      -1.728829    3.068332   -2.042967
| 35> H      -3.362046    2.397883   -2.288752
| 36> H      -1.938273    1.312123   -2.275550
| 37> H      -1.539744    2.002845   -0.024980
| 38> H      -2.963175    2.870525   -0.007302
| 39> H      -2.442455    1.221547    2.076281
| 40> H      -4.064498    1.872428    1.760643
| 41> H      -3.844368    0.142470    2.048271
| 42> H      -4.981392    1.681385   -0.728561
| 43> H      -4.397024    0.277789   -1.642959
| 44> H      -5.220619    0.064895   -0.088349
| 45> H       2.404112   -1.800945   -0.780669
| 46> H       3.582090    0.689540   -1.830638
| 47> H       4.325149   -0.931919   -1.828827
| 48> H       5.839210   -1.528920   -0.078972
| 49> H       7.000351   -0.970602    2.044366
| 50> H       4.412503    2.402154    2.575461
| 51> H       3.252613    1.847515    0.448499
| 52> H       0.338538   -3.924633   -0.661282
| 53> H      -4.446280   -2.120079   -0.691028
| 54> H      -4.310470   -1.588727    1.009019
| 55> H      -3.736835   -3.198951    0.530523
| 56> **                         ****END OF INPUT****

CARTESIAN COORDINATES (ANGSTROEM)
---------------------------------
  C     -2.380067    2.215901   -1.864541
  N     -2.498684    2.055725   -0.394868
  C     -3.198357    0.808255    0.091416
  C     -3.399962    1.025972    1.595736
  C     -4.530987    0.693246   -0.646095
  C     -2.191119   -0.313929   -0.141011
  N     -0.984959    0.097132   -0.361411
  C      0.059853   -0.761793   -0.570270
  C      1.345236   -0.044909   -0.864837
  O      1.354505    1.171572   -1.018778
  N      2.442032   -0.811303   -0.961294
  C      3.748530   -0.216040   -1.238941
  C      4.471012    0.123992    0.047617
  C      5.523817   -0.667790    0.498265
  C      6.180253   -0.363260    1.683726
  C      5.757831    0.740348    2.401655
  F      6.385846    1.041549    3.549850
  C      4.714139    1.547306    1.984355
  C      4.072348    1.230372    0.796271
  C     -0.180845   -2.102113   -0.527620
  O      0.754495   -3.043228   -0.727826
  C     -1.519362   -2.606472   -0.262221
  O     -1.758088   -3.805330   -0.218889
  N     -2.502612   -1.640569   -0.060995
  C     -3.843414   -2.161288    0.214760
  H     -1.728829    3.068332   -2.042967
  H     -3.362046    2.397883   -2.288752
  H     -1.938273    1.312123   -2.275550
  H     -1.539744    2.002845   -0.024980
  H     -2.963175    2.870525   -0.007302
  H     -2.442455    1.221547    2.076281
  H     -4.064498    1.872428    1.760643
  H     -3.844368    0.142470    2.048271
  H     -4.981392    1.681385   -0.728561
  H     -4.397024    0.277789   -1.642959
  H     -5.220619    0.064895   -0.088349
  H      2.404112   -1.800945   -0.780669
  H      3.582090    0.689540   -1.830638
  H      4.325149   -0.931919   -1.828827
  H      5.839210   -1.528920   -0.078972
  H      7.000351   -0.970602    2.044366
  H      4.412503    2.402154    2.575461
  H      3.252613    1.847515    0.448499
  H      0.338538   -3.924633   -0.661282
  H     -4.446280   -2.120079   -0.691028
  H     -4.310470   -1.588727    1.009019
  H     -3.736835   -3.198951    0.530523

 Total Charge           Charge          ....    1
 Multiplicity           Mult            ....    1
 Number of Electrons    NEL             ....  184
 Basis Dimension        Dim             ....  625

ORBITAL ENERGIES
----------------

  NO   OCC          E(Eh)            E(eV)
   0   2.0000     -24.504071      -666.7897
   1   2.0000     -19.013584      -517.3859
   2   2.0000     -18.946416      -515.5582
   3   2.0000     -18.920907      -514.8640
   4   2.0000     -14.270022      -388.3070
   5   2.0000     -14.253037      -387.8448
   6   2.0000     -14.192119      -386.1872
   7   2.0000     -14.175931      -385.7467
   8   2.0000     -10.157822      -276.4084
   9   2.0000     -10.140916      -275.9484
  10   2.0000     -10.138629      -275.8861
  11   2.0000     -10.127765      -275.5905
  12   2.0000     -10.127126      -275.5731
  13   2.0000     -10.120611      -275.3958
  14   2.0000     -10.096823      -274.7485
  15   2.0000     -10.073311      -274.1087
  16   2.0000     -10.070466      -274.0313
  17   2.0000     -10.069415      -274.0027
  18   2.0000     -10.046899      -273.3900
  19   2.0000     -10.043728      -273.3037
  20   2.0000     -10.042562      -273.2720
  21   2.0000     -10.042488      -273.2700
  22   2.0000     -10.041608      -273.2460
  23   2.0000     -10.038455      -273.1602
  24   2.0000     -10.036637      -273.1108
  25   2.0000      -1.195345       -32.5270
  26   2.0000      -1.070928       -29.1414
  27   2.0000      -1.031736       -28.0750
  28   2.0000      -1.011307       -27.5191
  29   2.0000      -0.990255       -26.9462
  30   2.0000      -0.964905       -26.2564
  31   2.0000      -0.898606       -24.4523
  32   2.0000      -0.898000       -24.4358
  33   2.0000      -0.836238       -22.7552
  34   2.0000      -0.799566       -21.7573
  35   2.0000      -0.761099       -20.7106
  36   2.0000      -0.741317       -20.1723
  37   2.0000      -0.728662       -19.8279
  38   2.0000      -0.716248       -19.4901
  39   2.0000      -0.694159       -18.8890
  40   2.0000      -0.672044       -18.2872
  41   2.0000      -0.663017       -18.0416
  42   2.0000      -0.651163       -17.7190
  43   2.0000      -0.633292       -17.2328
  44   2.0000      -0.599368       -16.3096
  45   2.0000      -0.596610       -16.2346
  46   2.0000      -0.574895       -15.6437
  47   2.0000      -0.572170       -15.5695
  48   2.0000      -0.556144       -15.1334
  49   2.0000      -0.549312       -14.9475
  50   2.0000      -0.519751       -14.1431
  51   2.0000      -0.516859       -14.0645
  52   2.0000      -0.504447       -13.7267
  53   2.0000      -0.490065       -13.3353
  54   2.0000      -0.473261       -12.8781
  55   2.0000      -0.469857       -12.7855
  56   2.0000      -0.465487       -12.6665
  57   2.0000      -0.463150       -12.6029
  58   2.0000      -0.455100       -12.3839
  59   2.0000      -0.442106       -12.0303
  60   2.0000      -0.436671       -11.8824
  61   2.0000      -0.429628       -11.6908
  62   2.0000      -0.421421       -11.4674
  63   2.0000      -0.419755       -11.4221
  64   2.0000      -0.412308       -11.2195
  65   2.0000      -0.404650       -11.0111
  66   2.0000      -0.402167       -10.9435
  67   2.0000      -0.397208       -10.8086
  68   2.0000      -0.392680       -10.6854
  69   2.0000      -0.385549       -10.4913
  70   2.0000      -0.381644       -10.3851
  71   2.0000      -0.376544       -10.2463
  72   2.0000      -0.375861       -10.2277
  73   2.0000      -0.366833        -9.9820
  74   2.0000      -0.364926        -9.9301
  75   2.0000      -0.359381        -9.7793
  76   2.0000      -0.355369        -9.6701
  77   2.0000      -0.349736        -9.5168
  78   2.0000      -0.346389        -9.4257
  79   2.0000      -0.344973        -9.3872
  80   2.0000      -0.339428        -9.2363
  81   2.0000      -0.334726        -9.1084
  82   2.0000      -0.331219        -9.0129
  83   2.0000      -0.312940        -8.5155
  84   2.0000      -0.279909        -7.6167
  85   2.0000      -0.267862        -7.2889
  86   2.0000      -0.267231        -7.2717
  87   2.0000      -0.249002        -6.7757
  88   2.0000      -0.244957        -6.6656
  89   2.0000      -0.232717        -6.3326
  90   2.0000      -0.225551        -6.1376
  91   2.0000      -0.219397        -5.9701
  92   0.0000      -0.092849        -2.5265
  93   0.0000      -0.051886        -1.4119
  94   0.0000      -0.044688        -1.2160
  95   0.0000      -0.032285        -0.8785
  96   0.0000       0.014247         0.3877

MULLIKEN ATOMIC CHARGES
-----------------------
   0 C :   -0.337663
   1 N :   -0.317203
   2 C :    0.072576
   3 C :   -0.508548
   4 C :   -0.534762
   5 C :    0.108631
   6 N :   -0.220166
   7 C :    0.105769
   8 C :    0.058534
   9 O :   -0.465428
  10 N :   -0.100653
  11 C :   -0.358809
  12 C :    0.093225
  13 C :   -0.208851
  14 C :   -0.286894
  15 C :    0.361611
  16 F :   -0.236084
  17 C :   -0.318744
  18 C :   -0.171911
  19 C :    0.083628
  20 O :   -0.393543
  21 C :    0.209342
  22 O :   -0.493903
  23 N :    0.306014
  24 C :   -0.477993
  25 H :    0.199477
  26 H :    0.195551
  27 H :    0.209029
  28 H :    0.376023
  29 H :    0.386437
  30 H :    0.195185
  31 H :    0.195125
  32 H :    0.197345
  33 H :    0.201852
  34 H :    0.213636
  35 H :    0.204034
  36 H :    0.297174
  37 H :    0.204758
  38 H :    0.183421
  39 H :    0.188325
  40 H :    0.196813
  41 H :    0.196669
  42 H :    0.202688
  43 H :    0.365917
  44 H :    0.217404
  45 H :    0.200866
  46 H :    0.204094
Sum of atomic charges:    1.0000000

LOEWDIN ATOMIC CHARGES
----------------------
   0 C :   -0.092029
   1 N :   -0.608336
   2 C :    0.099736
   3 C :   -0.332930
   4 C :   -0.347644
   5 C :    0.374470
   6 N :   -0.578419
   7 C :    0.225852
   8 C :    0.365836
   9 O :   -0.480957
  10 N :   -0.590647
  11 C :    0.000599
  12 C :   -0.080909
  13 C :   -0.144850
  14 C :   -0.160366
  15 C :    0.200272
  16 F :   -0.296577
  17 C :   -0.158759
  18 C :   -0.139930
  19 C :    0.273961
  20 O :   -0.467422
  21 C :    0.385630
  22 O :   -0.488066
  23 N :   -0.619189
  24 C :   -0.077040
  25 H :    0.201042
  26 H :    0.196914
  27 H :    0.205861
  28 H :    0.326228
  29 H :    0.312426
  30 H :    0.180599
  31 H :    0.179948
  32 H :    0.179781
  33 H :    0.185105
  34 H :    0.181349
  35 H :    0.183020
  36 H :    0.293027
  37 H :    0.211238
  38 H :    0.200832
  39 H :    0.187109
  40 H :    0.194204
  41 H :    0.193882
  42 H :    0.195267
  43 H :    0.316017
  44 H :    0.200479
  45 H :    0.196757
  46 H :    0.216626

  Mayer bond orders larger than 0.100000
B(  0-C ,  1-N ) :   0.8760 B(  0-C , 25-H ) :   0.9459 B(  0-C , 26-H ) :   0.9377
B(  0-C , 27-H ) :   0.9359 B(  1-N ,  2-C ) :   0.9257 B(  1-N , 28-H ) :   0.8132
B(  1-N , 29-H ) :   0.8499 B(  2-C ,  3-C ) :   0.9851 B(  2-C ,  4-C ) :   0.8780
B(  2-C ,  5-C ) :   0.8644 B(  3-C , 30-H ) :   0.9472 B(  3-C , 31-H ) :   0.9506
B(  3-C , 32-H ) :   0.9467 B(  4-C , 33-H ) :   0.9631 B(  4-C , 34-H ) :   0.9548
B(  4-C , 35-H ) :   0.9277 B(  5-C ,  6-N ) :   1.5440 B(  5-C , 19-C ) :   0.1040
B(  5-C , 23-N ) :   1.3062 B(  6-N ,  7-C ) :   1.0385 B(  6-N , 23-N ) :   0.1198
B(  7-C ,  8-C ) :   0.9370 B(  7-C , 19-C ) :   1.3738 B(  7-C , 20-O ) :   0.1057
B(  8-C ,  9-O ) :   1.8314 B(  8-C , 10-N ) :   1.2206 B( 10-N , 11-C ) :   0.8261
B( 10-N , 36-H ) :   0.8842 B( 11-C , 12-C ) :   0.8520 B( 11-C , 37-H ) :   0.9774
B( 11-C , 38-H ) :   0.9753 B( 12-C , 13-C ) :   1.4036 B( 12-C , 18-C ) :   1.3831
B( 13-C , 14-C ) :   1.3619 B( 13-C , 39-H ) :   0.9459 B( 14-C , 15-C ) :   1.4072
B( 14-C , 40-H ) :   0.9346 B( 15-C , 16-F ) :   0.8828 B( 15-C , 17-C ) :   1.3852
B( 17-C , 18-C ) :   1.3765 B( 17-C , 41-H ) :   0.9346 B( 18-C , 42-H ) :   0.9391
B( 19-C , 20-O ) :   0.9923 B( 19-C , 21-C ) :   0.9977 B( 20-O , 43-H ) :   0.8154
B( 21-C , 22-O ) :   1.8265 B( 21-C , 23-N ) :   1.0587 B( 23-N , 24-C ) :   0.8297
B( 24-C , 44-H ) :   0.9285 B( 24-C , 45-H ) :   0.9340 B( 24-C , 46-H ) :   0.9374

Dispersion correction           -0.021491730
FINAL SINGLE POINT ENERGY     -1205.271959507194

DIPOLE MOMENT
-------------
                                X             Y             Z
Electronic contribution:     28.42964      -6.78419       7.11622
Nuclear contribution   :    -35.95654       8.88634      -8.31323
                        -----------------------------------------
Total Dipole Moment    :     -7.52691       2.10216      -1.19701
                        -----------------------------------------
Magnitude (a.u.)       :      7.90609
Magnitude (Debye)      :     20.09568

Rotational constants in cm-1:     0.012543     0.003442     0.003117
Rotational constants in MHz :   376.020210   103.186659    93.454508

                             ****ORCA TERMINATED NORMALLY****
TOTAL RUN TIME: 0 days 0 hours 2 minutes 30 seconds 91 msec
