   * xtb version 6.5.1 (579679a) compiled by 'ehlert@majestix' on 2022-07-11
          program call               : /lustre/hpc/kemi/ree/PhD/git/ReactivityQM/dep/xtb-6.5.1/bin/xtb --gfn 1 /lustre/hpc/kemi/ree/PhD/git/ReactivityQM/calculations/RaltegravirCLI/reac02prodN02/conf02/RaltegravirCLI_reac02prodN02_conf02_gfn1.xyz --opt --vfukui --chrg 1 --uhf 0 --alpb DMSO

   ID    Z sym.   atoms
    1    6 C      1, 3-6, 8, 9, 12-16, 18-20, 22, 25
    2    7 N      2, 7, 11, 24
    3    8 O      10, 21, 23
    4    9 F      17
    5    1 H      26-47

      * Solvation model:               ALPB
        Solvent                        DMSO
        Solvent mass                       7.8130E+01 g/mol
          :  Hamiltonian                  GFN1-xTB          :
 * total energy  :   -79.5256713 Eh     change       -0.9549694E-11 Eh
 * total energy  :   -79.5363361 Eh     change       -0.1066488E-01 Eh
 * total energy  :   -79.5398037 Eh     change       -0.3467558E-02 Eh
 * total energy  :   -79.5407063 Eh     change       -0.9026373E-03 Eh
 * total energy  :   -79.5412983 Eh     change       -0.5919249E-03 Eh
 * total energy  :   -79.5415332 Eh     change       -0.2348844E-03 Eh
 * total energy  :   -79.5416749 Eh     change       -0.1417753E-03 Eh
 * total energy  :   -79.5417438 Eh     change       -0.6892318E-04 Eh
 * total energy  :   -79.5417730 Eh     change       -0.2918236E-04 Eh
 * total energy  :   -79.5417979 Eh     change       -0.2488093E-04 Eh
 * total energy  :   -79.5419253 Eh     change       -0.6215599E-04 Eh
 * total energy  :   -79.5419613 Eh     change       -0.3596119E-04 Eh
 * total energy  :   -79.5420016 Eh     change       -0.4031226E-04 Eh
 * total energy  :   -79.5420353 Eh     change       -0.3367708E-04 Eh
 * total energy  :   -79.5420414 Eh     change       -0.6172603E-05 Eh
 * total energy  :   -79.5420628 Eh     change       -0.2135576E-04 Eh
 * total energy  :   -79.5420718 Eh     change       -0.9011378E-05 Eh
 * total energy  :   -79.5420788 Eh     change       -0.7007086E-05 Eh
 * total energy  :   -79.5420825 Eh     change       -0.3684054E-05 Eh
   *** GEOMETRY OPTIMIZATION CONVERGED AFTER 21 ITERATIONS ***

 final structure:
================
47
 xtb: 6.5.1 (579679a)
C           -2.38006664971617        2.21590074007971       -1.86454057865964
N           -2.49868441969819        2.05572534720170       -0.39486751475500
C           -3.19835727203519        0.80825487802549        0.09141640380745
C           -3.39996174829511        1.02597226261775        1.59573586460761
C           -4.53098741640408        0.69324567680602       -0.64609537749562
C           -2.19111879014261       -0.31392942908901       -0.14101130825321
N           -0.98495889492762        0.09713171224317       -0.36141112881036
C            0.05985287935653       -0.76179288476747       -0.57026975982541
C            1.34523579856828       -0.04490928182185       -0.86483668145922
O            1.35450512378796        1.17157217146989       -1.01877765387095
N            2.44203184351592       -0.81130323001180       -0.96129441587025
C            3.74852978944290       -0.21604007386301       -1.23894075797270
C            4.47101175552101        0.12399216173888        0.04761695645200
C            5.52381697036086       -0.66779022026048        0.49826468196540
C            6.18025297256170       -0.36325998312136        1.68372600970319
C            5.75783135117064        0.74034773465453        2.40165546431575
F            6.38584615394155        1.04154930962753        3.54984990388572
C            4.71413870792254        1.54730592671208        1.98435451365388
C            4.07234783724352        1.23037194133555        0.79627057547062
C           -0.18084487110213       -2.10211302115559       -0.52762041856314
O            0.75449485721755       -3.04322796314729       -0.72782598686859
C           -1.51936208669167       -2.60647199591234       -0.26222054216462
O           -1.75808764015011       -3.80533007732137       -0.21888893400885
N           -2.50261244779908       -1.64056856406608       -0.06099524049064
C           -3.84341377476647       -2.16128846358815        0.21476006905976
H           -1.72882869596712        3.06833239456259       -2.04296661163819
H           -3.36204646060212        2.39788345170664       -2.28875245408003
H           -1.93827310066103        1.31212331682477       -2.27554953743619
H           -1.53974361597581        2.00284522746872       -0.02498047438680
H           -2.96317539969953        2.87052542898020       -0.00730217271610
H           -2.44245486133344        1.22154709182402        2.07628124764434
H           -4.06449818233590        1.87242833372847        1.76064302922250
H           -3.84436790265521        0.14247009743907        2.04827126883111
H           -4.98139223344144        1.68138545507199       -0.72856074986041
H           -4.39702418725621        0.27778881792087       -1.64295899886438
H           -5.22061857210343        0.06489454654410       -0.08834850507812
H            2.40411205980778       -1.80094482688596       -0.78066900966576
H            3.58209016588102        0.68954022353357       -1.83063828493556
H            4.32514949413068       -0.93191914516924       -1.82882711140323
H            5.83920999903456       -1.52892005669069       -0.07897151178024
H            7.00035084968010       -0.97060164822561        2.04436581333242
H            4.41250314881197        2.40215445262870        2.57546056142619
H            3.25261345081397        1.84751546754724        0.44849939168051
H            0.33853843331873       -3.92463340621922       -0.66128245017318
H           -4.44628015168580       -2.12007910826920       -0.69102814221151
H           -4.31047028906862       -1.58872661707402        1.00901890701950
H           -3.73683497757957       -3.19895117163230        0.53052265122086

          :  Hamiltonian                  GFN1-xTB          :
         :: total energy             -79.542082500828 Eh    ::
         :: gradient norm              0.000754225785 Eh/a0 ::
         :: HOMO-LUMO gap              2.962748908221 eV    ::
         :: SCC energy               -80.442755154296 Eh    ::
         :: -> Gsolv                  -0.119448539311 Eh    ::
         :: repulsion energy           0.931447920332 Eh    ::

    * Orbital Energies and Occupations

         #    Occupation            Energy/Eh            Energy/eV
      -------------------------------------------------------------
         1        2.0000           -0.8814650             -23.9859
       ...           ...                  ...                  ...
        55        2.0000           -0.5273667             -14.3504
        56        2.0000           -0.5146133             -14.0033
        57        2.0000           -0.5082218             -13.8294
        58        2.0000           -0.5046868             -13.7332
        59        2.0000           -0.4887267             -13.2989
        60        2.0000           -0.4842431             -13.1769
        61        2.0000           -0.4754832             -12.9386
        62        2.0000           -0.4713215             -12.8253
        63        2.0000           -0.4554631             -12.3938
        64        2.0000           -0.4535753             -12.3424
        65        2.0000           -0.4480022             -12.1908
        66        2.0000           -0.4402271             -11.9792
        67        2.0000           -0.4382505             -11.9254 (HOMO)
        68                         -0.3293715              -8.9627 (LUMO)
        69                         -0.3014697              -8.2034
        70                         -0.2755231              -7.4974
        71                         -0.2696274              -7.3369
        72                         -0.2415790              -6.5737
        73                         -0.1780776              -4.8457
        74                         -0.1673906              -4.5549
        75                         -0.1668601              -4.5405
        76                         -0.1656666              -4.5080
        77                         -0.1483787              -4.0376
        78                         -0.1478893              -4.0243
       ...                                ...                  ...
       144                          0.7091708              19.2975
      -------------------------------------------------------------
                  HL-Gap            0.1088790 Eh            2.9627 eV

Wiberg/Mayer (AO) data.
largest (>0.10) Wiberg bond orders for each atom

     #   Z sym  total        # sym  WBO       # sym  WBO       # sym  WBO
 ---------------------------------------------------------------------------
     1   6 C    3.898 --    27 H    0.985    28 H    0.982    26 H    0.980
                             2 N    0.919
     2   7 N    3.601 --     1 C    0.919    30 H    0.894     3 C    0.890
                            29 H    0.866
     3   6 C    3.906 --     5 C    0.998     4 C    0.985     6 C    0.979
                             2 N    0.890
     4   6 C    3.982 --     3 C    0.985    31 H    0.981    32 H    0.979
                            33 H    0.974
     5   6 C    3.984 --     3 C    0.998    35 H    0.982    34 H    0.978
                            36 H    0.975
     6   6 C    3.942 --     7 N    1.562    24 N    1.191     3 C    0.979
     7   7 N    3.065 --     6 C    1.562     8 C    1.178
     8   6 C    3.954 --    20 C    1.510     7 N    1.178     9 C    0.987
     9   6 C    3.912 --    10 O    1.564    11 N    1.283     8 C    0.987
    10   8 O    1.879 --     9 C    1.564    11 N    0.175
    11   7 N    3.362 --     9 C    1.283    12 C    0.936    37 H    0.887
                            10 O    0.175
    12   6 C    3.943 --    13 C    0.993    39 H    0.977    38 H    0.969
                            11 N    0.936
    13   6 C    3.988 --    14 C    1.423    19 C    1.414    12 C    0.993
    14   6 C    3.994 --    15 C    1.439    13 C    1.423    40 H    0.971
                            18 C    0.110
    15   6 C    3.991 --    14 C    1.439    16 C    1.404    41 H    0.969
                            19 C    0.111
    16   6 C    3.861 --    15 C    1.404    18 C    1.398    17 F    0.925
    17   9 F    1.054 --    16 C    0.925
    18   6 C    3.992 --    19 C    1.448    16 C    1.398    42 H    0.969
                            14 C    0.110
    19   6 C    3.992 --    18 C    1.448    13 C    1.414    43 H    0.969
                            15 C    0.111
    20   6 C    3.920 --     8 C    1.510    21 O    1.091    22 C    1.080
    21   8 O    2.080 --    20 C    1.091    44 H    0.794
    22   6 C    3.911 --    23 O    1.572    24 N    1.108    20 C    1.080
    23   8 O    1.918 --    22 C    1.572    24 N    0.130
    24   7 N    3.510 --     6 C    1.191    22 C    1.108    25 C    0.924
                            23 O    0.130
    25   6 C    3.914 --    46 H    0.977    45 H    0.975    47 H    0.971
                            24 N    0.924
    26   1 H    0.990 --     1 C    0.980
    27   1 H    0.995 --     1 C    0.985
    28   1 H    1.003 --     1 C    0.982
    29   1 H    0.951 --     2 N    0.866
    30   1 H    0.921 --     2 N    0.894
    31   1 H    0.995 --     4 C    0.981
    32   1 H    0.992 --     4 C    0.979
    33   1 H    0.997 --     4 C    0.974
    34   1 H    0.993 --     5 C    0.978
    35   1 H    0.997 --     5 C    0.982
    36   1 H    0.999 --     5 C    0.975
    37   1 H    0.942 --    11 N    0.887
    38   1 H    1.008 --    12 C    0.969
    39   1 H    1.002 --    12 C    0.977
    40   1 H    0.999 --    14 C    0.971
    41   1 H    0.998 --    15 C    0.969
    42   1 H    0.998 --    18 C    0.969
    43   1 H    1.010 --    19 C    0.969
    44   1 H    0.836 --    21 O    0.794
    45   1 H    0.999 --    25 C    0.975
    46   1 H    1.002 --    25 C    0.977
    47   1 H    1.003 --    25 C    0.971
 ---------------------------------------------------------------------------

           -------------------------------------------------
          | TOTAL ENERGY              -79.542082500828 Eh   |
          | GRADIENT NORM               0.000754225785 Eh/α |
          | HOMO-LUMO GAP               2.962748908221 eV   |
           -------------------------------------------------

 * finished run on 2023/06/20 at 15:17:14.188
