   * xtb version 6.5.1 (579679a) compiled by 'ehlert@majestix' on 2022-07-11
          program call               : /lustre/hpc/kemi/ree/PhD/git/ReactivityQM/dep/xtb-6.5.1/bin/xtb --gfn 1 /lustre/hpc/kemi/ree/PhD/git/ReactivityQM/calculations/R02methylcation/reac01prodN11/conf09/R02methylcation_reac01prodN11_conf09_gfn1.xyz --opt --vfukui --chrg 0 --uhf 0 --alpb DMSO

   ID    Z sym.   atoms
    1    6 C      1, 3, 5, 7-10, 12, 13, 15, 18, 19, 22, 24
    2    8 O      2, 4, 14, 20, 23, 25
    3    7 N      6, 11, 16, 17, 21
    4    1 H      26-42

      * Solvation model:               ALPB
        Solvent                        DMSO
        Solvent mass                       7.8130E+01 g/mol
          :  Hamiltonian                  GFN1-xTB          :
 * total energy  :   -82.8626836 Eh     change       -0.2738432E-10 Eh
 * total energy  :   -82.8764282 Eh     change       -0.1374464E-01 Eh
 * total energy  :   -82.8831840 Eh     change       -0.6755791E-02 Eh
 * total energy  :   -82.8843737 Eh     change       -0.1189683E-02 Eh
 * total energy  :   -82.8850134 Eh     change       -0.6396630E-03 Eh
 * total energy  :   -82.8853730 Eh     change       -0.3596670E-03 Eh
 * total energy  :   -82.8856185 Eh     change       -0.2454512E-03 Eh
 * total energy  :   -82.8858023 Eh     change       -0.1837921E-03 Eh
 * total energy  :   -82.8859471 Eh     change       -0.1447893E-03 Eh
 * total energy  :   -82.8860700 Eh     change       -0.1229432E-03 Eh
 * total energy  :   -82.8875264 Eh     change       -0.1470778E-04 Eh
 * total energy  :   -82.8875397 Eh     change       -0.1329689E-04 Eh
 * total energy  :   -82.8875538 Eh     change       -0.1412671E-04 Eh
 * total energy  :   -82.8875643 Eh     change       -0.1050946E-04 Eh
 * total energy  :   -82.8875711 Eh     change       -0.6774692E-05 Eh
 * total energy  :   -82.8875800 Eh     change       -0.8893666E-05 Eh
 * total energy  :   -82.8875894 Eh     change       -0.9402223E-05 Eh
 * total energy  :   -82.8875955 Eh     change       -0.6113090E-05 Eh
 * total energy  :   -82.8875977 Eh     change       -0.2140805E-05 Eh
   *** GEOMETRY OPTIMIZATION CONVERGED AFTER 44 ITERATIONS ***

 final structure:
================
42
 xtb: 6.5.1 (579679a)
C           -6.81048758296348        0.80739498336246        0.78216313504534
O           -5.44122056954089        1.15941334135407        0.56249166379488
C           -4.61556820706902        0.16694781218976        0.25988633433175
O           -4.96135774954693       -0.98901722307433        0.16280495466947
C           -3.19888377685326        0.60671768262346        0.05028969841801
N           -2.33701964208841       -0.39926808649727       -0.07028716994772
C           -1.05302350711991       -0.18086813073094       -0.26728997345385
C           -0.13322586013393       -1.34417698321844       -0.54359305842882
C            0.14268498081017       -1.38079963987022       -2.05634817920202
C           -0.79108522069809       -2.65731899348186       -0.08778283179590
N            1.05141744902943       -1.10266266516687        0.24173791246326
C            2.44087009300587       -1.32402573894056       -0.16732271479020
C            3.15551820094101       -1.85086102201252        1.14515149938486
O            2.65055226187139       -2.07734506644308       -1.17884729078884
C            3.00194086449458        0.11449885971158       -0.32892049064972
N            2.31253085362807        1.19446007488506       -0.50357151300951
N            3.21918863623233        2.20915779876545       -0.66633945766199
C            4.39363118712243        1.67418224564826       -0.57450320214806
C            5.70922974515627        2.34009952040447       -0.69006137023149
O            4.31892750766108        0.34475968798257       -0.35787263111509
N           -0.52635876998723        1.05564688551242       -0.21145345537796
C           -1.27490762839103        2.21452732981266       -0.07994526924169
O           -0.73883321591604        3.30008940921658       -0.07794163890145
C           -2.77766456959057        1.99928246148338        0.01599560014630
O           -3.52435147969946        2.96294760825486        0.07614966561270
H           -7.24720270050268        0.41478972228928       -0.13881181475186
H           -7.32119795328960        1.71839351526676        1.08675578503061
H           -6.88011637199961        0.05005650883581        1.56597795276765
H            0.65186065598592       -2.30170876050542       -2.32940350274473
H           -0.81031981904717       -1.33625959018488       -2.58150978098843
H            0.75470071605002       -0.52975730529838       -2.34926415877880
H           -1.72306731611067       -2.80031251786344       -0.63190188865513
H           -1.00182868493538       -2.61649712908855        0.97870868146983
H           -0.11376174514982       -3.48406293710161       -0.28989035090421
H            0.91042668637314       -0.70953044708794        1.15676179772809
H            2.72649106767089       -2.82011109840742        1.37991573344341
H            4.21154145131228       -1.94981060929699        0.91086389322502
H            3.00986029614877       -1.15498891885984        1.96470446773347
H            6.26060608476965        1.93048053725619       -1.53671855939192
H            6.29643231522944        2.16401683985339        0.21066087047828
H            5.56571927472768        3.40883372108473       -0.83078941176465
H            0.49735104240233        1.17268631734530       -0.30872393101391

          :  Hamiltonian                  GFN1-xTB          :
         :: total energy             -82.887597671888 Eh    ::
         :: gradient norm              0.000378493680 Eh/a0 ::
         :: HOMO-LUMO gap              0.133848100409 eV    ::
         :: SCC energy               -83.649291932149 Eh    ::
         :: -> Gsolv                  -0.060451217864 Eh    ::
         :: repulsion energy           0.788714452076 Eh    ::

    * Orbital Energies and Occupations

         #    Occupation            Energy/Eh            Energy/eV
      -------------------------------------------------------------
         1        2.0000           -0.8708580             -23.6973
       ...           ...                  ...                  ...
        55        2.0000           -0.5129885             -13.9591
        56        2.0000           -0.5087542             -13.8439
        57        2.0000           -0.5050477             -13.7430
        58        2.0000           -0.5001988             -13.6111
        59        2.0000           -0.4906533             -13.3514
        60        2.0000           -0.4884395             -13.2911
        61        2.0000           -0.4805199             -13.0756
        62        2.0000           -0.4684300             -12.7466
        63        2.0000           -0.4611197             -12.5477
        64        2.0000           -0.4506314             -12.2623
        65        2.0000           -0.4467217             -12.1559
        66        2.0000           -0.4395310             -11.9602
        67        1.8603           -0.4234762             -11.5234 (HOMO)
        68        0.1397           -0.4185573             -11.3895 (LUMO)
        69                         -0.3248296              -8.8391
        70                         -0.3025947              -8.2340
        71                         -0.2770056              -7.5377
        72                         -0.2607648              -7.0958
        73                         -0.2495661              -6.7910
        74                         -0.1769094              -4.8139
        75                         -0.1441784              -3.9233
        76                         -0.1394720              -3.7952
        77                         -0.1344178              -3.6577
        78                         -0.1316796              -3.5832
       ...                                ...                  ...
       134                          0.7476258              20.3439
      -------------------------------------------------------------
                  HL-Gap            0.0049188 Eh            0.1338 eV

Wiberg/Mayer (AO) data.
largest (>0.10) Wiberg bond orders for each atom

     #   Z sym  total        # sym  WBO       # sym  WBO       # sym  WBO
 ---------------------------------------------------------------------------
     1   6 C    3.866 --    27 H    0.986    28 H    0.978    26 H    0.978
                             2 O    0.893
     2   8 O    2.209 --     3 C    1.129     1 C    0.893     4 O    0.140
     3   6 C    3.847 --     4 O    1.653     2 O    1.129     5 C    0.992
     4   8 O    1.902 --     3 C    1.653     2 O    0.140
     5   6 C    3.783 --     6 N    1.401    24 C    1.106     3 C    0.992
     6   7 N    3.000 --     5 C    1.401     7 C    1.377
     7   6 C    3.878 --     6 N    1.377    21 N    1.254     8 C    0.982
     8   6 C    3.932 --     7 C    0.982    11 N    0.963     9 C    0.957
                            10 C    0.953
     9   6 C    3.977 --    30 H    0.984    31 H    0.984    29 H    0.975
                             8 C    0.957
    10   6 C    3.973 --    33 H    0.984    34 H    0.983    32 H    0.980
                             8 C    0.953
    11   7 N    3.260 --     8 C    0.963    12 C    0.915    35 H    0.903
                            14 O    0.162
    12   6 C    3.890 --    14 O    1.264    11 N    0.915    15 C    0.838
                            13 C    0.800
    13   6 C    3.853 --    38 H    0.986    36 H    0.981    37 H    0.980
                            12 C    0.800
    14   8 O    1.616 --    12 C    1.264    11 N    0.162
    15   6 C    3.795 --    16 N    1.633    20 O    1.087    12 C    0.838
    16   7 N    3.086 --    15 C    1.633    17 N    1.157    42 H    0.101
    17   7 N    2.982 --    18 C    1.636    16 N    1.157
    18   6 C    3.859 --    17 N    1.636    20 O    1.054    19 C    1.031
    19   6 C    3.984 --    18 C    1.031    41 H    0.982    40 H    0.964
                            39 H    0.962
    20   8 O    2.326 --    15 C    1.087    18 C    1.054
    21   7 N    3.473 --     7 C    1.254    22 C    1.100    42 H    0.811
                            23 O    0.104
    22   6 C    3.853 --    23 O    1.679    21 N    1.100    24 C    0.935
    23   8 O    1.918 --    22 C    1.679    21 N    0.104
    24   6 C    3.859 --    25 O    1.671     5 C    1.106    22 C    0.935
    25   8 O    1.832 --    24 C    1.671
    26   1 H    1.005 --     1 C    0.978
    27   1 H    1.010 --     1 C    0.986
    28   1 H    1.005 --     1 C    0.978
    29   1 H    1.013 --     9 C    0.975
    30   1 H    1.000 --     9 C    0.984
    31   1 H    1.004 --     9 C    0.984
    32   1 H    1.007 --    10 C    0.980
    33   1 H    1.001 --    10 C    0.984
    34   1 H    1.000 --    10 C    0.983
    35   1 H    0.936 --    11 N    0.903
    36   1 H    0.996 --    13 C    0.981
    37   1 H    1.001 --    13 C    0.980
    38   1 H    0.996 --    13 C    0.986
    39   1 H    0.996 --    19 C    0.962
    40   1 H    0.996 --    19 C    0.964
    41   1 H    0.997 --    19 C    0.982
    42   1 H    0.956 --    21 N    0.811    16 N    0.101
 ---------------------------------------------------------------------------

           -------------------------------------------------
          | TOTAL ENERGY              -82.887597671888 Eh   |
          | GRADIENT NORM               0.000378493680 Eh/α |
          | HOMO-LUMO GAP               0.133848100409 eV   |
           -------------------------------------------------

 * finished run on 2023/06/21 at 17:43:52.505
