   * xtb version 6.5.1 (579679a) compiled by 'ehlert@majestix' on 2022-07-11
          program call               : /lustre/hpc/kemi/ree/PhD/git/ReactivityQM/dep/xtb-6.5.1/bin/xtb --gfn 1 /lustre/hpc/kemi/ree/PhD/git/ReactivityQM/calculations/RaltegravirCLI/reac02prodN06/conf03/RaltegravirCLI_reac02prodN06_conf03_gfn1.xyz --opt --vfukui --chrg 1 --uhf 0 --alpb DMSO

   ID    Z sym.   atoms
    1    6 C      1, 3, 5, 7-9, 12-16, 18, 19, 21-24
    2    7 N      2, 11, 20, 25
    3    8 O      4, 6, 10
    4    9 F      17
    5    1 H      26-47

      * Solvation model:               ALPB
        Solvent                        DMSO
        Solvent mass                       7.8130E+01 g/mol
          :  Hamiltonian                  GFN1-xTB          :
 * total energy  :   -79.4668244 Eh     change       -0.5044853E-11 Eh
 * total energy  :   -79.4813645 Eh     change       -0.1454008E-01 Eh
 * total energy  :   -79.4870833 Eh     change       -0.5718805E-02 Eh
 * total energy  :   -79.4885516 Eh     change       -0.1468309E-02 Eh
 * total energy  :   -79.4898021 Eh     change       -0.1250477E-02 Eh
 * total energy  :   -79.4902876 Eh     change       -0.4854615E-03 Eh
 * total energy  :   -79.4907371 Eh     change       -0.4495758E-03 Eh
 * total energy  :   -79.4911497 Eh     change       -0.4125464E-03 Eh
 * total energy  :   -79.4914786 Eh     change       -0.3289155E-03 Eh
 * total energy  :   -79.4916486 Eh     change       -0.1700035E-03 Eh
 * total energy  :   -79.4937490 Eh     change       -0.1201022E-04 Eh
 * total energy  :   -79.4937622 Eh     change       -0.1318539E-04 Eh
 * total energy  :   -79.4937751 Eh     change       -0.1294217E-04 Eh
 * total energy  :   -79.4937895 Eh     change       -0.1443453E-04 Eh
 * total energy  :   -79.4938032 Eh     change       -0.1364442E-04 Eh
 * total energy  :   -79.4938181 Eh     change       -0.1494363E-04 Eh
 * total energy  :   -79.4938348 Eh     change       -0.1662584E-04 Eh
 * total energy  :   -79.4938408 Eh     change       -0.6088702E-05 Eh
 * total energy  :   -79.4938437 Eh     change       -0.2803731E-05 Eh
   *** GEOMETRY OPTIMIZATION CONVERGED AFTER 59 ITERATIONS ***

 final structure:
================
47
 xtb: 6.5.1 (579679a)
C           -3.94911254027983       -1.52488379558459       -0.61591062352943
N           -2.67287853864427       -0.91235992832927       -0.99920989360242
C           -1.83439308909075       -1.72571837101579       -1.70688180858850
O           -2.10158011898247       -2.85448778773772       -2.08358942708098
C           -0.50884128036500       -1.15224890135667       -2.01474466323440
O            0.31358061078808       -1.89174582719098       -2.68575895388414
C           -0.10557111368639        0.07747241401319       -1.40870227790052
C            1.01446516304647        0.90208925135134       -2.02136405089904
C            0.46448252907810       -0.71155294674364       -0.01270664274006
O           -0.23859017758690       -0.71199603518135        0.95245283577089
N            1.66545426781191       -1.20557408283622       -0.19589818130127
C            2.42278397435926       -1.77166050546606        0.93038732892054
C            3.59823218918779       -0.89242540192505        1.28632654717736
C            3.44007468600555        0.48651986899106        1.40937072688865
C            4.51573419847247        1.28899786143923        1.75973185641129
C            5.74033678397013        0.68468952852663        1.98722794814749
F            6.78193366019461        1.45304533879322        2.32776217753283
C            5.93038873022174       -0.68091623954659        1.87202631793583
C            4.84536431185785       -1.46915289534399        1.51540350303494
N           -1.15609339638735        0.87710935411695       -0.93634168755204
C           -2.32638118012954        0.40276911791610       -0.69732515111010
C           -3.30346016051055        1.36187553101508       -0.03169807817882
C           -2.74888977912988        2.79272560180054       -0.12790052254625
C           -3.43757936274637        0.96575435258880        1.44654988842824
N           -4.60701429327561        1.29542248590292       -0.68034293555028
H           -4.17173889847109       -2.31769256391931       -1.32873038397101
H           -3.85259292756645       -1.94951409026403        0.38312045432445
H           -4.73183307060260       -0.76934199384153       -0.63229283890805
H           -0.08827186684729       -2.75830572212004       -2.92350995654110
H            1.50962424000785        1.49124449739320       -1.25267313542677
H            0.57135740700637        1.58002930583752       -2.74992150924779
H            1.73750489999968        0.26515656865741       -2.52420733961247
H            2.11103175677652       -1.21690593900440       -1.09804744398107
H            2.75778904445303       -2.76679131459938        0.62998738919887
H            1.73216977829753       -1.86521241564716        1.77350025302522
H            2.47314990455104        0.93719051856026        1.22112643443899
H            4.40800708880485        2.36176271937181        1.85358498126025
H            6.90442755648764       -1.11669514723806        2.05307353934884
H            4.97079904087612       -2.54080652305349        1.41666125182448
H           -3.47071205626502        3.48406343234863        0.30324109038723
H           -2.58009965270422        3.06056040593736       -1.16936521158520
H           -1.80788085850417        2.87516800015579        0.41344065683332
H           -3.97172028651538        0.02409992082451        1.55131934828480
H           -2.44859389726186        0.86421653297330        1.89238827329278
H           -3.98985966934307        1.73902466749236        1.97831816038618
H           -4.54081394411050        1.67733448993818       -1.61368108895971
H           -5.26419066323371        1.85766766201247       -0.15677515692984

          :  Hamiltonian                  GFN1-xTB          :
         :: total energy             -79.493843650718 Eh    ::
         :: gradient norm              0.000592902300 Eh/a0 ::
         :: HOMO-LUMO gap              0.662741865391 eV    ::
         :: SCC energy               -80.395072547213 Eh    ::
         :: -> Gsolv                  -0.102621585968 Eh    ::
         :: repulsion energy           0.933147783803 Eh    ::

    * Orbital Energies and Occupations

         #    Occupation            Energy/Eh            Energy/eV
      -------------------------------------------------------------
         1        2.0000           -0.8955814             -24.3700
       ...           ...                  ...                  ...
        55        2.0000           -0.5192632             -14.1299
        56        2.0000           -0.5151359             -14.0176
        57        2.0000           -0.5130209             -13.9600
        58        2.0000           -0.5096894             -13.8694
        59        2.0000           -0.4998423             -13.6014
        60        2.0000           -0.4933923             -13.4259
        61        2.0000           -0.4910534             -13.3622
        62        2.0000           -0.4864553             -13.2371
        63        2.0000           -0.4784669             -13.0197
        64        2.0000           -0.4739411             -12.8966
        65        2.0000           -0.4649506             -12.6520
        66        2.0000           -0.4509125             -12.2700
        67        2.0000           -0.4271473             -11.6233 (HOMO)
        68        0.0000           -0.4027919             -10.9605 (LUMO)
        69                         -0.3203959              -8.7184
        70                         -0.2911520              -7.9226
        71                         -0.2867989              -7.8042
        72                         -0.2807786              -7.6404
        73                         -0.2530816              -6.8867
        74                         -0.1607584              -4.3745
        75                         -0.1597906              -4.3481
        76                         -0.1501626              -4.0861
        77                         -0.1455712              -3.9612
        78                         -0.1413003              -3.8450
       ...                                ...                  ...
       144                          0.7412576              20.1706
      -------------------------------------------------------------
                  HL-Gap            0.0243553 Eh            0.6627 eV

Wiberg/Mayer (AO) data.
largest (>0.10) Wiberg bond orders for each atom

     #   Z sym  total        # sym  WBO       # sym  WBO       # sym  WBO
 ---------------------------------------------------------------------------
     1   6 C    3.897 --    26 H    0.974    27 H    0.968    28 H    0.957
                             2 N    0.915
     2   7 N    3.535 --     3 C    1.194    21 C    1.103     1 C    0.915
                             4 O    0.164
     3   6 C    3.928 --     4 O    1.588     2 N    1.194     5 C    1.009
     4   8 O    1.945 --     3 C    1.588     2 N    0.164
     5   6 C    3.844 --     6 O    1.270     7 C    1.145     3 C    1.009
                             9 C    0.115
     6   8 O    2.220 --     5 C    1.270    29 H    0.755
     7   6 C    3.959 --     5 C    1.145    20 N    1.063     8 C    0.980
                             9 C    0.596
     8   6 C    3.977 --    30 H    0.980    32 H    0.980     7 C    0.980
                            31 H    0.968
     9   6 C    3.905 --    10 O    1.694    11 N    1.375     7 C    0.596
                             5 C    0.115
    10   8 O    2.079 --     9 C    1.694    11 N    0.182
    11   7 N    3.406 --     9 C    1.375    12 C    0.895    33 H    0.882
                            10 O    0.182
    12   6 C    3.907 --    13 C    0.997    34 H    0.967    35 H    0.963
                            11 N    0.895
    13   6 C    3.986 --    19 C    1.417    14 C    1.414    12 C    0.997
    14   6 C    3.994 --    15 C    1.448    13 C    1.414    36 H    0.971
                            18 C    0.110
    15   6 C    3.991 --    14 C    1.448    16 C    1.396    37 H    0.968
                            19 C    0.110
    16   6 C    3.864 --    18 C    1.400    15 C    1.396    17 F    0.935
    17   9 F    1.066 --    16 C    0.935
    18   6 C    3.991 --    19 C    1.443    16 C    1.400    38 H    0.968
                            14 C    0.110
    19   6 C    3.992 --    18 C    1.443    13 C    1.417    39 H    0.969
                            15 C    0.110
    20   7 N    3.032 --    21 C    1.655     7 C    1.063
    21   6 C    3.902 --    20 N    1.655     2 N    1.103    22 C    0.975
    22   6 C    3.961 --    23 C    0.988    25 N    0.985    24 C    0.976
                            21 C    0.975
    23   6 C    3.992 --    22 C    0.988    40 H    0.984    41 H    0.984
                            42 H    0.983
    24   6 C    3.991 --    44 H    0.984    43 H    0.982    45 H    0.981
                            22 C    0.976
    25   7 N    3.002 --    22 C    0.985    46 H    0.937    47 H    0.933
    26   1 H    1.002 --     1 C    0.974
    27   1 H    0.999 --     1 C    0.968
    28   1 H    1.024 --     1 C    0.957
    29   1 H    0.802 --     6 O    0.755
    30   1 H    0.999 --     8 C    0.980
    31   1 H    0.996 --     8 C    0.968
    32   1 H    0.996 --     8 C    0.980
    33   1 H    0.929 --    11 N    0.882
    34   1 H    0.997 --    12 C    0.967
    35   1 H    1.000 --    12 C    0.963
    36   1 H    1.000 --    14 C    0.971
    37   1 H    0.996 --    15 C    0.968
    38   1 H    0.996 --    18 C    0.968
    39   1 H    0.997 --    19 C    0.969
    40   1 H    1.002 --    23 C    0.984
    41   1 H    1.006 --    23 C    0.984
    42   1 H    1.009 --    23 C    0.983
    43   1 H    1.002 --    24 C    0.982
    44   1 H    1.005 --    24 C    0.984
    45   1 H    0.998 --    24 C    0.981
    46   1 H    0.951 --    25 N    0.937
    47   1 H    0.948 --    25 N    0.933
 ---------------------------------------------------------------------------

           -------------------------------------------------
          | TOTAL ENERGY              -79.493843650718 Eh   |
          | GRADIENT NORM               0.000592902300 Eh/α |
          | HOMO-LUMO GAP               0.662741865391 eV   |
           -------------------------------------------------

 * finished run on 2023/06/20 at 15:23:22.304
