   * xtb version 6.5.1 (579679a) compiled by 'ehlert@majestix' on 2022-07-11
          program call               : /lustre/hpc/kemi/ree/PhD/git/ReactivityQM/dep/xtb-6.5.1/bin/xtb --gfn 1 /lustre/hpc/kemi/ree/PhD/git/ReactivityQM/calculations/R03/reac02prodN07/conf11/R03_reac02prodN07_conf11_gfn1.xyz --opt --vfukui --chrg 1 --uhf 0 --alpb DMSO

   ID    Z sym.   atoms
    1    6 C      1, 3, 5, 7-10, 12, 14, 17-19, 22, 23, 25
    2    8 O      2, 4, 13, 20, 24, 26
    3    7 N      6, 11, 15, 16, 21
    4    1 H      27-46

      * Solvation model:               ALPB
        Solvent                        DMSO
        Solvent mass                       7.8130E+01 g/mol
          :  Hamiltonian                  GFN1-xTB          :
 * total energy  :   -86.3356662 Eh     change       -0.2411582E-10 Eh
 * total energy  :   -86.3528326 Eh     change       -0.1716638E-01 Eh
 * total energy  :   -86.3584901 Eh     change       -0.5657524E-02 Eh
 * total energy  :   -86.3595465 Eh     change       -0.1056384E-02 Eh
 * total energy  :   -86.3602107 Eh     change       -0.6642286E-03 Eh
 * total energy  :   -86.3604986 Eh     change       -0.2878748E-03 Eh
 * total energy  :   -86.3607451 Eh     change       -0.2465410E-03 Eh
 * total energy  :   -86.3608999 Eh     change       -0.1547867E-03 Eh
 * total energy  :   -86.3609768 Eh     change       -0.7694886E-04 Eh
 * total energy  :   -86.3610294 Eh     change       -0.5260012E-04 Eh
 * total energy  :   -86.3611576 Eh     change       -0.1790032E-04 Eh
 * total energy  :   -86.3611688 Eh     change       -0.1114604E-04 Eh
 * total energy  :   -86.3611843 Eh     change       -0.1557688E-04 Eh
 * total energy  :   -86.3611996 Eh     change       -0.1522727E-04 Eh
 * total energy  :   -86.3612086 Eh     change       -0.9017793E-05 Eh
 * total energy  :   -86.3612251 Eh     change       -0.1656421E-04 Eh
 * total energy  :   -86.3612324 Eh     change       -0.7252265E-05 Eh
 * total energy  :   -86.3612407 Eh     change       -0.8355163E-05 Eh
 * total energy  :   -86.3612436 Eh     change       -0.2890743E-05 Eh
   *** GEOMETRY OPTIMIZATION CONVERGED AFTER 22 ITERATIONS ***

 final structure:
================
46
 xtb: 6.5.1 (579679a)
C            5.28459405794115        0.18961616001115        3.43463195818538
O            4.35964785044475        0.02562943118144        2.35485529687289
C            4.68216636046284        0.61769202778847        1.20387361254884
O            5.69461398396096        1.25927180850576        1.04980923598067
C            3.64733551004278        0.39694700095888        0.15164958290496
N            2.54897997341325       -0.33087883597871        0.51964670810825
C            1.58459812921905       -0.57286730433255       -0.30503369685015
C            0.44855346030925       -1.43129467233616        0.23549746416643
C            0.42823405094256       -2.79197983141614       -0.47394326714239
C            0.63475363941412       -1.63274154452296        1.74530359524337
N           -0.81675517932591       -0.69771945714525        0.03234150570789
C           -2.02246553258810       -1.22771571554307        0.29411693506787
O           -2.27331599666505       -2.36431219698348        0.62389530088759
C           -3.10813070383367       -0.20243095445441        0.09794839855197
N           -2.97185148934303        1.03206010376241       -0.28412119565161
N           -4.22331136301860        1.52804708355639       -0.30832804457025
C           -4.44801898416963        2.90288381196295       -0.70908276541639
C           -5.08178896335475        0.59564853862715        0.05325004767170
C           -6.54439632593722        0.67975428699551        0.18880632944360
O           -4.40061423014424       -0.50078306968668        0.31402442077605
N            1.60973583138094       -0.12416041892145       -1.60240001476697
C            0.57300084675823       -0.36139017329446       -2.60771019503373
C            2.68287527391276        0.60836064294417       -2.08270371853362
O            2.73136890650438        1.00868783592325       -3.23996977285931
C            3.74681479575105        0.87609680772133       -1.12531245443307
O            4.77517444852470        1.58934729222746       -1.58908194814420
H            6.26250279562585       -0.21171923748335        3.15683604276068
H            4.87609473609620       -0.35999989085619        4.28009235012927
H            5.38523406193351        1.24875921438564        3.68403921624469
H           -0.22583050366469       -3.48173155985162        0.05572384266303
H            0.07873403027111       -2.70123438689450       -1.49870847655938
H            1.43848995167941       -3.19962533776752       -0.47945070073854
H            0.66209011197300       -0.66858725349448        2.24957582779989
H            1.57047839091707       -2.15721759082827        1.93186868601641
H           -0.19153928808043       -2.22146347222321        2.13865386241819
H           -0.76176955171507        0.29719494688062       -0.11097069959295
H           -3.47938290349621        3.39190431781155       -0.77118116018521
H           -5.07849082404573        3.38859952351139        0.03277603170450
H           -4.94035808295578        2.91161565491302       -1.68078968439888
H           -6.95067212276175        1.40306319432049       -0.51520820992517
H           -6.98255083500005       -0.30378563312577        0.02309676926059
H           -6.79548221570059        1.00324054078290        1.20214538870500
H           -0.35652113594572       -0.66001514979560       -2.14104910866054
H            0.42422533130316        0.56732388841962       -3.15810162123354
H            0.91618633054872       -1.13247879845183       -3.29795313049116
H            4.60676337241898        1.81438737218183       -2.52277454463336

          :  Hamiltonian                  GFN1-xTB          :
         :: total energy             -86.361243634951 Eh    ::
         :: gradient norm              0.000549324239 Eh/a0 ::
         :: HOMO-LUMO gap              2.007173839300 eV    ::
         :: SCC energy               -87.206532881263 Eh    ::
         :: -> Gsolv                  -0.128170869739 Eh    ::
         :: repulsion energy           0.873697696895 Eh    ::

    * Orbital Energies and Occupations

         #    Occupation            Energy/Eh            Energy/eV
      -------------------------------------------------------------
         1        2.0000           -0.9399258             -25.5767
       ...           ...                  ...                  ...
        58        2.0000           -0.5274837             -14.3536
        59        2.0000           -0.5228062             -14.2263
        60        2.0000           -0.5196834             -14.1413
        61        2.0000           -0.5173988             -14.0791
        62        2.0000           -0.5134787             -13.9725
        63        2.0000           -0.4998640             -13.6020
        64        2.0000           -0.4957363             -13.4897
        65        2.0000           -0.4892954             -13.3144
        66        2.0000           -0.4831803             -13.1480
        67        2.0000           -0.4791072             -13.0372
        68        2.0000           -0.4670751             -12.7098
        69        2.0000           -0.4541577             -12.3583
        70        2.0000           -0.4369678             -11.8905 (HOMO)
        71                         -0.3632055              -9.8833 (LUMO)
        72                         -0.3467752              -9.4362
        73                         -0.3296591              -8.9705
        74                         -0.2942661              -8.0074
        75                         -0.2464806              -6.7071
        76                         -0.2457108              -6.6861
        77                         -0.1852836              -5.0418
        78                         -0.1735767              -4.7233
        79                         -0.1642590              -4.4697
        80                         -0.1510413              -4.1100
        81                         -0.1404835              -3.8228
       ...                                ...                  ...
       144                          0.7371918              20.0600
      -------------------------------------------------------------
                  HL-Gap            0.0737623 Eh            2.0072 eV

Wiberg/Mayer (AO) data.
largest (>0.10) Wiberg bond orders for each atom

     #   Z sym  total        # sym  WBO       # sym  WBO       # sym  WBO
 ---------------------------------------------------------------------------
     1   6 C    3.871 --    28 H    0.986    29 H    0.979    27 H    0.979
                             2 O    0.897
     2   8 O    2.200 --     3 C    1.112     1 C    0.897     4 O    0.135
     3   6 C    3.852 --     4 O    1.663     2 O    1.112     5 C    0.998
     4   8 O    1.927 --     3 C    1.663     2 O    0.135
     5   6 C    3.962 --    25 C    1.491     6 N    1.186     3 C    0.998
     6   7 N    3.034 --     7 C    1.581     5 C    1.186
     7   6 C    3.934 --     6 N    1.581    21 N    1.166     8 C    0.976
     8   6 C    3.918 --    10 C    0.989     9 C    0.984     7 C    0.976
                            11 N    0.903
     9   6 C    3.986 --     8 C    0.984    32 H    0.983    31 H    0.981
                            30 H    0.977
    10   6 C    3.987 --     8 C    0.989    33 H    0.984    35 H    0.982
                            34 H    0.982
    11   7 N    3.373 --    12 C    1.274     8 C    0.903    36 H    0.893
                            13 O    0.195
    12   6 C    3.924 --    13 O    1.623    11 N    1.274    14 C    0.953
    13   8 O    1.950 --    12 C    1.623    11 N    0.195
    14   6 C    3.843 --    15 N    1.608    20 O    1.068    12 C    0.953
    15   7 N    2.993 --    14 C    1.608    16 N    1.151
    16   7 N    3.630 --    18 C    1.422    15 N    1.151    17 C    0.907
    17   6 C    3.882 --    37 H    0.978    38 H    0.972    39 H    0.966
                            16 N    0.907
    18   6 C    3.841 --    16 N    1.422    20 O    1.155    19 C    1.042
    19   6 C    3.960 --    18 C    1.042    40 H    0.966    41 H    0.963
                            42 H    0.932
    20   8 O    2.390 --    18 C    1.155    14 C    1.068
    21   7 N    3.507 --     7 C    1.166    23 C    1.128    22 C    0.927
                            24 O    0.135
    22   6 C    3.919 --    43 H    0.979    45 H    0.974    44 H    0.973
                            21 N    0.927
    23   6 C    3.913 --    24 O    1.563    21 N    1.128    25 C    1.073
    24   8 O    1.907 --    23 C    1.563    21 N    0.135
    25   6 C    3.922 --     5 C    1.491    26 O    1.115    23 C    1.073
    26   8 O    2.093 --    25 C    1.115    46 H    0.805
    27   1 H    1.007 --     1 C    0.979
    28   1 H    1.011 --     1 C    0.986
    29   1 H    1.007 --     1 C    0.979
    30   1 H    1.007 --     9 C    0.977
    31   1 H    1.000 --     9 C    0.981
    32   1 H    1.000 --     9 C    0.983
    33   1 H    1.008 --    10 C    0.984
    34   1 H    1.009 --    10 C    0.982
    35   1 H    1.003 --    10 C    0.982
    36   1 H    0.938 --    11 N    0.893
    37   1 H    0.992 --    17 C    0.978
    38   1 H    0.989 --    17 C    0.972
    39   1 H    0.989 --    17 C    0.966
    40   1 H    0.987 --    19 C    0.966
    41   1 H    0.985 --    19 C    0.963
    42   1 H    0.984 --    19 C    0.932
    43   1 H    1.007 --    22 C    0.979
    44   1 H    1.004 --    22 C    0.973
    45   1 H    0.999 --    22 C    0.974
    46   1 H    0.845 --    26 O    0.805
 ---------------------------------------------------------------------------

           -------------------------------------------------
          | TOTAL ENERGY              -86.361243634951 Eh   |
          | GRADIENT NORM               0.000549324239 Eh/α |
          | HOMO-LUMO GAP               2.007173839300 eV   |
           -------------------------------------------------

 * finished run on 2023/06/20 at 15:42:14.327
