   * xtb version 6.5.1 (579679a) compiled by 'ehlert@majestix' on 2022-07-11
          program call               : /lustre/hpc/kemi/ree/PhD/git/ReactivityQM/dep/xtb-6.5.1/bin/xtb --gfn 1 /lustre/hpc/kemi/ree/PhD/git/ReactivityQM/calculations/R02methylcation/reac01prodN17/conf04/R02methylcation_reac01prodN17_conf04_gfn1.xyz --opt --vfukui --chrg 0 --uhf 0 --alpb DMSO

   ID    Z sym.   atoms
    1    6 C      1, 3, 5, 7-10, 12, 13, 15, 18, 19, 22, 24
    2    8 O      2, 4, 14, 20, 23, 25
    3    7 N      6, 11, 16, 17, 21
    4    1 H      26-42

      * Solvation model:               ALPB
        Solvent                        DMSO
        Solvent mass                       7.8130E+01 g/mol
          :  Hamiltonian                  GFN1-xTB          :
 * total energy  :   -82.9285716 Eh     change       -0.1264766E-11 Eh
 * total energy  :   -82.9435987 Eh     change       -0.1502714E-01 Eh
 * total energy  :   -82.9493924 Eh     change       -0.5793666E-02 Eh
 * total energy  :   -82.9503947 Eh     change       -0.1002319E-02 Eh
 * total energy  :   -82.9508925 Eh     change       -0.4978552E-03 Eh
 * total energy  :   -82.9511779 Eh     change       -0.2853282E-03 Eh
 * total energy  :   -82.9514315 Eh     change       -0.2536595E-03 Eh
 * total energy  :   -82.9516854 Eh     change       -0.2539128E-03 Eh
 * total energy  :   -82.9519499 Eh     change       -0.2645024E-03 Eh
 * total energy  :   -82.9521744 Eh     change       -0.2244195E-03 Eh
 * total energy  :   -82.9537096 Eh     change       -0.1108438E-04 Eh
 * total energy  :   -82.9537165 Eh     change       -0.6868848E-05 Eh
 * total energy  :   -82.9537298 Eh     change       -0.1335310E-04 Eh
 * total energy  :   -82.9537364 Eh     change       -0.6625917E-05 Eh
 * total energy  :   -82.9537439 Eh     change       -0.7450672E-05 Eh
 * total energy  :   -82.9537549 Eh     change       -0.1103549E-04 Eh
 * total energy  :   -82.9537591 Eh     change       -0.4157681E-05 Eh
 * total energy  :   -82.9537662 Eh     change       -0.7111952E-05 Eh
 * total energy  :   -82.9537707 Eh     change       -0.4482641E-05 Eh
   *** GEOMETRY OPTIMIZATION CONVERGED AFTER 54 ITERATIONS ***

 final structure:
================
42
 xtb: 6.5.1 (579679a)
C           -6.70712325509159       -0.04305098332706       -0.86749387560274
O           -5.51889495754897        0.63756110957730       -0.47652484328439
C           -4.41820875919245       -0.12620002988806       -0.33832139442110
O           -4.44795072152222       -1.33042407677913       -0.54160073704247
C           -3.21595807483083        0.60605630282457        0.06878120806442
N           -2.12709660499995       -0.21211501740006        0.21460605305972
C           -0.98934944891042        0.25085384032637        0.59935519661606
C            0.17546528362615       -0.69012971153361        0.74028960446894
C           -0.30826089216013       -2.12146878716500        0.93306431520308
C            1.13789100569291       -0.28205757433723        1.84998516588154
N            0.96628822586486       -0.57551835754566       -0.60418666727524
C            0.20882323167350       -1.08202623100189       -1.77777809848306
C            2.29277426743346       -1.26480961589179       -0.53734520634996
O            2.36107317574517       -2.45798112978245       -0.58430549647350
C            3.34827845280398       -0.28925511244895       -0.43290501381269
N            3.17562656303801        1.01105337949930       -0.42931686965111
N            4.39320866965514        1.56655952879684       -0.32378077117476
C            5.25611969380040        0.58305858669194       -0.26839682846153
C            6.72291967477205        0.68011595788797       -0.14649404726534
O            4.65197218981499       -0.60568555697805       -0.33552933449730
N           -0.79632195725746        1.59792478617674        0.82795078829750
C           -1.79199555450760        2.54167344998618        0.69650060008155
O           -1.53989354600363        3.71972931942049        0.90525172745773
C           -3.15336588927615        2.01222674945607        0.29228335945448
O           -4.09017531211423        2.81233488373901        0.17961312644517
H           -7.00223998976150       -0.76769337516383       -0.10288124543549
H           -6.55370533251693       -0.56950745475317       -1.81391732744122
H           -7.48281068179547        0.71268193661476       -0.98295792189885
H            0.51446248824894       -2.82724595104355        0.85429864347073
H           -0.74033721667327       -2.19804702491757        1.93017194860749
H           -1.07957475623641       -2.37197572795849        0.20632536419982
H            1.89274704645852       -1.05210945320343        1.99892510846400
H            1.64069747625352        0.65369521415384        1.61429880403456
H            0.57767829091964       -0.16040652185872        2.77569219653545
H            1.15577981740605        0.42400028225536       -0.73420160042700
H            0.23420596463206       -2.16846200028095       -1.76775094286160
H           -0.81453565841283       -0.71754310511820       -1.70892985450891
H            0.69571577077132       -0.70220957452127       -2.67207090370722
H            7.02076924432100        1.72525235030307       -0.10171523518457
H            7.05232435206112        0.16357085590926        0.75569215474055
H            7.19724664669972        0.19650341328921       -1.00107639909631
H            0.10573207712008        1.94303542599168        1.10639324927512

          :  Hamiltonian                  GFN1-xTB          :
         :: total energy             -82.953770683808 Eh    ::
         :: gradient norm              0.000678796836 Eh/a0 ::
         :: HOMO-LUMO gap              0.385169782123 eV    ::
         :: SCC energy               -83.727984900440 Eh    ::
         :: -> Gsolv                  -0.091480012027 Eh    ::
         :: repulsion energy           0.801983966719 Eh    ::

    * Orbital Energies and Occupations

         #    Occupation            Energy/Eh            Energy/eV
      -------------------------------------------------------------
         1        2.0000           -0.8945853             -24.3429
       ...           ...                  ...                  ...
        55        2.0000           -0.5182659             -14.1027
        56        2.0000           -0.5102449             -13.8845
        57        2.0000           -0.5046324             -13.7317
        58        2.0000           -0.4975951             -13.5403
        59        2.0000           -0.4853590             -13.2073
        60        2.0000           -0.4833661             -13.1531
        61        2.0000           -0.4773560             -12.9895
        62        2.0000           -0.4761430             -12.9565
        63        2.0000           -0.4627705             -12.5926
        64        2.0000           -0.4524588             -12.3120
        65        2.0000           -0.4411083             -12.0032
        66        2.0000           -0.3989261             -10.8553
        67        1.9988           -0.3879827             -10.5575 (HOMO)
        68        0.0012           -0.3738280             -10.1724 (LUMO)
        69                         -0.2875116              -7.8236
        70                         -0.2844114              -7.7392
        71                         -0.2726353              -7.4188
        72                         -0.2483626              -6.7583
        73                         -0.2140612              -5.8249
        74                         -0.1614289              -4.3927
        75                         -0.1527438              -4.1564
        76                         -0.1478963              -4.0245
        77                         -0.1421264              -3.8675
        78                         -0.1323797              -3.6022
       ...                                ...                  ...
       134                          0.7517217              20.4554
      -------------------------------------------------------------
                  HL-Gap            0.0141547 Eh            0.3852 eV

Wiberg/Mayer (AO) data.
largest (>0.10) Wiberg bond orders for each atom

     #   Z sym  total        # sym  WBO       # sym  WBO       # sym  WBO
 ---------------------------------------------------------------------------
     1   6 C    3.890 --    28 H    0.987    26 H    0.980    27 H    0.980
                             2 O    0.915
     2   8 O    2.175 --     3 C    1.074     1 C    0.915     4 O    0.117
     3   6 C    3.849 --     4 O    1.597     5 C    1.079     2 O    1.074
     4   8 O    1.862 --     3 C    1.597     2 O    0.117
     5   6 C    3.872 --    24 C    1.237     6 N    1.203     3 C    1.079
                            25 O    0.112
     6   7 N    3.045 --     7 C    1.575     5 C    1.203
     7   6 C    3.930 --     6 N    1.575    21 N    1.098     8 C    0.994
     8   6 C    3.878 --     9 C    1.007    10 C    1.004     7 C    0.994
                            11 N    0.793
     9   6 C    3.983 --     8 C    1.007    29 H    0.980    31 H    0.977
                            30 H    0.976
    10   6 C    3.987 --     8 C    1.004    32 H    0.978    33 H    0.977
                            34 H    0.977
    11   7 N    3.591 --    12 C    0.900    35 H    0.883    13 C    0.878
                             8 C    0.793
    12   6 C    3.885 --    38 H    0.982    36 H    0.981    37 H    0.974
                            11 N    0.900
    13   6 C    3.848 --    14 O    1.746    15 C    1.085    11 N    0.878
    14   8 O    2.016 --    13 C    1.746
    15   6 C    3.884 --    16 N    1.511    13 C    1.085    20 O    1.059
    16   7 N    3.024 --    15 C    1.511    17 N    1.265
    17   7 N    2.986 --    18 C    1.533    16 N    1.265
    18   6 C    3.844 --    17 N    1.533    20 O    1.103    19 C    1.039
    19   6 C    3.979 --    18 C    1.039    39 H    0.980    41 H    0.955
                            40 H    0.955
    20   8 O    2.343 --    18 C    1.103    15 C    1.059
    21   7 N    3.417 --    22 C    1.141     7 C    1.098    42 H    0.892
                            23 O    0.134
    22   6 C    3.868 --    23 O    1.608    21 N    1.141    24 C    0.958
    23   8 O    1.879 --    22 C    1.608    21 N    0.134
    24   6 C    3.928 --    25 O    1.558     5 C    1.237    22 C    0.958
    25   8 O    1.835 --    24 C    1.558     5 C    0.112
    26   1 H    1.011 --     1 C    0.980
    27   1 H    1.012 --     1 C    0.980
    28   1 H    1.014 --     1 C    0.987
    29   1 H    1.003 --     9 C    0.980
    30   1 H    0.999 --     9 C    0.976
    31   1 H    1.013 --     9 C    0.977
    32   1 H    0.996 --    10 C    0.978
    33   1 H    1.003 --    10 C    0.977
    34   1 H    0.996 --    10 C    0.977
    35   1 H    0.958 --    11 N    0.883
    36   1 H    0.998 --    12 C    0.981
    37   1 H    1.006 --    12 C    0.974
    38   1 H    0.991 --    12 C    0.982
    39   1 H    0.995 --    19 C    0.980
    40   1 H    0.991 --    19 C    0.955
    41   1 H    0.991 --    19 C    0.955
    42   1 H    0.940 --    21 N    0.892
 ---------------------------------------------------------------------------

           -------------------------------------------------
          | TOTAL ENERGY              -82.953770683808 Eh   |
          | GRADIENT NORM               0.000678796836 Eh/α |
          | HOMO-LUMO GAP               0.385169782123 eV   |
           -------------------------------------------------

 * finished run on 2023/06/21 at 18:00:11.407
