   * xtb version 6.5.1 (579679a) compiled by 'ehlert@majestix' on 2022-07-11
          program call               : /lustre/hpc/kemi/ree/PhD/git/ReactivityQM/dep/xtb-6.5.1/bin/xtb --gfn 1 /lustre/hpc/kemi/ree/PhD/git/ReactivityQM/calculations/RaltegravirCLI/reac02/conf11/RaltegravirCLI_reac02_conf11_gfn1.xyz --opt --vfukui --chrg 0 --uhf 0 --alpb DMSO

   ID    Z sym.   atoms
    1    6 C      1, 3-6, 9, 10, 13-17, 19-21, 23
    2    7 N      2, 7, 8, 12
    3    8 O      11, 22, 24
    4    9 F      18
    5    1 H      25-43

      * Solvation model:               ALPB
        Solvent                        DMSO
        Solvent mass                       7.8130E+01 g/mol
          :  Hamiltonian                  GFN1-xTB          :
 * total energy  :   -76.1716804 Eh     change       -0.6906475E-11 Eh
 * total energy  :   -76.1788233 Eh     change       -0.7142887E-02 Eh
 * total energy  :   -76.1807148 Eh     change       -0.1891560E-02 Eh
 * total energy  :   -76.1810884 Eh     change       -0.3736084E-03 Eh
 * total energy  :   -76.1813695 Eh     change       -0.2810352E-03 Eh
 * total energy  :   -76.1814726 Eh     change       -0.1031543E-03 Eh
 * total energy  :   -76.1815451 Eh     change       -0.7248630E-04 Eh
 * total energy  :   -76.1815864 Eh     change       -0.4128120E-04 Eh
 * total energy  :   -76.1816117 Eh     change       -0.2533946E-04 Eh
 * total energy  :   -76.1816376 Eh     change       -0.2584706E-04 Eh
 * total energy  :   -76.1816897 Eh     change       -0.3036902E-04 Eh
 * total energy  :   -76.1817139 Eh     change       -0.2424200E-04 Eh
 * total energy  :   -76.1817296 Eh     change       -0.1571640E-04 Eh
 * total energy  :   -76.1817423 Eh     change       -0.1268384E-04 Eh
 * total energy  :   -76.1817528 Eh     change       -0.1047070E-04 Eh
 * total energy  :   -76.1817609 Eh     change       -0.8153657E-05 Eh
 * total energy  :   -76.1817690 Eh     change       -0.8093171E-05 Eh
 * total energy  :   -76.1817756 Eh     change       -0.6621798E-05 Eh
 * total energy  :   -76.1817805 Eh     change       -0.4873648E-05 Eh
   *** GEOMETRY OPTIMIZATION CONVERGED AFTER 20 ITERATIONS ***

 final structure:
================
43
 xtb: 6.5.1 (579679a)
C           -3.98486124738072       -1.76316452118151        0.92519546142779
N           -2.72513452552611       -1.27819988197842        0.35575788633437
C           -2.41274137641796        0.04395592171067        0.15772123357363
C           -3.39634401915882        1.16802211747391        0.46457717115246
C           -2.68504531303711        2.52194439145378        0.30584276862311
C           -4.57661975903968        1.10028994236779       -0.51497042324523
N           -3.89635103331370        1.03428108869427        1.83202258981837
N           -1.27459837785494        0.40210703670322       -0.34608647188228
C           -0.31763253489147       -0.50486197943254       -0.70539495692614
C            0.93506163353706        0.12255747038048       -1.24553198071519
O            1.00160921172517        1.32627761663161       -1.46670718896458
N            1.96548676481391       -0.71503107264093       -1.47592225813313
C            3.25576772976265       -0.20459154728978       -1.92597730332208
C            4.16968246442336        0.05681284575932       -0.74722473985490
C            5.27971396780362       -0.75228016905674       -0.52113826022616
C            6.11085701775169       -0.52563865492450        0.56835484109206
C            5.80281538843620        0.51827460280031        1.42070587917382
F            6.59885018759570        0.74240168276476        2.47978039554780
C            4.70917351723755        1.34325898096338        1.22545552349579
C            3.89238485389531        1.10454736617664        0.13016051222089
C           -0.57810370175399       -1.83568539813114       -0.55544522287716
O            0.27368201889942       -2.82637498376050       -0.89636885189800
C           -1.84365064062539       -2.27857287089312       -0.00411137189762
O           -2.10793305337708       -3.47223294369294        0.13835071415642
H           -4.43488605783114       -0.99256894397345        1.54461627111390
H           -3.76484518962368       -2.64242914717177        1.53114654554943
H           -4.66097494690934       -2.04837784625416        0.11881632116327
H           -2.33724231499752        2.65270836634839       -0.71848845715766
H           -3.37934004173788        3.32325501256044        0.55263744585663
H           -1.82893564201791        2.57728179958699        0.97675185881997
H           -4.21049924869333        1.10186560345137       -1.54120090351927
H           -5.21991717160093        1.96701679617121       -0.36998238433387
H           -5.16933624336472        0.20267448641140       -0.35414006407554
H           -3.14578022576419        1.20885772799482        2.48719025388464
H           -4.61208228041320        1.72960942120557        1.98959095963239
H            1.92524877688917       -1.68367032909330       -1.20709223383973
H            3.69843855531380       -0.94346708051985       -2.59795765580325
H            3.07557697012623        0.72246996543249       -2.48046638959378
H            5.50349786286503       -1.56678180036898       -1.19991688762614
H            6.97700117920167       -1.14707510310582        0.75379540234713
H            4.50552486906187        2.15225332611217        1.91499204900222
H            3.03165677416354        1.73982694847105       -0.04559083517439
H           -0.14917379816874       -3.68154824415287       -0.68918424292876

          :  Hamiltonian                  GFN1-xTB          :
         :: total energy             -76.181780511806 Eh    ::
         :: gradient norm              0.000493361701 Eh/a0 ::
         :: HOMO-LUMO gap              2.792108228877 eV    ::
         :: SCC energy               -77.027900647294 Eh    ::
         :: -> Gsolv                  -0.048210896599 Eh    ::
         :: repulsion energy           0.873344306364 Eh    ::

    * Orbital Energies and Occupations

         #    Occupation            Energy/Eh            Energy/eV
      -------------------------------------------------------------
         1        2.0000           -0.8634608             -23.4960
       ...           ...                  ...                  ...
        52        2.0000           -0.4995334             -13.5930
        53        2.0000           -0.4931352             -13.4189
        54        2.0000           -0.4848484             -13.1934
        55        2.0000           -0.4728828             -12.8678
        56        2.0000           -0.4661890             -12.6856
        57        2.0000           -0.4647977             -12.6478
        58        2.0000           -0.4508771             -12.2690
        59        2.0000           -0.4469259             -12.1615
        60        2.0000           -0.4395631             -11.9611
        61        2.0000           -0.4343232             -11.8185
        62        2.0000           -0.4322598             -11.7624
        63        2.0000           -0.4203547             -11.4384
        64        2.0000           -0.4128689             -11.2347 (HOMO)
        65                         -0.3102609              -8.4426 (LUMO)
        66                         -0.2731610              -7.4331
        67                         -0.2727837              -7.4228
        68                         -0.2662939              -7.2462
        69                         -0.2258180              -6.1448
        70                         -0.1482331              -4.0336
        71                         -0.1445705              -3.9340
        72                         -0.1350197              -3.6741
        73                         -0.1219263              -3.3178
        74                         -0.1201550              -3.2696
        75                         -0.1147282              -3.1219
       ...                                ...                  ...
       134                          0.7158685              19.4798
      -------------------------------------------------------------
                  HL-Gap            0.1026081 Eh            2.7921 eV

Wiberg/Mayer (AO) data.
largest (>0.10) Wiberg bond orders for each atom

     #   Z sym  total        # sym  WBO       # sym  WBO       # sym  WBO
 ---------------------------------------------------------------------------
     1   6 C    3.920 --    26 H    0.976    27 H    0.976    25 H    0.968
                             2 N    0.927
     2   7 N    3.516 --     3 C    1.171    23 C    1.138     1 C    0.927
                            24 O    0.133
     3   6 C    3.923 --     8 N    1.566     2 N    1.171     4 C    0.975
     4   6 C    3.965 --     5 C    0.992     6 C    0.985     7 N    0.980
                             3 C    0.975
     5   6 C    3.995 --     4 C    0.992    29 H    0.986    30 H    0.984
                            28 H    0.983
     6   6 C    3.994 --    31 H    0.986     4 C    0.985    32 H    0.983
                            33 H    0.982
     7   7 N    2.993 --     4 C    0.980    34 H    0.941    35 H    0.939
     8   7 N    3.032 --     3 C    1.566     9 C    1.197
     9   6 C    3.964 --    21 C    1.507     8 N    1.197    10 C    0.991
    10   6 C    3.907 --    11 O    1.571    12 N    1.263     9 C    0.991
    11   8 O    1.878 --    10 C    1.571    12 N    0.170
    12   7 N    3.345 --    10 C    1.263    13 C    0.942    36 H    0.889
                            11 O    0.170
    13   6 C    3.949 --    14 C    0.994    37 H    0.977    38 H    0.967
                            12 N    0.942
    14   6 C    3.988 --    15 C    1.424    20 C    1.413    13 C    0.994
    15   6 C    3.994 --    16 C    1.438    14 C    1.424    39 H    0.971
                            19 C    0.109
    16   6 C    3.991 --    15 C    1.438    17 C    1.405    40 H    0.969
                            20 C    0.112
    17   6 C    3.860 --    16 C    1.405    19 C    1.397    18 F    0.924
    18   9 F    1.051 --    17 C    0.924
    19   6 C    3.992 --    20 C    1.449    17 C    1.397    41 H    0.970
                            15 C    0.109
    20   6 C    3.993 --    19 C    1.449    14 C    1.413    42 H    0.969
                            16 C    0.112
    21   6 C    3.916 --     9 C    1.507    23 C    1.093    22 O    1.069
    22   8 O    2.062 --    21 C    1.069    43 H    0.802
    23   6 C    3.918 --    24 O    1.534     2 N    1.138    21 C    1.093
    24   8 O    1.882 --    23 C    1.534     2 N    0.133
    25   1 H    1.029 --     1 C    0.968
    26   1 H    1.008 --     1 C    0.976
    27   1 H    1.004 --     1 C    0.976
    28   1 H    1.013 --     5 C    0.983
    29   1 H    1.004 --     5 C    0.986
    30   1 H    1.010 --     5 C    0.984
    31   1 H    1.003 --     6 C    0.986
    32   1 H    1.000 --     6 C    0.983
    33   1 H    1.004 --     6 C    0.982
    34   1 H    0.956 --     7 N    0.941
    35   1 H    0.954 --     7 N    0.939
    36   1 H    0.946 --    12 N    0.889
    37   1 H    1.003 --    13 C    0.977
    38   1 H    1.011 --    13 C    0.967
    39   1 H    1.000 --    15 C    0.971
    40   1 H    0.998 --    16 C    0.969
    41   1 H    0.998 --    19 C    0.970
    42   1 H    1.009 --    20 C    0.969
    43   1 H    0.846 --    22 O    0.802
 ---------------------------------------------------------------------------

           -------------------------------------------------
          | TOTAL ENERGY              -76.181780511806 Eh   |
          | GRADIENT NORM               0.000493361701 Eh/α |
          | HOMO-LUMO GAP               2.792108228877 eV   |
           -------------------------------------------------

 * finished run on 2023/06/20 at 14:51:57.962
