   * xtb version 6.5.1 (579679a) compiled by 'ehlert@majestix' on 2022-07-11
          program call               : /lustre/hpc/kemi/ree/PhD/git/ReactivityQM/dep/xtb-6.5.1/bin/xtb --gfn 1 /lustre/hpc/kemi/ree/PhD/git/ReactivityQM/calculations/R02deprot/reac01prodE12/conf09/R02deprot_reac01prodE12_conf09_gfn1.xyz --opt --vfukui --chrg -2 --uhf 0 --alpb DMSO

   ID    Z sym.   atoms
    1    6 C      1, 3, 5, 6, 8, 9, 12-15, 17, 19, 22, 23
    2    8 O      2, 4, 7, 10, 18, 24
    3    7 N      11, 16, 20, 21, 25
    4    1 H      26-42

      * Solvation model:               ALPB
        Solvent                        DMSO
        Solvent mass                       7.8130E+01 g/mol
          :  Hamiltonian                  GFN1-xTB          :
 * total energy  :   -83.5667540 Eh     change       -0.3213074E-10 Eh
 * total energy  :   -83.5776799 Eh     change       -0.1092591E-01 Eh
 * total energy  :   -83.5818998 Eh     change       -0.4219915E-02 Eh
 * total energy  :   -83.5825198 Eh     change       -0.6200171E-03 Eh
 * total energy  :   -83.5829603 Eh     change       -0.4404891E-03 Eh
 * total energy  :   -83.5831352 Eh     change       -0.1748755E-03 Eh
 * total energy  :   -83.5833123 Eh     change       -0.1770935E-03 Eh
 * total energy  :   -83.5834635 Eh     change       -0.1512332E-03 Eh
 * total energy  :   -83.5835567 Eh     change       -0.9317424E-04 Eh
 * total energy  :   -83.5836151 Eh     change       -0.5835710E-04 Eh
 * total energy  :   -83.5886981 Eh     change       -0.8827361E-05 Eh
 * total energy  :   -83.5887065 Eh     change       -0.8366691E-05 Eh
 * total energy  :   -83.5887154 Eh     change       -0.8937181E-05 Eh
 * total energy  :   -83.5887243 Eh     change       -0.8947092E-05 Eh
 * total energy  :   -83.5887322 Eh     change       -0.7894092E-05 Eh
 * total energy  :   -83.5887398 Eh     change       -0.7606642E-05 Eh
 * total energy  :   -83.5887481 Eh     change       -0.8233593E-05 Eh
 * total energy  :   -83.5887564 Eh     change       -0.8323582E-05 Eh
 * total energy  :   -83.5887597 Eh     change       -0.3311919E-05 Eh
   *** GEOMETRY OPTIMIZATION CONVERGED AFTER 152 ITERATIONS ***

 final structure:
================
42
 xtb: 6.5.1 (579679a)
C           -5.34152230343575        2.86388929365294        0.05012331900417
O           -4.13909387256799        2.15105216964886       -0.18453094686042
C           -4.10797850615711        0.86868407019488        0.28311700892790
O           -5.10263472617360        0.40336879363492        0.85452952878994
C           -2.86019074350273        0.17468726687625        0.05981265615122
C           -2.66062579094131       -1.09547111547112        0.54187698448251
O           -3.60380406099206       -1.76550594734611        1.25385360430341
C           -1.37683295990148       -1.91708917530191        0.19281441154761
C           -0.86767533134032       -2.57180814801956        1.53716866998172
O           -1.61665134404294       -2.79336358978572       -0.76142973646705
N           -0.29654948306838       -0.91570385022762       -0.16517138415336
C           -0.65184678153094        0.25944640790738       -0.58248187060212
C            0.47317545928892        1.15273726723315       -1.14781253805607
C            0.52954486756978        2.46721183782389       -0.35834262918046
C            0.19816368361377        1.42788294665992       -2.63233658891656
N            1.72422739699956        0.41531694063674       -0.98505193789512
C            2.92962801116743        0.85514422405994       -1.33617486392407
O            3.16898328803349        1.92483778829895       -1.90439180355636
C            4.03959585027440       -0.06865046650921       -0.97986424400148
N            5.30612756052501        0.09654968742206       -1.24436616929813
N            5.96293910037133       -0.97942942480925       -0.71542530432322
C            5.06331074628252       -1.73000459740154       -0.16215656098773
C            5.28010355930273       -3.00607028378898        0.55670794007760
O            3.82722064450817       -1.21751948991129       -0.29217908660357
N           -1.84050334359392        0.87353983116485       -0.59173269874767
H           -5.19870067671988        3.87355991908432       -0.33414011735095
H           -6.18416950930526        2.39069491046173       -0.46501264556495
H           -5.56682053905358        2.90712267566188        1.12083764913193
H           -4.40717824955055       -1.20977340477850        1.35041471803343
H           -0.69071113959181       -1.81202662451223        2.29877904947055
H           -1.60802446336072       -3.28617082537590        1.89685148671339
H            0.06290155877474       -3.09944508905169        1.33178626897083
H           -0.46135549739684        2.92275791205282       -0.37261807655262
H            1.24899666484185        3.16153546863027       -0.79190763823147
H            0.80874298387675        2.26905650394241        0.67675354891619
H           -0.80008038419030        1.85722746569597       -2.72654367573770
H            0.92567064639564        2.12559273280118       -3.04669378110669
H            0.23749253618499        0.49848776021273       -3.20171432685310
H            1.59820134412429       -0.49494092045795       -0.52737963677256
H            6.33690336590533       -3.25816479636394        0.53269501606151
H            4.70557983828439       -3.80630602940883        0.09083460004634
H            4.95544060008159       -2.91294109524532        1.59293580112753

          :  Hamiltonian                  GFN1-xTB          :
         :: total energy             -83.588759708640 Eh    ::
         :: gradient norm              0.000288776955 Eh/a0 ::
         :: HOMO-LUMO gap              0.167812263255 eV    ::
         :: SCC energy               -84.314718829065 Eh    ::
         :: -> Gsolv                  -0.282880835021 Eh    ::
         :: repulsion energy           0.751383598729 Eh    ::

    * Orbital Energies and Occupations

         #    Occupation            Energy/Eh            Energy/eV
      -------------------------------------------------------------
         1        2.0000           -0.8417006             -22.9038
       ...           ...                  ...                  ...
        56        2.0000           -0.4357511             -11.8574
        57        2.0000           -0.4340612             -11.8114
        58        2.0000           -0.4241930             -11.5429
        59        2.0000           -0.4148681             -11.2891
        60        2.0000           -0.4095752             -11.1451
        61        2.0000           -0.4057642             -11.0414
        62        2.0000           -0.4022005             -10.9444
        63        2.0000           -0.3737102             -10.1692
        64        2.0000           -0.3613812              -9.8337
        65        2.0000           -0.3307059              -8.9990
        66        2.0000           -0.3047830              -8.2936
        67        2.0000           -0.2989767              -8.1356
        68        1.9250           -0.2876177              -7.8265 (HOMO)
        69        0.0750           -0.2814507              -7.6587 (LUMO)
        70                         -0.2383034              -6.4846
        71                         -0.2327898              -6.3345
        72                         -0.1681276              -4.5750
        73                         -0.1574717              -4.2850
        74                         -0.1344097              -3.6575
        75                         -0.1150191              -3.1298
        76                         -0.0958509              -2.6082
        77                         -0.0888861              -2.4187
        78                         -0.0883716              -2.4047
        79                         -0.0671216              -1.8265
       ...                                ...                  ...
       134                          0.7256258              19.7453
      -------------------------------------------------------------
                  HL-Gap            0.0061670 Eh            0.1678 eV

Wiberg/Mayer (AO) data.
largest (>0.10) Wiberg bond orders for each atom

     #   Z sym  total        # sym  WBO       # sym  WBO       # sym  WBO
 ---------------------------------------------------------------------------
     1   6 C    3.905 --    26 H    0.987    27 H    0.980    28 H    0.980
                             2 O    0.932
     2   8 O    2.147 --     3 C    1.032     1 C    0.932
     3   6 C    3.829 --     4 O    1.517     5 C    1.130     2 O    1.032
     4   8 O    1.873 --     3 C    1.517
     5   6 C    3.950 --     6 C    1.486     3 C    1.130    25 N    1.113
     6   6 C    3.831 --     5 C    1.486     7 O    1.065     8 C    0.898
     7   8 O    2.042 --     6 C    1.065    29 H    0.809
     8   6 C    3.941 --    10 O    1.175     9 C    0.924     6 C    0.898
                            11 N    0.877
     9   6 C    3.981 --    30 H    0.991    31 H    0.989    32 H    0.988
                             8 C    0.924
    10   8 O    1.459 --     8 C    1.175
    11   7 N    2.934 --    12 C    1.566     8 C    0.877    25 N    0.174
    12   6 C    3.962 --    11 N    1.566    25 N    1.336    13 C    0.941
    13   6 C    3.911 --    14 C    0.988    15 C    0.987    12 C    0.941
                            16 N    0.916
    14   6 C    3.994 --    13 C    0.988    35 H    0.987    34 H    0.985
                            33 H    0.983
    15   6 C    3.995 --    38 H    0.987    13 C    0.987    37 H    0.985
                            36 H    0.985
    16   7 N    3.393 --    17 C    1.323    13 C    0.916    39 H    0.863
                            18 O    0.185
    17   6 C    3.908 --    18 O    1.511    16 N    1.323    19 C    0.995
    18   8 O    1.824 --    17 C    1.511    16 N    0.185
    19   6 C    3.826 --    20 N    1.593    24 O    1.038    17 C    0.995
    20   7 N    2.946 --    19 C    1.593    21 N    1.187
    21   7 N    2.978 --    22 C    1.622    20 N    1.187
    22   6 C    3.864 --    21 N    1.622    24 O    1.071    23 C    1.028
    23   6 C    3.990 --    22 C    1.028    40 H    0.984    41 H    0.967
                            42 H    0.966
    24   8 O    2.295 --    22 C    1.071    19 C    1.038
    25   7 N    2.827 --    12 C    1.336     5 C    1.113    11 N    0.174
    26   1 H    1.017 --     1 C    0.987
    27   1 H    1.016 --     1 C    0.980
    28   1 H    1.016 --     1 C    0.980
    29   1 H    0.892 --     7 O    0.809
    30   1 H    1.020 --     9 C    0.991
    31   1 H    1.023 --     9 C    0.989
    32   1 H    1.025 --     9 C    0.988
    33   1 H    1.030 --    14 C    0.983
    34   1 H    1.015 --    14 C    0.985
    35   1 H    1.009 --    14 C    0.987
    36   1 H    1.025 --    15 C    0.985
    37   1 H    1.016 --    15 C    0.985
    38   1 H    1.009 --    15 C    0.987
    39   1 H    0.992 --    16 N    0.863
    40   1 H    1.001 --    23 C    0.984
    41   1 H    0.998 --    23 C    0.967
    42   1 H    0.998 --    23 C    0.966
 ---------------------------------------------------------------------------

           -------------------------------------------------
          | TOTAL ENERGY              -83.588759708640 Eh   |
          | GRADIENT NORM               0.000288776955 Eh/α |
          | HOMO-LUMO GAP               0.167812263255 eV   |
           -------------------------------------------------

 * finished run on 2023/06/20 at 17:58:16.434
