   * xtb version 6.5.1 (579679a) compiled by 'ehlert@majestix' on 2022-07-11
          program call               : /lustre/hpc/kemi/ree/PhD/git/ReactivityQM/dep/xtb-6.5.1/bin/xtb --gfn 1 /lustre/hpc/kemi/ree/PhD/git/ReactivityQM/calculations/R02deprot/reac01prodN06/conf08/R02deprot_reac01prodN06_conf08_gfn1.xyz --opt --vfukui --chrg 0 --uhf 0 --alpb DMSO

   ID    Z sym.   atoms
    1    6 C      1, 3, 5, 6, 8, 11-14, 16, 18, 21, 22, 25
    2    8 O      2, 4, 7, 9, 17, 23
    3    7 N      10, 15, 19, 20, 24
    4    1 H      26-42

      * Solvation model:               ALPB
        Solvent                        DMSO
        Solvent mass                       7.8130E+01 g/mol
          :  Hamiltonian                  GFN1-xTB          :
 * total energy  :   -82.9799188 Eh     change       -0.2552270E-10 Eh
 * total energy  :   -82.9920210 Eh     change       -0.1210218E-01 Eh
 * total energy  :   -82.9963367 Eh     change       -0.4315679E-02 Eh
 * total energy  :   -82.9970253 Eh     change       -0.6886024E-03 Eh
 * total energy  :   -82.9975503 Eh     change       -0.5250108E-03 Eh
 * total energy  :   -82.9978648 Eh     change       -0.3145468E-03 Eh
 * total energy  :   -82.9981455 Eh     change       -0.2806755E-03 Eh
 * total energy  :   -82.9983652 Eh     change       -0.2197292E-03 Eh
 * total energy  :   -82.9985046 Eh     change       -0.1393729E-03 Eh
 * total energy  :   -82.9986131 Eh     change       -0.1085388E-03 Eh
 * total energy  :   -82.9992959 Eh     change       -0.1977648E-04 Eh
 * total energy  :   -82.9993052 Eh     change       -0.9327732E-05 Eh
 * total energy  :   -82.9993237 Eh     change       -0.1845294E-04 Eh
 * total energy  :   -82.9993397 Eh     change       -0.1606528E-04 Eh
 * total energy  :   -82.9993539 Eh     change       -0.1412011E-04 Eh
 * total energy  :   -82.9993618 Eh     change       -0.7890601E-05 Eh
 * total energy  :   -82.9993674 Eh     change       -0.5618568E-05 Eh
 * total energy  :   -82.9993674 Eh     change       -0.5998427E-07 Eh
 * total energy  :   -82.9993722 Eh     change       -0.4774779E-05 Eh
   *** GEOMETRY OPTIMIZATION CONVERGED AFTER 33 ITERATIONS ***

 final structure:
================
42
 xtb: 6.5.1 (579679a)
C            4.25412597214756        2.84296304316771       -0.73685961747372
O            3.26524846693877        1.94649805338658       -0.20767189015929
C            2.68432538259325        2.31257796341036        0.92708650675471
O            2.97862783194117        3.34448426154606        1.50283678348701
C            1.72483671803440        1.34258479729265        1.51066474181748
C            1.51092850606561        1.37628822627833        2.86588595344232
O            2.01671666641859        2.29761596155541        3.68056395902676
C            0.71493832945773        0.31638721929652        3.52495454261170
O            0.48971129296374        0.30771442257266        4.72484947169372
N            0.26174115143566       -0.67016275546120        2.68464173229859
C            0.42365550205114       -0.64194460134980        1.39507023720972
C           -0.16293102653817       -1.84907077560106        0.65723502084520
C            0.95667512792254       -2.62235050798340       -0.05468041276747
C           -0.85928807792491       -2.77595377987419        1.66535537400222
N           -1.17584130743620       -1.36873890686818       -0.29266522634847
C           -1.80681300827695       -2.17857954210005       -1.17340013647882
O           -1.56508992102227       -3.35940702830157       -1.35183600429954
C           -2.84401453215227       -1.45941145487011       -1.95507204733918
N           -3.65934357500262       -1.95443376825761       -2.83264954224906
N           -4.41825542740346       -0.91972478135965       -3.29238280201961
C           -4.01805640547687        0.14373430945823       -2.66873589171001
C           -4.52160087653996        1.52572355360382       -2.82111157694193
O           -3.02468932690728       -0.12837492589080       -1.80474170335735
N            1.10803843068701        0.33835851164349        0.75631293378158
C            1.13477803388301        0.46483132120187       -0.70205415392941
H            3.78409713540864        3.78924101795898       -1.01162242161503
H            5.02994232933785        3.02227988531497        0.01014529894326
H            4.67077612289065        2.35409277192100       -1.61441245904918
H            2.51310521897273        2.98270639046144        3.17832512245487
H            1.29841861072989       -2.10253359425134       -0.94529785635218
H            1.79623197710919       -2.74206111177099        0.62895173452687
H            0.60043967810849       -3.60813103705048       -0.34912337601636
H           -1.29687480655681       -3.62069186815914        1.13607426231921
H           -1.64452133045282       -2.23660744696710        2.19195532148480
H           -0.13559002963716       -3.14429879563371        2.39044191982537
H           -1.56976620057394       -0.45658524545362       -0.13292942664708
H           -5.30964320012034        1.54730635844387       -3.57000123002227
H           -3.70905708254826        2.18422249587996       -3.12644128926914
H           -4.90878825851955        1.88887050456641       -1.86945286695616
H            1.01880784195813        1.51395943198302       -0.96271890600792
H            0.31407896847969       -0.09388988506271       -1.13790444482957
H            2.07992109756416        0.09051031131860       -1.09142763468614

          :  Hamiltonian                  GFN1-xTB          :
         :: total energy             -82.999372210702 Eh    ::
         :: gradient norm              0.000996126018 Eh/a0 ::
         :: HOMO-LUMO gap              2.760588132501 eV    ::
         :: SCC energy               -83.776553418993 Eh    ::
         :: -> Gsolv                  -0.065431182155 Eh    ::
         :: repulsion energy           0.804057146888 Eh    ::

    * Orbital Energies and Occupations

         #    Occupation            Energy/Eh            Energy/eV
      -------------------------------------------------------------
         1        2.0000           -0.8665553             -23.5802
       ...           ...                  ...                  ...
        55        2.0000           -0.5050195             -13.7423
        56        2.0000           -0.5037056             -13.7065
        57        2.0000           -0.4985278             -13.5656
        58        2.0000           -0.4901292             -13.3371
        59        2.0000           -0.4810369             -13.0897
        60        2.0000           -0.4743976             -12.9090
        61        2.0000           -0.4711666             -12.8211
        62        2.0000           -0.4666085             -12.6971
        63        2.0000           -0.4607818             -12.5385
        64        2.0000           -0.4531179             -12.3300
        65        2.0000           -0.4484385             -12.2026
        66        2.0000           -0.4255500             -11.5798
        67        2.0000           -0.4241548             -11.5418 (HOMO)
        68                         -0.3227050              -8.7813 (LUMO)
        69                         -0.3125328              -8.5045
        70                         -0.2928193              -7.9680
        71                         -0.2576416              -7.0108
        72                         -0.2409244              -6.5559
        73                         -0.2007208              -5.4619
        74                         -0.1650916              -4.4924
        75                         -0.1424795              -3.8771
        76                         -0.1418316              -3.8594
        77                         -0.1375757              -3.7436
        78                         -0.1254043              -3.4124
       ...                                ...                  ...
       134                          0.7292785              19.8447
      -------------------------------------------------------------
                  HL-Gap            0.1014497 Eh            2.7606 eV

Wiberg/Mayer (AO) data.
largest (>0.10) Wiberg bond orders for each atom

     #   Z sym  total        # sym  WBO       # sym  WBO       # sym  WBO
 ---------------------------------------------------------------------------
     1   6 C    3.856 --    28 H    0.985    27 H    0.979    26 H    0.979
                             2 O    0.880
     2   8 O    2.219 --     3 C    1.127     1 C    0.880     4 O    0.127
     3   6 C    3.855 --     4 O    1.608     2 O    1.127     5 C    1.028
     4   8 O    1.951 --     3 C    1.608     2 O    0.127
     5   6 C    3.924 --     6 C    1.505    24 N    1.078     3 C    1.028
     6   6 C    3.912 --     5 C    1.505     7 O    1.137     8 C    1.023
     7   8 O    2.100 --     6 C    1.137    29 H    0.771
     8   6 C    3.917 --     9 O    1.609    10 N    1.151     6 C    1.023
     9   8 O    1.890 --     8 C    1.609
    10   7 N    3.014 --    11 C    1.517     8 C    1.151
    11   6 C    3.931 --    10 N    1.517    24 N    1.253    12 C    0.970
    12   6 C    3.931 --    14 C    0.991    13 C    0.985    11 C    0.970
                            15 N    0.919
    13   6 C    3.988 --    12 C    0.985    31 H    0.985    30 H    0.981
                            32 H    0.977
    14   6 C    3.989 --    12 C    0.991    35 H    0.984    34 H    0.984
                            33 H    0.982
    15   7 N    3.346 --    16 C    1.242    12 C    0.919    36 H    0.894
                            17 O    0.173
    16   6 C    3.915 --    17 O    1.594    15 N    1.242    18 C    0.992
    17   8 O    1.909 --    16 C    1.594    15 N    0.173
    18   6 C    3.872 --    19 N    1.624    23 O    1.046    16 C    0.992
    19   7 N    3.000 --    18 C    1.624    20 N    1.197
    20   7 N    2.982 --    21 C    1.612    19 N    1.197
    21   6 C    3.868 --    20 N    1.612    23 O    1.070    22 C    1.032
    22   6 C    3.986 --    21 C    1.032    37 H    0.982    38 H    0.963
                            39 H    0.963
    23   8 O    2.314 --    21 C    1.070    18 C    1.046
    24   7 N    3.517 --    11 C    1.253     5 C    1.078    25 C    0.925
    25   6 C    3.921 --    40 H    0.979    42 H    0.974    41 H    0.972
                            24 N    0.925
    26   1 H    1.004 --     1 C    0.979
    27   1 H    1.006 --     1 C    0.979
    28   1 H    1.008 --     1 C    0.985
    29   1 H    0.849 --     7 O    0.771
    30   1 H    1.001 --    13 C    0.981
    31   1 H    1.001 --    13 C    0.985
    32   1 H    1.011 --    13 C    0.977
    33   1 H    1.007 --    14 C    0.982
    34   1 H    1.011 --    14 C    0.984
    35   1 H    1.010 --    14 C    0.984
    36   1 H    0.939 --    15 N    0.894
    37   1 H    0.998 --    22 C    0.982
    38   1 H    0.996 --    22 C    0.963
    39   1 H    0.997 --    22 C    0.963
    40   1 H    1.002 --    25 C    0.979
    41   1 H    1.007 --    25 C    0.972
    42   1 H    1.009 --    25 C    0.974
 ---------------------------------------------------------------------------

           -------------------------------------------------
          | TOTAL ENERGY              -82.999372210702 Eh   |
          | GRADIENT NORM               0.000996126018 Eh/α |
          | HOMO-LUMO GAP               2.760588132501 eV   |
           -------------------------------------------------

 * finished run on 2023/06/20 at 18:12:33.202
