   * xtb version 6.5.1 (579679a) compiled by 'ehlert@majestix' on 2022-07-11
          program call               : /lustre/hpc/kemi/ree/PhD/git/ReactivityQM/dep/xtb-6.5.1/bin/xtb --gfn 1 /lustre/hpc/kemi/ree/PhD/git/ReactivityQM/calculations/RaltegravirCLI/reac01prodN01/conf10/RaltegravirCLI_reac01prodN01_conf10_gfn1.xyz --opt --vfukui --chrg 1 --uhf 0 --alpb DMSO

   ID    Z sym.   atoms
    1    6 C      1, 2, 5, 6, 10
    2    7 N      3, 4
    3    8 O      7, 9
    4   17 Cl     8
    5    1 H      11-16

      * Solvation model:               ALPB
        Solvent                        DMSO
        Solvent mass                       7.8130E+01 g/mol
          :  Hamiltonian                  GFN1-xTB          :
 * total energy  :   -33.3495833 Eh     change       -0.6359357E-11 Eh
 * total energy  :   -33.3635834 Eh     change       -0.1400002E-01 Eh
 * total energy  :   -33.3696493 Eh     change       -0.6065964E-02 Eh
 * total energy  :   -33.3713056 Eh     change       -0.1656292E-02 Eh
 * total energy  :   -33.3722966 Eh     change       -0.9910174E-03 Eh
 * total energy  :   -33.3727891 Eh     change       -0.4925001E-03 Eh
 * total energy  :   -33.3730842 Eh     change       -0.2950951E-03 Eh
 * total energy  :   -33.3733143 Eh     change       -0.2301110E-03 Eh
 * total energy  :   -33.3734573 Eh     change       -0.1429886E-03 Eh
 * total energy  :   -33.3735415 Eh     change       -0.8414949E-04 Eh
 * total energy  :   -33.3743296 Eh     change       -0.1551012E-03 Eh
 * total energy  :   -33.3743692 Eh     change       -0.3955060E-04 Eh
 * total energy  :   -33.3743177 Eh     change        0.5149556E-04 Eh
 * total energy  :   -33.3744437 Eh     change       -0.1259572E-03 Eh
 * total energy  :   -33.3744648 Eh     change       -0.2118465E-04 Eh
 * total energy  :   -33.3745026 Eh     change       -0.3775220E-04 Eh
 * total energy  :   -33.3745180 Eh     change       -0.1542983E-04 Eh
 * total energy  :   -33.3745356 Eh     change       -0.1755404E-04 Eh
 * total energy  :   -33.3745403 Eh     change       -0.4708376E-05 Eh
   *** GEOMETRY OPTIMIZATION CONVERGED AFTER 34 ITERATIONS ***

 final structure:
================
16
 xtb: 6.5.1 (579679a)
C           -2.36991152537952        0.12806412246142        0.01716494063387
C           -1.02692551231355        0.67952819849508        0.24080998901040
N           -0.69277596054979        1.83599166506273        0.68091595586891
N            0.66275649764572        1.91971842111404        0.72985978297443
C            1.16424867620265        0.81443991224133        0.31985147717571
C            2.58151441047971        0.40059943781496        0.18004448777383
O            2.89948693491597       -0.67877784474912       -0.22351818111625
Cl           3.67955219953738        1.61006169799070        0.64944217232225
O            0.12520293583472       -0.06195739771258       -0.02370970320415
C            0.25591506399875       -1.43117608753961       -0.53212975712958
H           -2.53833364048755       -0.73542220331083        0.66233808732874
H           -3.10467143835417        0.89914169327809        0.24380047864512
H           -2.48433924262127       -0.19405500189537       -1.01816602277345
H            0.79878602743182       -1.37641456888928       -1.47329673031862
H            0.80220694093302       -2.00276601320024        0.21514255719982
H           -0.75271336727401       -1.80697503116130       -0.66854953439097

          :  Hamiltonian                  GFN1-xTB          :
         :: total energy             -33.374540290776 Eh    ::
         :: gradient norm              0.000635397584 Eh/a0 ::
         :: HOMO-LUMO gap              3.144029114804 eV    ::
         :: SCC energy               -33.663836876065 Eh    ::
         :: -> Gsolv                  -0.092281373437 Eh    ::
         :: repulsion energy           0.297113284283 Eh    ::

    * Orbital Energies and Occupations

         #    Occupation            Energy/Eh            Energy/eV
      -------------------------------------------------------------
         1        2.0000           -0.9858627             -26.8267
       ...           ...                  ...                  ...
        15        2.0000           -0.6278994             -17.0860
        16        2.0000           -0.6101080             -16.6019
        17        2.0000           -0.6091218             -16.5750
        18        2.0000           -0.5953957             -16.2015
        19        2.0000           -0.5887046             -16.0195
        20        2.0000           -0.5742647             -15.6265
        21        2.0000           -0.5664272             -15.4133
        22        2.0000           -0.5528806             -15.0446
        23        2.0000           -0.5291217             -14.3981
        24        2.0000           -0.5273151             -14.3490
        25        2.0000           -0.5182507             -14.1023
        26        2.0000           -0.5180521             -14.0969
        27        2.0000           -0.5092704             -13.8580 (HOMO)
        28                         -0.3937294             -10.7139 (LUMO)
        29                         -0.3273529              -8.9077
        30                         -0.2836576              -7.7187
        31                         -0.2440991              -6.6423
        32                         -0.1955203              -5.3204
        33                         -0.1794239              -4.8824
        34                         -0.1317387              -3.5848
        35                         -0.1220789              -3.3219
        36                         -0.1194311              -3.2499
        37                         -0.1115455              -3.0353
        38                         -0.1109804              -3.0199
       ...                                ...                  ...
        57                          0.7016828              19.0938
      -------------------------------------------------------------
                  HL-Gap            0.1155409 Eh            3.1440 eV

Wiberg/Mayer (AO) data.
largest (>0.10) Wiberg bond orders for each atom

     #   Z sym  total        # sym  WBO       # sym  WBO       # sym  WBO
 ---------------------------------------------------------------------------
     1   6 C    3.965 --     2 C    1.047    12 H    0.968    13 H    0.948
                            11 H    0.944
     2   6 C    3.800 --     3 N    1.667     1 C    1.047     9 O    0.888
     3   7 N    3.024 --     2 C    1.667     4 N    1.172
     4   7 N    3.041 --     5 C    1.686     3 N    1.172
     5   6 C    3.814 --     4 N    1.686     6 C    1.005     9 O    0.879
     6   6 C    3.905 --     7 O    1.759     8 Cl   1.095     5 C    1.005
     7   8 O    2.058 --     6 C    1.759     8 Cl   0.169
     8  17 Cl   1.329 --     6 C    1.095     7 O    0.169
     9   8 O    2.657 --     2 C    0.888     5 C    0.879    10 C    0.740
    10   6 C    3.714 --    16 H    0.973    14 H    0.967    15 H    0.966
                             9 O    0.740
    11   1 H    0.985 --     1 C    0.944
    12   1 H    0.987 --     1 C    0.968
    13   1 H    0.986 --     1 C    0.948
    14   1 H    0.994 --    10 C    0.967
    15   1 H    0.994 --    10 C    0.966
    16   1 H    0.988 --    10 C    0.973
 ---------------------------------------------------------------------------

           -------------------------------------------------
          | TOTAL ENERGY              -33.374540290776 Eh   |
          | GRADIENT NORM               0.000635397584 Eh/α |
          | HOMO-LUMO GAP               3.144029114804 eV   |
           -------------------------------------------------

 * finished run on 2023/06/20 at 14:54:03.385
