                         Program Version 5.0.1 -  RELEASE  -
|  1> # ORCA input file
|  2> ! SP r2SCAN-3c CPCM
|  3>
|  4> %maxcore 1875.0
|  5> %pal nprocs 4 end
|  6> %cpcm smd true SMDsolvent "DMSO" end
|  7>
|  8> *xyz 1 1
|  9> C       5.429779    1.689821    2.987629
| 10> O       4.445050    1.124265    2.112875
| 11> C       4.785090    1.002124    0.839247
| 12> O       5.869277    1.343744    0.400570
| 13> C       3.731365    0.405946   -0.014318
| 14> N       2.551131    0.058856    0.579898
| 15> C       1.593142   -0.465358   -0.111572
| 16> C       0.350955   -0.858588    0.678207
| 17> C       0.470712   -0.335024    2.115565
| 18> C       0.191758   -2.384532    0.693093
| 19> N      -0.815589   -0.192428    0.063080
| 20> C      -2.080426   -0.463763    0.406866
| 21> O      -2.475588   -1.344240    1.144454
| 22> C      -3.031137    0.471665   -0.272213
| 23> N      -2.785178    1.464363   -1.039921
| 24> N      -3.968882    2.034352   -1.417481
| 25> C      -4.932188    1.388694   -0.879257
| 26> C      -6.381438    1.614680   -0.986059
| 27> O      -4.410178    0.343657   -0.107023
| 28> C      -5.107538   -0.667325    0.692450
| 29> N       1.714941   -0.699881   -1.456312
| 30> C       0.675774   -1.305440   -2.291397
| 31> C       2.884207   -0.406450   -2.164223
| 32> O       2.966359   -0.652554   -3.356480
| 33> C       3.940726    0.198076   -1.354275
| 34> O       5.066715    0.505234   -1.996302
| 35> H       5.683381    2.700072    2.658705
| 36> H       4.984924    1.712791    3.980063
| 37> H       6.329303    1.069998    2.985529
| 38> H       0.611617    0.744204    2.111039
| 39> H      -0.436752   -0.576944    2.665044
| 40> H       1.323620   -0.801642    2.605393
| 41> H       1.158013   -2.835891    0.916635
| 42> H      -0.161237   -2.759227   -0.263659
| 43> H      -0.518130   -2.680695    1.462115
| 44> H      -0.646111    0.654455   -0.459119
| 45> H      -6.813531    1.793935   -0.001075
| 46> H      -6.871764    0.742732   -1.420563
| 47> H      -6.552060    2.481934   -1.622083
| 48> H      -4.826254   -1.641771    0.297952
| 49> H      -4.782506   -0.546099    1.723744
| 50> H      -6.169636   -0.476164    0.577148
| 51> H       0.923437   -2.352538   -2.468056
| 52> H      -0.293119   -1.223715   -1.816989
| 53> H       0.659115   -0.777476   -3.245268
| 54> H       5.718849    0.902148   -1.372966
| 55> **                         ****END OF INPUT****

CARTESIAN COORDINATES (ANGSTROEM)
---------------------------------
  C      5.429779    1.689821    2.987629
  O      4.445050    1.124265    2.112875
  C      4.785090    1.002124    0.839247
  O      5.869277    1.343744    0.400570
  C      3.731365    0.405946   -0.014318
  N      2.551131    0.058856    0.579898
  C      1.593142   -0.465358   -0.111572
  C      0.350955   -0.858588    0.678207
  C      0.470712   -0.335024    2.115565
  C      0.191758   -2.384532    0.693093
  N     -0.815589   -0.192428    0.063080
  C     -2.080426   -0.463763    0.406866
  O     -2.475588   -1.344240    1.144454
  C     -3.031137    0.471665   -0.272213
  N     -2.785178    1.464363   -1.039921
  N     -3.968882    2.034352   -1.417481
  C     -4.932188    1.388694   -0.879257
  C     -6.381438    1.614680   -0.986059
  O     -4.410178    0.343657   -0.107023
  C     -5.107538   -0.667325    0.692450
  N      1.714941   -0.699881   -1.456312
  C      0.675774   -1.305440   -2.291397
  C      2.884207   -0.406450   -2.164223
  O      2.966359   -0.652554   -3.356480
  C      3.940726    0.198076   -1.354275
  O      5.066715    0.505234   -1.996302
  H      5.683381    2.700072    2.658705
  H      4.984924    1.712791    3.980063
  H      6.329303    1.069998    2.985529
  H      0.611617    0.744204    2.111039
  H     -0.436752   -0.576944    2.665044
  H      1.323620   -0.801642    2.605393
  H      1.158013   -2.835891    0.916635
  H     -0.161237   -2.759227   -0.263659
  H     -0.518130   -2.680695    1.462115
  H     -0.646111    0.654455   -0.459119
  H     -6.813531    1.793935   -0.001075
  H     -6.871764    0.742732   -1.420563
  H     -6.552060    2.481934   -1.622083
  H     -4.826254   -1.641771    0.297952
  H     -4.782506   -0.546099    1.723744
  H     -6.169636   -0.476164    0.577148
  H      0.923437   -2.352538   -2.468056
  H     -0.293119   -1.223715   -1.816989
  H      0.659115   -0.777476   -3.245268
  H      5.718849    0.902148   -1.372966

 Total Charge           Charge          ....    1
 Multiplicity           Mult            ....    1
 Number of Electrons    NEL             ....  192
 Basis Dimension        Dim             ....  649

ORBITAL ENERGIES
----------------

  NO   OCC          E(Eh)            E(eV)
   0   2.0000     -19.185783      -522.0717
   1   2.0000     -19.012563      -517.3581
   2   2.0000     -18.998954      -516.9878
   3   2.0000     -18.958467      -515.8861
   4   2.0000     -18.958268      -515.8807
   5   2.0000     -18.933563      -515.2084
   6   2.0000     -14.252342      -387.8260
   7   2.0000     -14.243086      -387.5741
   8   2.0000     -14.242710      -387.5638
   9   2.0000     -14.219794      -386.9403
  10   2.0000     -14.167582      -385.5195
  11   2.0000     -10.202580      -277.6263
  12   2.0000     -10.198613      -277.5184
  13   2.0000     -10.185388      -277.1585
  14   2.0000     -10.175991      -276.9028
  15   2.0000     -10.149445      -276.1804
  16   2.0000     -10.138493      -275.8824
  17   2.0000     -10.130131      -275.6549
  18   2.0000     -10.126852      -275.5657
  19   2.0000     -10.114488      -275.2292
  20   2.0000     -10.093212      -274.6503
  21   2.0000     -10.081959      -274.3441
  22   2.0000     -10.069933      -274.0168
  23   2.0000     -10.064434      -273.8672
  24   2.0000     -10.026782      -272.8426
  25   2.0000     -10.022879      -272.7364
  26   2.0000      -1.235184       -33.6111
  27   2.0000      -1.091732       -29.7075
  28   2.0000      -1.055439       -28.7200
  29   2.0000      -1.051577       -28.6149
  30   2.0000      -1.045617       -28.4527
  31   2.0000      -1.024661       -27.8824
  32   2.0000      -0.999972       -27.2106
  33   2.0000      -0.972022       -26.4501
  34   2.0000      -0.933683       -25.4068
  35   2.0000      -0.892062       -24.2742
  36   2.0000      -0.884848       -24.0779
  37   2.0000      -0.797945       -21.7132
  38   2.0000      -0.788584       -21.4585
  39   2.0000      -0.754912       -20.5422
  40   2.0000      -0.744342       -20.2546
  41   2.0000      -0.725466       -19.7409
  42   2.0000      -0.715518       -19.4702
  43   2.0000      -0.692002       -18.8303
  44   2.0000      -0.666925       -18.1480
  45   2.0000      -0.659824       -17.9547
  46   2.0000      -0.640051       -17.4167
  47   2.0000      -0.636960       -17.3326
  48   2.0000      -0.613509       -16.6944
  49   2.0000      -0.576339       -15.6830
  50   2.0000      -0.570504       -15.5242
  51   2.0000      -0.561384       -15.2760
  52   2.0000      -0.560496       -15.2519
  53   2.0000      -0.552776       -15.0418
  54   2.0000      -0.538403       -14.6507
  55   2.0000      -0.522254       -14.2113
  56   2.0000      -0.497232       -13.5304
  57   2.0000      -0.478821       -13.0294
  58   2.0000      -0.468179       -12.7398
  59   2.0000      -0.462292       -12.5796
  60   2.0000      -0.457712       -12.4550
  61   2.0000      -0.455265       -12.3884
  62   2.0000      -0.449907       -12.2426
  63   2.0000      -0.446570       -12.1518
  64   2.0000      -0.443387       -12.0652
  65   2.0000      -0.434367       -11.8197
  66   2.0000      -0.427525       -11.6335
  67   2.0000      -0.417710       -11.3665
  68   2.0000      -0.413222       -11.2443
  69   2.0000      -0.410784       -11.1780
  70   2.0000      -0.405187       -11.0257
  71   2.0000      -0.404627       -11.0105
  72   2.0000      -0.395728       -10.7683
  73   2.0000      -0.388357       -10.5677
  74   2.0000      -0.378181       -10.2908
  75   2.0000      -0.377043       -10.2599
  76   2.0000      -0.375131       -10.2078
  77   2.0000      -0.369504       -10.0547
  78   2.0000      -0.367055        -9.9881
  79   2.0000      -0.362046        -9.8518
  80   2.0000      -0.355950        -9.6859
  81   2.0000      -0.351734        -9.5712
  82   2.0000      -0.347903        -9.4669
  83   2.0000      -0.340126        -9.2553
  84   2.0000      -0.330921        -9.0048
  85   2.0000      -0.326809        -8.8929
  86   2.0000      -0.306786        -8.3481
  87   2.0000      -0.303563        -8.2604
  88   2.0000      -0.289605        -7.8806
  89   2.0000      -0.279098        -7.5946
  90   2.0000      -0.274902        -7.4805
  91   2.0000      -0.269602        -7.3362
  92   2.0000      -0.260372        -7.0851
  93   2.0000      -0.248345        -6.7578
  94   2.0000      -0.243913        -6.6372
  95   2.0000      -0.214301        -5.8314
  96   0.0000      -0.129385        -3.5208
  97   0.0000      -0.097088        -2.6419
  98   0.0000      -0.060395        -1.6434
  99   0.0000      -0.046427        -1.2633
 100   0.0000      -0.022464        -0.6113

MULLIKEN ATOMIC CHARGES
-----------------------
   0 C :   -0.311245
   1 O :   -0.184048
   2 C :    0.213871
   3 O :   -0.478980
   4 C :    0.111396
   5 N :   -0.088657
   6 C :    0.123882
   7 C :   -0.040507
   8 C :   -0.637127
   9 C :   -0.526745
  10 N :   -0.066271
  11 C :   -0.001182
  12 O :   -0.462356
  13 C :    0.385293
  14 N :   -0.080098
  15 N :   -0.232035
  16 C :    0.473597
  17 C :   -0.669721
  18 O :    0.106701
  19 C :   -0.234954
  20 N :    0.235293
  21 C :   -0.450261
  22 C :    0.122586
  23 O :   -0.430981
  24 C :    0.068657
  25 O :   -0.356196
  26 H :    0.180225
  27 H :    0.180438
  28 H :    0.180223
  29 H :    0.196378
  30 H :    0.186688
  31 H :    0.195028
  32 H :    0.194684
  33 H :    0.191880
  34 H :    0.202990
  35 H :    0.341888
  36 H :    0.230785
  37 H :    0.232368
  38 H :    0.227522
  39 H :    0.230464
  40 H :    0.230795
  41 H :    0.224180
  42 H :    0.206701
  43 H :    0.206952
  44 H :    0.196032
  45 H :    0.373869
Sum of atomic charges:    1.0000000

LOEWDIN ATOMIC CHARGES
----------------------
   0 C :   -0.031319
   1 O :   -0.556340
   2 C :    0.408310
   3 O :   -0.462640
   4 C :    0.195756
   5 N :   -0.567885
   6 C :    0.368083
   7 C :    0.117712
   8 C :   -0.328685
   9 C :   -0.338926
  10 N :   -0.571652
  11 C :    0.386049
  12 O :   -0.452992
  13 C :    0.484499
  14 N :   -0.281130
  15 N :   -0.284740
  16 C :    0.445671
  17 C :   -0.298574
  18 O :   -0.544153
  19 C :    0.081916
  20 N :   -0.630134
  21 C :   -0.077104
  22 C :    0.383235
  23 O :   -0.452176
  24 C :    0.288859
  25 O :   -0.437293
  26 H :    0.184686
  27 H :    0.188392
  28 H :    0.184722
  29 H :    0.177772
  30 H :    0.171449
  31 H :    0.179759
  32 H :    0.177696
  33 H :    0.177155
  34 H :    0.184593
  35 H :    0.309368
  36 H :    0.206960
  37 H :    0.207613
  38 H :    0.210241
  39 H :    0.222314
  40 H :    0.222310
  41 H :    0.219411
  42 H :    0.198323
  43 H :    0.208818
  44 H :    0.208735
  45 H :    0.315336

  Mayer bond orders larger than 0.100000
B(  0-C ,  1-O ) :   0.8222 B(  0-C , 26-H ) :   0.9542 B(  0-C , 27-H ) :   0.9607
B(  0-C , 28-H ) :   0.9541 B(  1-O ,  2-C ) :   1.2009 B(  2-C ,  3-O ) :   1.7249
B(  2-C ,  4-C ) :   1.0610 B(  4-C ,  5-N ) :   1.0184 B(  4-C , 24-C ) :   1.2830
B(  5-N ,  6-C ) :   1.7261 B(  5-N ,  7-C ) :  -0.1302 B(  5-N , 20-N ) :   0.1006
B(  6-C ,  7-C ) :   0.9032 B(  6-C , 20-N ) :   1.2444 B(  6-C , 24-C ) :   0.1061
B(  7-C ,  8-C ) :   0.9016 B(  7-C ,  9-C ) :   0.9171 B(  7-C , 10-N ) :   0.8249
B(  8-C , 29-H ) :   0.9671 B(  8-C , 30-H ) :   0.9598 B(  8-C , 31-H ) :   0.9606
B(  9-C , 32-H ) :   0.9608 B(  9-C , 33-H ) :   0.9405 B(  9-C , 34-H ) :   0.9547
B( 10-N , 11-C ) :   1.2146 B( 10-N , 12-O ) :   0.1080 B( 10-N , 35-H ) :   0.8726
B( 11-C , 12-O ) :   1.7407 B( 11-C , 13-C ) :   0.8389 B( 13-C , 14-N ) :   1.7475
B( 13-C , 18-O ) :   0.9922 B( 14-N , 15-N ) :   1.0394 B( 15-N , 16-C ) :   1.6693
B( 16-C , 17-C ) :   0.8388 B( 16-C , 18-O ) :   0.9051 B( 17-C , 36-H ) :   0.9285
B( 17-C , 37-H ) :   0.9274 B( 17-C , 38-H ) :   0.9431 B( 18-O , 19-C ) :   0.7907
B( 19-C , 39-H ) :   0.9140 B( 19-C , 40-H ) :   0.9136 B( 19-C , 41-H ) :   0.9155
B( 20-N , 21-C ) :   0.8470 B( 20-N , 22-C ) :   1.0678 B( 21-C , 42-H ) :   0.9349
B( 21-C , 43-H ) :   0.9282 B( 21-C , 44-H ) :   0.9344 B( 22-C , 23-O ) :   1.8914
B( 22-C , 24-C ) :   1.0239 B( 24-C , 25-O ) :   1.1496 B( 25-O , 45-H ) :   0.7699

Dispersion correction           -0.020799665
FINAL SINGLE POINT ENERGY     -1308.293092560551

DIPOLE MOMENT
-------------
                                X             Y             Z
Electronic contribution:      7.23028       6.13924      -9.59065
Nuclear contribution   :    -17.93833      -6.33626      11.84564
                        -----------------------------------------
Total Dipole Moment    :    -10.70805      -0.19702       2.25500
                        -----------------------------------------
Magnitude (a.u.)       :     10.94468
Magnitude (Debye)      :     27.81917

Rotational constants in cm-1:     0.013099     0.003105     0.002896
Rotational constants in MHz :   392.683301    93.085255    86.829257

                             ****ORCA TERMINATED NORMALLY****
TOTAL RUN TIME: 0 days 0 hours 1 minutes 44 seconds 924 msec
