   * xtb version 6.5.1 (579679a) compiled by 'ehlert@majestix' on 2022-07-11
          program call               : /lustre/hpc/kemi/ree/PhD/git/ReactivityQM/dep/xtb-6.5.1/bin/xtb --gfn 1 /lustre/hpc/kemi/ree/PhD/git/ReactivityQM/calculations/R03/reac02prodN01/conf06/R03_reac02prodN01_conf06_gfn1.xyz --opt --vfukui --chrg 1 --uhf 0 --alpb DMSO

   ID    Z sym.   atoms
    1    6 C      1, 3, 5, 7-10, 12, 14, 17, 18, 20, 22, 23, 25
    2    8 O      2, 4, 13, 19, 24, 26
    3    7 N      6, 11, 15, 16, 21
    4    1 H      27-46

      * Solvation model:               ALPB
        Solvent                        DMSO
        Solvent mass                       7.8130E+01 g/mol
          :  Hamiltonian                  GFN1-xTB          :
 * total energy  :   -86.2633616 Eh     change       -0.4050094E-11 Eh
 * total energy  :   -86.2824385 Eh     change       -0.1907696E-01 Eh
 * total energy  :   -86.2909728 Eh     change       -0.8534298E-02 Eh
 * total energy  :   -86.2934289 Eh     change       -0.2456009E-02 Eh
 * total energy  :   -86.2950173 Eh     change       -0.1588449E-02 Eh
 * total energy  :   -86.2957103 Eh     change       -0.6930278E-03 Eh
 * total energy  :   -86.2961747 Eh     change       -0.4643792E-03 Eh
 * total energy  :   -86.2964781 Eh     change       -0.3033807E-03 Eh
 * total energy  :   -86.2966845 Eh     change       -0.2064423E-03 Eh
 * total energy  :   -86.2968423 Eh     change       -0.1578110E-03 Eh
 * total energy  :   -86.2979960 Eh     change       -0.7329921E-04 Eh
 * total energy  :   -86.2980338 Eh     change       -0.3779878E-04 Eh
 * total energy  :   -86.2980620 Eh     change       -0.2814730E-04 Eh
 * total energy  :   -86.2981094 Eh     change       -0.4737500E-04 Eh
 * total energy  :   -86.2981226 Eh     change       -0.1325221E-04 Eh
 * total energy  :   -86.2981374 Eh     change       -0.1475408E-04 Eh
 * total energy  :   -86.2981422 Eh     change       -0.4847782E-05 Eh
 * total energy  :   -86.2981473 Eh     change       -0.5091809E-05 Eh
 * total energy  :   -86.2981504 Eh     change       -0.3084463E-05 Eh
   *** GEOMETRY OPTIMIZATION CONVERGED AFTER 36 ITERATIONS ***

 final structure:
================
46
 xtb: 6.5.1 (579679a)
C            5.42977866488554        1.68982120791182        2.98762937944204
O            4.44504998594262        1.12426469347362        2.11287501377886
C            4.78509029440185        1.00212375160176        0.83924688322112
O            5.86927741945636        1.34374359884528        0.40057037914343
C            3.73136549940599        0.40594608879622       -0.01431776405137
N            2.55113120674290        0.05885559152936        0.57989772743607
C            1.59314219351482       -0.46535757122660       -0.11157171695743
C            0.35095460316230       -0.85858825506513        0.67820719576371
C            0.47071232879004       -0.33502376578309        2.11556473197482
C            0.19175799620750       -2.38453210469243        0.69309291443869
N           -0.81558853108636       -0.19242752453411        0.06308013394716
C           -2.08042642116839       -0.46376253944030        0.40686589246485
O           -2.47558780662501       -1.34424036029908        1.14445359721089
C           -3.03113695326547        0.47166495309746       -0.27221297510699
N           -2.78517757805219        1.46436275104445       -1.03992127940927
N           -3.96888238983227        2.03435248060128       -1.41748056223321
C           -4.93218823581756        1.38869370451072       -0.87925719683135
C           -6.38143818749220        1.61468038187760       -0.98605860850452
O           -4.41017844253441        0.34365722017860       -0.10702329740281
C           -5.10753800891332       -0.66732459443569        0.69244956432955
N            1.71494075904213       -0.69988080637822       -1.45631220594311
C            0.67577391658130       -1.30543984703667       -2.29139677987040
C            2.88420747545176       -0.40645040891603       -2.16422310774457
O            2.96635876275786       -0.65255395757419       -3.35647966984661
C            3.94072614064856        0.19807578214492       -1.35427482779757
O            5.06671461541080        0.50523428737718       -1.99630164267914
H            5.68338099143876        2.70007222687254        2.65870534797691
H            4.98492429820236        1.71279121954460        3.98006316602816
H            6.32930330023961        1.06999805125599        2.98552909283589
H            0.61161741505750        0.74420447841332        2.11103944714162
H           -0.43675244187156       -0.57694391720100        2.66504414246218
H            1.32361973539741       -0.80164241926888        2.60539297807809
H            1.15801342107768       -2.83589090268469        0.91663458474621
H           -0.16123650209178       -2.75922677074117       -0.26365902859048
H           -0.51813009568948       -2.68069541501155        1.46211547211838
H           -0.64611060061869        0.65445466145257       -0.45911859176892
H           -6.81353057270371        1.79393474951156       -0.00107460994460
H           -6.87176428274711        0.74273187205202       -1.42056311553235
H           -6.55205956775994        2.48193394694509       -1.62208307397841
H           -4.82625440977286       -1.64177076888101        0.29795173344812
H           -4.78250622618187       -0.54609920536829        1.72374411902320
H           -6.16963642080663       -0.47616358008679        0.57714768982438
H            0.92343672391005       -2.35253795977218       -2.46805610575676
H           -0.29311877570445       -1.22371468383078       -1.81698866995680
H            0.65911513683395       -0.77747594074128       -3.24526780443428
H            5.71884856617579        0.90214759992917       -1.37296555249596

          :  Hamiltonian                  GFN1-xTB          :
         :: total energy             -86.298150397648 Eh    ::
         :: gradient norm              0.000742417202 Eh/a0 ::
         :: HOMO-LUMO gap              1.814875152450 eV    ::
         :: SCC energy               -87.134474512498 Eh    ::
         :: -> Gsolv                  -0.124854899639 Eh    ::
         :: repulsion energy           0.865530082492 Eh    ::

    * Orbital Energies and Occupations

         #    Occupation            Energy/Eh            Energy/eV
      -------------------------------------------------------------
         1        2.0000           -0.9704557             -26.4074
       ...           ...                  ...                  ...
        58        2.0000           -0.5218959             -14.2015
        59        2.0000           -0.5192082             -14.1284
        60        2.0000           -0.5174707             -14.0811
        61        2.0000           -0.5143479             -13.9961
        62        2.0000           -0.5118661             -13.9286
        63        2.0000           -0.5032704             -13.6947
        64        2.0000           -0.4979163             -13.5490
        65        2.0000           -0.4937571             -13.4358
        66        2.0000           -0.4831898             -13.1483
        67        2.0000           -0.4808661             -13.0850
        68        2.0000           -0.4661392             -12.6843
        69        2.0000           -0.4519900             -12.2993
        70        2.0000           -0.4351285             -11.8404 (HOMO)
        71                         -0.3684330             -10.0256 (LUMO)
        72                         -0.3312757              -9.0145
        73                         -0.3163652              -8.6087
        74                         -0.2936663              -7.9911
        75                         -0.2494035              -6.7866
        76                         -0.2480339              -6.7493
        77                         -0.1913193              -5.2061
        78                         -0.1766278              -4.8063
        79                         -0.1654055              -4.5009
        80                         -0.1500789              -4.0839
        81                         -0.1403736              -3.8198
       ...                                ...                  ...
       144                          0.7137976              19.4234
      -------------------------------------------------------------
                  HL-Gap            0.0666954 Eh            1.8149 eV

Wiberg/Mayer (AO) data.
largest (>0.10) Wiberg bond orders for each atom

     #   Z sym  total        # sym  WBO       # sym  WBO       # sym  WBO
 ---------------------------------------------------------------------------
     1   6 C    3.864 --    28 H    0.986    27 H    0.979    29 H    0.979
                             2 O    0.890
     2   8 O    2.218 --     3 C    1.139     1 C    0.890     4 O    0.131
     3   6 C    3.849 --     4 O    1.609     2 O    1.139     5 C    1.017
     4   8 O    1.944 --     3 C    1.609     2 O    0.131
     5   6 C    3.963 --    25 C    1.476     6 N    1.185     3 C    1.017
     6   7 N    3.033 --     7 C    1.575     5 C    1.185
     7   6 C    3.935 --     6 N    1.575    21 N    1.175     8 C    0.975
     8   6 C    3.915 --     9 C    0.988    10 C    0.985     7 C    0.975
                            11 N    0.900
     9   6 C    3.987 --     8 C    0.988    30 H    0.984    31 H    0.983
                            32 H    0.982
    10   6 C    3.985 --     8 C    0.985    33 H    0.983    34 H    0.980
                            35 H    0.977
    11   7 N    3.383 --    12 C    1.289     8 C    0.900    36 H    0.890
                            13 O    0.190
    12   6 C    3.926 --    13 O    1.592    11 N    1.289    14 C    0.968
    13   8 O    1.948 --    12 C    1.592    11 N    0.190
    14   6 C    3.802 --    15 N    1.704    12 C    0.968    19 O    0.888
    15   7 N    3.045 --    14 C    1.704    16 N    1.148
    16   7 N    3.024 --    17 C    1.694    15 N    1.148
    17   6 C    3.802 --    16 N    1.694    18 C    1.044    19 O    0.877
    18   6 C    3.968 --    17 C    1.044    39 H    0.969    37 H    0.950
                            38 H    0.949
    19   8 O    2.656 --    14 C    0.888    17 C    0.877    20 C    0.744
    20   6 C    3.720 --    42 H    0.974    40 H    0.967    41 H    0.967
                            19 O    0.744
    21   7 N    3.501 --     7 C    1.175    23 C    1.104    22 C    0.930
                            24 O    0.137
    22   6 C    3.922 --    44 H    0.978    43 H    0.974    45 H    0.974
                            21 N    0.930
    23   6 C    3.911 --    24 O    1.593    21 N    1.104    25 C    1.066
    24   8 O    1.909 --    23 C    1.593    21 N    0.137
    25   6 C    3.923 --     5 C    1.476    26 O    1.130    23 C    1.066
    26   8 O    2.097 --    25 C    1.130    46 H    0.776
    27   1 H    1.006 --     1 C    0.979
    28   1 H    1.010 --     1 C    0.986
    29   1 H    1.006 --     1 C    0.979
    30   1 H    1.008 --     9 C    0.984
    31   1 H    1.001 --     9 C    0.983
    32   1 H    1.008 --     9 C    0.982
    33   1 H    1.000 --    10 C    0.983
    34   1 H    1.000 --    10 C    0.980
    35   1 H    1.008 --    10 C    0.977
    36   1 H    0.938 --    11 N    0.890
    37   1 H    0.988 --    18 C    0.950
    38   1 H    0.987 --    18 C    0.949
    39   1 H    0.989 --    18 C    0.969
    40   1 H    0.998 --    20 C    0.967
    41   1 H    0.999 --    20 C    0.967
    42   1 H    0.990 --    20 C    0.974
    43   1 H    1.000 --    22 C    0.974
    44   1 H    1.007 --    22 C    0.978
    45   1 H    1.006 --    22 C    0.974
    46   1 H    0.850 --    26 O    0.776
 ---------------------------------------------------------------------------

           -------------------------------------------------
          | TOTAL ENERGY              -86.298150397648 Eh   |
          | GRADIENT NORM               0.000742417202 Eh/α |
          | HOMO-LUMO GAP               1.814875152450 eV   |
           -------------------------------------------------

 * finished run on 2023/06/20 at 15:36:32.603
