   * xtb version 6.5.1 (579679a) compiled by 'ehlert@majestix' on 2022-07-11
          program call               : /lustre/hpc/kemi/ree/PhD/git/ReactivityQM/dep/xtb-6.5.1/bin/xtb --gfn 1 /lustre/hpc/kemi/ree/PhD/git/ReactivityQM/calculations/R02methylcation/reac01prodE12/conf12/R02methylcation_reac01prodE12_conf12_gfn1.xyz --opt --vfukui --chrg -2 --uhf 0 --alpb DMSO

   ID    Z sym.   atoms
    1    6 C      1, 3, 5, 6, 8, 9, 12-15, 17, 19, 22, 23
    2    8 O      2, 4, 7, 10, 18, 24
    3    7 N      11, 16, 20, 21, 25
    4    1 H      26-42

      * Solvation model:               ALPB
        Solvent                        DMSO
        Solvent mass                       7.8130E+01 g/mol
          :  Hamiltonian                  GFN1-xTB          :
 * total energy  :   -83.5976748 Eh     change       -0.3119808E-08 Eh
 * total energy  :   -83.6135715 Eh     change       -0.1589668E-01 Eh
 * total energy  :   -83.6201032 Eh     change       -0.6531684E-02 Eh
 * total energy  :   -83.6212113 Eh     change       -0.1108155E-02 Eh
 * total energy  :   -83.6217998 Eh     change       -0.5885307E-03 Eh
 * total energy  :   -83.6220497 Eh     change       -0.2498133E-03 Eh
 * total energy  :   -83.6223028 Eh     change       -0.2531502E-03 Eh
 * total energy  :   -83.6225383 Eh     change       -0.2355223E-03 Eh
 * total energy  :   -83.6227854 Eh     change       -0.2470688E-03 Eh
 * total energy  :   -83.6231141 Eh     change       -0.3286921E-03 Eh
 * total energy  :   -83.6472954 Eh     change       -0.2632118E-04 Eh
 * total energy  :   -83.6473139 Eh     change       -0.1849397E-04 Eh
 * total energy  :   -83.6473290 Eh     change       -0.1513611E-04 Eh
 * total energy  :   -83.6473396 Eh     change       -0.1059019E-04 Eh
 * total energy  :   -83.6473481 Eh     change       -0.8458088E-05 Eh
 * total energy  :   -83.6473539 Eh     change       -0.5808580E-05 Eh
 * total energy  :   -83.6473607 Eh     change       -0.6807038E-05 Eh
 * total energy  :   -83.6473596 Eh     change        0.1051602E-05 Eh
 * total energy  :   -83.6473644 Eh     change       -0.4830076E-05 Eh
   *** GEOMETRY OPTIMIZATION CONVERGED AFTER 66 ITERATIONS ***

 final structure:
================
42
 xtb: 6.5.1 (579679a)
C            6.05209677624084        1.73941855542393       -1.52697800533955
O            4.96346985056666        0.88717794436545       -1.23089789553432
C            3.92571403266049        1.47171956835266       -0.53118609407887
O            4.01061712673538        2.66432402600971       -0.21808815185259
C            2.84514073835552        0.59124532738349       -0.22022927393004
C            2.73966044781315       -0.75604017279314       -0.62017226600645
O            3.57535139538538       -1.42571104226561       -1.26080452861430
C            1.41324468833148       -1.45902900535547       -0.17525859742129
C            1.62499482570487       -2.97310256660672       -0.06794091398024
O            0.35299580422593       -1.18543168950514       -1.07844786134960
N            1.08439091149797       -0.92350239325922        1.13813604246289
C            0.91277263206388        0.47700119785603        1.04664787082908
C           -0.45029365992234        0.98619108316960        1.48498562459105
C           -0.53091855394979        2.50445769852836        1.26876436685123
C           -0.72798868821343        0.64853924939597        2.95889522188524
N           -1.33977385808240        0.25214882345824        0.57013427747998
C           -2.63108300636107        0.45975137537861        0.65355822464270
O           -3.28803661881522        1.19884609312620        1.41954087867615
C           -3.36116895858244       -0.35840027396965       -0.38832202728906
N           -2.83198755916687       -1.07931393128027       -1.33129478638619
N           -3.86748520327527       -1.62473941390052       -2.05122421763203
C           -4.95573110318065       -1.19861157995345       -1.50011719104612
C           -6.35006460470240       -1.50027465604555       -1.90426870468995
O           -4.71377996627481       -0.39536536124558       -0.45028948605078
N            1.74963560510873        1.21589583791595        0.43705325268196
H            6.51827876789439        2.12027553346164       -0.61074533109358
H            5.73378697496822        2.59492696076667       -2.13431438705637
H            6.78166293051182        1.15182135733610       -2.08514897925415
H            2.37205796302819       -3.19066503610704        0.69363839215328
H            0.68752584784675       -3.45816655135621        0.19761233319028
H            1.96893891078469       -3.36108501336382       -1.02645114328484
H            0.24394903341406       -1.36745542975755        1.49558793853705
H           -0.36585522564133        2.74345215193980        0.21707072314111
H            0.23968487887702        2.99879036089408        1.86211835391734
H           -1.50569638280716        2.88344510878771        1.57207831139191
H           -1.69640681357498        1.04412165693724        3.26261412052849
H           -0.73241934354429       -0.42987166520383        3.11394530999603
H            0.04410654949518        1.08927997853305        3.59084798199354
H           -0.38555976871780       -0.72607153840080       -0.56119056537600
H           -6.89113029032430       -1.95848493089747       -1.07707176802670
H           -6.86971896969688       -0.58279790649520       -2.17970719448726
H           -6.34497611668156       -2.17947273127392       -2.75308085516898

          :  Hamiltonian                  GFN1-xTB          :
         :: total energy             -83.647364446431 Eh    ::
         :: gradient norm              0.000842080324 Eh/a0 ::
         :: HOMO-LUMO gap              2.347793672232 eV    ::
         :: SCC energy               -84.372488146909 Eh    ::
         :: -> Gsolv                  -0.274436963405 Eh    ::
         :: repulsion energy           0.751582771291 Eh    ::

    * Orbital Energies and Occupations

         #    Occupation            Energy/Eh            Energy/eV
      -------------------------------------------------------------
         1        2.0000           -0.8202216             -22.3194
       ...           ...                  ...                  ...
        56        2.0000           -0.4392510             -11.9526
        57        2.0000           -0.4337816             -11.8038
        58        2.0000           -0.4223602             -11.4930
        59        2.0000           -0.4170730             -11.3491
        60        2.0000           -0.4134169             -11.2496
        61        2.0000           -0.4117276             -11.2037
        62        2.0000           -0.3979288             -10.8282
        63        2.0000           -0.3845569             -10.4643
        64        2.0000           -0.3764554             -10.2439
        65        2.0000           -0.3661847              -9.9644
        66        2.0000           -0.3531519              -9.6098
        67        2.0000           -0.3515214              -9.5654
        68        2.0000           -0.3302222              -8.9858 (HOMO)
        69                         -0.2439423              -6.6380 (LUMO)
        70                         -0.2202944              -5.9945
        71                         -0.2197862              -5.9807
        72                         -0.2017787              -5.4907
        73                         -0.1283608              -3.4929
        74                         -0.1280048              -3.4832
        75                         -0.1144442              -3.1142
        76                         -0.1045552              -2.8451
        77                         -0.0928016              -2.5253
        78                         -0.0875999              -2.3837
        79                         -0.0817130              -2.2235
       ...                                ...                  ...
       134                          0.7568890              20.5960
      -------------------------------------------------------------
                  HL-Gap            0.0862798 Eh            2.3478 eV

Wiberg/Mayer (AO) data.
largest (>0.10) Wiberg bond orders for each atom

     #   Z sym  total        # sym  WBO       # sym  WBO       # sym  WBO
 ---------------------------------------------------------------------------
     1   6 C    3.913 --    28 H    0.987    26 H    0.980    27 H    0.980
                             2 O    0.942
     2   8 O    2.117 --     3 C    0.991     1 C    0.942
     3   6 C    3.853 --     4 O    1.520     5 C    1.211     2 O    0.991
     4   8 O    1.814 --     3 C    1.520
     5   6 C    3.892 --     6 C    1.317     3 C    1.211    25 N    1.045
                             7 O    0.117
     6   6 C    3.923 --     7 O    1.519     5 C    1.317     8 C    0.907
     7   8 O    1.822 --     6 C    1.519     5 C    0.117
     8   6 C    3.892 --     9 C    0.988    10 O    0.950    11 N    0.945
                             6 C    0.907
     9   6 C    3.997 --    29 H    0.989     8 C    0.988    30 H    0.987
                            31 H    0.984
    10   8 O    1.875 --     8 C    0.950    39 H    0.785
    11   7 N    3.126 --    12 C    1.040     8 C    0.945    32 H    0.934
    12   6 C    3.937 --    25 N    1.741    11 N    1.040    13 C    0.970
    13   6 C    3.969 --    14 C    0.990    15 C    0.983    12 C    0.970
                            16 N    0.966
    14   6 C    3.996 --    13 C    0.990    34 H    0.987    33 H    0.986
                            35 H    0.984
    15   6 C    3.994 --    38 H    0.988    37 H    0.983    13 C    0.983
                            36 H    0.982
    16   7 N    3.007 --    17 C    1.481    13 C    0.966    18 O    0.223
                            39 H    0.133
    17   6 C    3.940 --    16 N    1.481    18 O    1.431    19 C    0.955
    18   8 O    1.782 --    17 C    1.431    16 N    0.223
    19   6 C    3.832 --    20 N    1.626    24 O    1.044    17 C    0.955
    20   7 N    2.985 --    19 C    1.626    21 N    1.168
    21   7 N    2.977 --    22 C    1.638    20 N    1.168
    22   6 C    3.886 --    21 N    1.638    24 O    1.076    23 C    1.025
    23   6 C    3.992 --    22 C    1.025    42 H    0.985    40 H    0.970
                            41 H    0.969
    24   8 O    2.302 --    22 C    1.076    19 C    1.044
    25   7 N    3.016 --    12 C    1.741     5 C    1.045
    26   1 H    1.019 --     1 C    0.980
    27   1 H    1.019 --     1 C    0.980
    28   1 H    1.019 --     1 C    0.987
    29   1 H    1.012 --     9 C    0.989
    30   1 H    1.010 --     9 C    0.987
    31   1 H    1.019 --     9 C    0.984
    32   1 H    0.981 --    11 N    0.934
    33   1 H    1.020 --    14 C    0.986
    34   1 H    1.013 --    14 C    0.987
    35   1 H    1.020 --    14 C    0.984
    36   1 H    1.020 --    15 C    0.982
    37   1 H    1.008 --    15 C    0.983
    38   1 H    1.008 --    15 C    0.988
    39   1 H    0.948 --    10 O    0.785    16 N    0.133
    40   1 H    1.001 --    23 C    0.970
    41   1 H    1.001 --    23 C    0.969
    42   1 H    1.003 --    23 C    0.985
 ---------------------------------------------------------------------------

           -------------------------------------------------
          | TOTAL ENERGY              -83.647364446431 Eh   |
          | GRADIENT NORM               0.000842080324 Eh/α |
          | HOMO-LUMO GAP               2.347793672232 eV   |
           -------------------------------------------------

 * finished run on 2023/06/21 at 17:25:44.061
