   * xtb version 6.5.1 (579679a) compiled by 'ehlert@majestix' on 2022-07-11
          program call               : /lustre/hpc/kemi/ree/PhD/git/ReactivityQM/dep/xtb-6.5.1/bin/xtb --gfn 1 /lustre/hpc/kemi/ree/PhD/git/ReactivityQM/calculations/RaltegravirCLI/reac02prodN10/conf04/RaltegravirCLI_reac02prodN10_conf04_gfn1.xyz --opt --vfukui --chrg 1 --uhf 0 --alpb DMSO

   ID    Z sym.   atoms
    1    6 C      1-5, 7, 9, 11-14, 17, 18, 20, 22-24
    2    7 N      6, 10, 15, 16
    3    8 O      8, 19, 21
    4    9 F      25
    5    1 H      26-47

      * Solvation model:               ALPB
        Solvent                        DMSO
        Solvent mass                       7.8130E+01 g/mol
          :  Hamiltonian                  GFN1-xTB          :
 * total energy  :   -79.4731893 Eh     change        0.5684342E-13 Eh
 * total energy  :   -79.4817907 Eh     change       -0.8601357E-02 Eh
 * total energy  :   -79.4840400 Eh     change       -0.2249322E-02 Eh
 * total energy  :   -79.4843967 Eh     change       -0.3566632E-03 Eh
 * total energy  :   -79.4846355 Eh     change       -0.2388046E-03 Eh
 * total energy  :   -79.4847315 Eh     change       -0.9607591E-04 Eh
 * total energy  :   -79.4848288 Eh     change       -0.9729392E-04 Eh
 * total energy  :   -79.4848963 Eh     change       -0.6747851E-04 Eh
 * total energy  :   -79.4849380 Eh     change       -0.4165676E-04 Eh
 * total energy  :   -79.4849716 Eh     change       -0.3360127E-04 Eh
 * total energy  :   -79.4850423 Eh     change       -0.2079678E-04 Eh
 * total energy  :   -79.4850541 Eh     change       -0.1179081E-04 Eh
 * total energy  :   -79.4850681 Eh     change       -0.1402408E-04 Eh
 * total energy  :   -79.4850783 Eh     change       -0.1016444E-04 Eh
 * total energy  :   -79.4850911 Eh     change       -0.1279672E-04 Eh
 * total energy  :   -79.4851112 Eh     change       -0.2006743E-04 Eh
 * total energy  :   -79.4851200 Eh     change       -0.8848028E-05 Eh
 * total energy  :   -79.4851279 Eh     change       -0.7920234E-05 Eh
 * total energy  :   -79.4851326 Eh     change       -0.4666196E-05 Eh
   *** GEOMETRY OPTIMIZATION CONVERGED AFTER 21 ITERATIONS ***

 final structure:
================
47
 xtb: 6.5.1 (579679a)
C           -6.02387514647020        1.55509626129238        0.47397331683112
C           -5.58750891436268        0.07419125416208        0.63045673825682
C           -4.70094913812502       -0.39190942985412       -0.45397248306867
C           -3.54352297603435       -1.07889799325664       -0.21680720924860
C           -2.65951063538435       -1.54737681257515       -1.35664473864906
N           -1.45742081647051       -0.73701049097385       -1.43862919759958
C           -0.36995015857793       -1.06010334219731       -0.69872612840699
O           -0.34855646175663       -2.05394707420869        0.01679580494553
C            0.80591393793055       -0.14523481109222       -0.81640007669263
N            1.86802223384714       -0.51496867912473       -0.04165049212030
C            2.96808179482894        0.16837558831926       -0.01104825575602
C            4.06859947779230       -0.39169081228324        0.88178699452939
C            5.03054636884027       -1.22592890754435        0.02303885314851
C            3.42936587105379       -1.29378978876856        1.95257603518538
N            4.80236725345209        0.68283578541842        1.53314423369297
N            3.14294538180757        1.29483154744503       -0.77521787466260
C            4.37583975093720        2.08770853875391       -0.77623022970674
C            2.12261028130104        1.77344896445931       -1.57465116351443
O            2.22333493547209        2.79422514154222       -2.25103624580494
C            0.90422632603944        0.98266407742785       -1.57798192691021
O           -0.07711080976151        1.45473826445113       -2.37080204945658
C           -3.14885149740271       -1.33776643766880        1.11599739403242
C           -3.90759812317693       -0.91658387851533        2.20529663941167
C           -5.06787053469532       -0.22746453090894        1.97045928256804
F           -5.79313854189446        0.19103927908162        2.97522200125905
H           -6.72904282988810        1.80651496694160        1.26317868530605
H           -6.49793703167151        1.68818683981227       -0.49527251626434
H           -5.15099859574745        2.19956344871177        0.54444352892727
H           -6.52747986892817       -0.49933607175484        0.52848305254258
H           -5.02291607882333       -0.17278989142814       -1.46531718297105
H           -2.36118054524438       -2.58621781412685       -1.18460157940462
H           -3.19379585315545       -1.46925385492641       -2.30416229564156
H           -1.52715539267553        0.14140951232252       -1.92519140515646
H            5.77436589978764       -1.69783497618372        0.66330610883290
H            4.47565140193906       -2.00094095355956       -0.50434631820423
H            5.54457169866446       -0.60399056666029       -0.70756579388371
H            4.20148940275187       -1.65207255398499        2.63079002882189
H            2.68941866049965       -0.73204211939632        2.51985512208677
H            2.93790677407386       -2.14550257836533        1.48416950189041
H            5.64740108440271        0.32451654560761        1.95383135066828
H            4.23763092458772        1.11215776389814        2.25311686257568
H            4.41196421313923        2.70610757276824        0.11841890228748
H            4.36847678739997        2.72284421119625       -1.66126178052976
H            5.24199659033310        1.43443137748905       -0.79778788497415
H            0.23257525676117        2.28079255080534       -2.79291007480741
H           -2.22291911491645       -1.87748853788352        1.29195879029632
H           -3.58601424248424       -1.11553658466445        3.22048267534198

          :  Hamiltonian                  GFN1-xTB          :
         :: total energy             -79.485132597448 Eh    ::
         :: gradient norm              0.000730320496 Eh/a0 ::
         :: HOMO-LUMO gap              0.164557378658 eV    ::
         :: SCC energy               -80.367171771385 Eh    ::
         :: -> Gsolv                  -0.104249372933 Eh    ::
         :: repulsion energy           0.911660816063 Eh    ::

    * Orbital Energies and Occupations

         #    Occupation            Energy/Eh            Energy/eV
      -------------------------------------------------------------
         1        2.0000           -0.9444315             -25.6993
       ...           ...                  ...                  ...
        55        2.0000           -0.5192068             -14.1283
        56        2.0000           -0.5150118             -14.0142
        57        2.0000           -0.5087947             -13.8450
        58        2.0000           -0.5056027             -13.7582
        59        2.0000           -0.5003472             -13.6151
        60        2.0000           -0.4923211             -13.3967
        61        2.0000           -0.4776990             -12.9989
        62        2.0000           -0.4730475             -12.8723
        63        2.0000           -0.4589468             -12.4886
        64        2.0000           -0.4550957             -12.3838
        65        2.0000           -0.4446298             -12.0990
        66        1.9999           -0.4290363             -11.6747
        67        1.9204           -0.4220663             -11.4850 (HOMO)
        68        0.0797           -0.4160189             -11.3205 (LUMO)
        69                         -0.3276056              -8.9146
        70                         -0.3212674              -8.7421
        71                         -0.2818562              -7.6697
        72                         -0.2484930              -6.7618
        73                         -0.2383370              -6.4855
        74                         -0.1581989              -4.3048
        75                         -0.1570125              -4.2725
        76                         -0.1504789              -4.0947
        77                         -0.1494664              -4.0672
        78                         -0.1364308              -3.7125
       ...                                ...                  ...
       144                          0.7064684              19.2240
      -------------------------------------------------------------
                  HL-Gap            0.0060474 Eh            0.1646 eV

Wiberg/Mayer (AO) data.
largest (>0.10) Wiberg bond orders for each atom

     #   Z sym  total        # sym  WBO       # sym  WBO       # sym  WBO
 ---------------------------------------------------------------------------
     1   6 C    3.958 --    28 H    0.984    27 H    0.983    26 H    0.982
                             2 C    0.914
     2   6 C    3.985 --     3 C    1.078    24 C    1.066     1 C    0.914
                            29 H    0.845
     3   6 C    3.924 --     4 C    1.582     2 C    1.078    30 H    0.963
     4   6 C    3.982 --     3 C    1.582    22 C    1.297     5 C    0.989
     5   6 C    3.952 --     4 C    0.989    32 H    0.975    31 H    0.961
                             6 N    0.956
     6   7 N    3.324 --     7 C    1.238     5 C    0.956    33 H    0.879
                             8 O    0.162
     7   6 C    3.900 --     8 O    1.577     6 N    1.238     9 C    1.001
     8   8 O    1.892 --     7 C    1.577     6 N    0.162
     9   6 C    3.964 --    20 C    1.503    10 N    1.195     7 C    1.001
    10   7 N    3.028 --    11 C    1.565     9 C    1.195
    11   6 C    3.920 --    10 N    1.565    16 N    1.173    12 C    0.975
    12   6 C    3.957 --    15 N    0.984    14 C    0.981    13 C    0.981
                            11 C    0.975
    13   6 C    3.992 --    35 H    0.985    34 H    0.982    12 C    0.981
                            36 H    0.979
    14   6 C    3.980 --    37 H    0.986    38 H    0.985    12 C    0.981
                            39 H    0.981
    15   7 N    2.948 --    12 C    0.984    41 H    0.934    40 H    0.931
    16   7 N    3.516 --    11 C    1.173    18 C    1.138    17 C    0.925
                            19 O    0.134
    17   6 C    3.917 --    44 H    0.978    43 H    0.975    42 H    0.975
                            16 N    0.925
    18   6 C    3.917 --    19 O    1.544    16 N    1.138    20 C    1.085
    19   8 O    1.893 --    18 C    1.544    16 N    0.134
    20   6 C    3.914 --     9 C    1.503    18 C    1.085    21 O    1.077
    21   8 O    2.069 --    20 C    1.077    45 H    0.796
    22   6 C    3.886 --    23 C    1.402     4 C    1.297    46 H    0.955
    23   6 C    3.982 --    24 C    1.471    22 C    1.402    47 H    0.956
    24   6 C    3.804 --    23 C    1.471     2 C    1.066    25 F    1.028
    25   9 F    1.190 --    24 C    1.028
    26   1 H    0.996 --     1 C    0.982
    27   1 H    0.993 --     1 C    0.983
    28   1 H    0.994 --     1 C    0.984
    29   1 H    0.970 --     2 C    0.845
    30   1 H    0.989 --     3 C    0.963
    31   1 H    1.004 --     5 C    0.961
    32   1 H    0.997 --     5 C    0.975
    33   1 H    0.937 --     6 N    0.879
    34   1 H    0.999 --    13 C    0.982
    35   1 H    1.003 --    13 C    0.985
    36   1 H    1.003 --    13 C    0.979
    37   1 H    1.002 --    14 C    0.986
    38   1 H    1.007 --    14 C    0.985
    39   1 H    1.012 --    14 C    0.981
    40   1 H    0.946 --    15 N    0.931
    41   1 H    0.950 --    15 N    0.934
    42   1 H    1.015 --    17 C    0.975
    43   1 H    1.007 --    17 C    0.975
    44   1 H    1.018 --    17 C    0.978
    45   1 H    0.841 --    21 O    0.796
    46   1 H    1.007 --    22 C    0.955
    47   1 H    0.985 --    23 C    0.956
 ---------------------------------------------------------------------------

           -------------------------------------------------
          | TOTAL ENERGY              -79.485132597448 Eh   |
          | GRADIENT NORM               0.000730320496 Eh/α |
          | HOMO-LUMO GAP               0.164557378658 eV   |
           -------------------------------------------------

 * finished run on 2023/06/20 at 15:30:13.682
