   * xtb version 6.5.1 (579679a) compiled by 'ehlert@majestix' on 2022-07-11
          program call               : /lustre/hpc/kemi/ree/PhD/git/ReactivityQM/dep/xtb-6.5.1/bin/xtb --gfn 1 /lustre/hpc/kemi/ree/PhD/git/ReactivityQM/calculations/R02methylcation/reac01prodE08/conf12/R02methylcation_reac01prodE08_conf12_gfn1.xyz --opt --vfukui --chrg -2 --uhf 0 --alpb DMSO

   ID    Z sym.   atoms
    1    6 C      1, 3, 5, 7-10, 12, 14, 15, 18, 19, 22, 24
    2    8 O      2, 4, 13, 20, 23, 25
    3    7 N      6, 11, 16, 17, 21
    4    1 H      26-42

      * Solvation model:               ALPB
        Solvent                        DMSO
        Solvent mass                       7.8130E+01 g/mol
          :  Hamiltonian                  GFN1-xTB          :
 * total energy  :   -83.6229992 Eh     change       -0.1535483E-09 Eh
 * total energy  :   -83.6363958 Eh     change       -0.1339654E-01 Eh
 * total energy  :   -83.6412188 Eh     change       -0.4823007E-02 Eh
 * total energy  :   -83.6422861 Eh     change       -0.1067352E-02 Eh
 * total energy  :   -83.6432466 Eh     change       -0.9604899E-03 Eh
 * total energy  :   -83.6437182 Eh     change       -0.4716165E-03 Eh
 * total energy  :   -83.6440263 Eh     change       -0.3080198E-03 Eh
 * total energy  :   -83.6442219 Eh     change       -0.1956474E-03 Eh
 * total energy  :   -83.6443575 Eh     change       -0.1356005E-03 Eh
 * total energy  :   -83.6444873 Eh     change       -0.1298102E-03 Eh
 * total energy  :   -83.6736070 Eh     change       -0.2471049E-04 Eh
 * total energy  :   -83.6736238 Eh     change       -0.1680985E-04 Eh
 * total energy  :   -83.6736405 Eh     change       -0.1664666E-04 Eh
 * total energy  :   -83.6736490 Eh     change       -0.8522098E-05 Eh
 * total energy  :   -83.6736718 Eh     change       -0.2276595E-04 Eh
 * total energy  :   -83.6736820 Eh     change       -0.1022219E-04 Eh
 * total energy  :   -83.6736974 Eh     change       -0.1542725E-04 Eh
 * total energy  :   -83.6737028 Eh     change       -0.5322788E-05 Eh
 * total energy  :   -83.6737060 Eh     change       -0.3249709E-05 Eh
   *** GEOMETRY OPTIMIZATION CONVERGED AFTER 69 ITERATIONS ***

 final structure:
================
42
 xtb: 6.5.1 (579679a)
C           -5.91477191604926       -0.31352066908125        2.31264177141393
O           -4.72139254639406       -0.14295476102413        1.56755894421142
C           -4.73499003762484        0.88419382974534        0.65350408566310
O           -5.73794728206440        1.57606779820503        0.53330084756113
C           -3.48618244775124        1.00223574251781       -0.07078131202863
N           -2.51672015133729        0.06887322873950        0.26584941805668
C           -1.37145811673803        0.08918796655219       -0.31446568783254
C           -0.30751626428633       -0.95330949264927        0.00221087318448
C           -0.70161875852895       -2.24000185521966       -0.75513102455190
C           -0.32148799576320       -1.20931688129611        1.52002075160894
N            0.97638693798141       -0.42869704834543       -0.45462047935668
C            2.03436828572033       -1.17315914055630       -0.28346066587634
O            2.15535895469148       -2.32100939339388        0.20689491528283
C            3.35044804897389       -0.48966529708755       -0.80989274181278
C            4.13818922079559       -1.46394412161354       -1.68640852611039
N            3.08921723014744        0.76185482839893       -1.54090905867106
N            3.69122298123457        1.80793691924606       -0.78071571744861
C            4.28887859001170        1.25965546142929        0.19778072619073
C            5.09563406778842        1.97284811995628        1.22434324853271
O            4.17887076577912       -0.08193971395970        0.29770562090120
N           -1.07126114767298        1.01585976964727       -1.28478648325006
C           -1.91859977862824        1.99453168743371       -1.70976630691128
O           -1.55852513822477        2.79650438447735       -2.57609436561733
C           -3.28029236985308        2.00709522214218       -1.05260482231967
O           -4.10884375740001        2.87410881682963       -1.40165446352472
H           -6.76211185383380       -0.52571501300896        1.65183953451479
H           -6.14343333383394        0.58383538208207        2.89793088618231
H           -5.75679627178084       -1.15659749768915        2.98484224105256
H           -0.02050527171950       -3.05234645004887       -0.50555922675657
H           -0.66391331349943       -2.06406412510790       -1.83035458557443
H           -1.71602136095958       -2.53276917260892       -0.48117464204893
H            0.01448336069046       -0.31732921859760        2.05010204159902
H           -1.33664453076782       -1.44670967693508        1.84136496607552
H            0.33398381237444       -2.04098435248860        1.77442032454041
H            2.07321379505036        0.94531462623475       -1.52220068366601
H            5.10137135914022       -1.03368327278799       -1.95505807473559
H            3.57255139714820       -1.66768520397881       -2.59380969349117
H            4.29495863378855       -2.39499357022762       -1.14278067905905
H            5.11169650271630        3.03809684523815        1.00715307749637
H            4.67189949883258        1.80970030172774        2.21521159777985
H            6.11529161770291        1.58916389364372        1.22746147409417
H           -0.13698841586035        0.97333410343975       -1.67990810530608

          :  Hamiltonian                  GFN1-xTB          :
         :: total energy             -83.673706001044 Eh    ::
         :: gradient norm              0.000992387619 Eh/a0 ::
         :: HOMO-LUMO gap              2.440905793313 eV    ::
         :: SCC energy               -84.413281753343 Eh    ::
         :: -> Gsolv                  -0.261668930065 Eh    ::
         :: repulsion energy           0.765782674659 Eh    ::

    * Orbital Energies and Occupations

         #    Occupation            Energy/Eh            Energy/eV
      -------------------------------------------------------------
         1        2.0000           -0.7898718             -21.4935
       ...           ...                  ...                  ...
        56        2.0000           -0.4469466             -12.1620
        57        2.0000           -0.4419956             -12.0273
        58        2.0000           -0.4372183             -11.8973
        59        2.0000           -0.4252131             -11.5706
        60        2.0000           -0.4231124             -11.5135
        61        2.0000           -0.4187309             -11.3942
        62        2.0000           -0.3956310             -10.7657
        63        2.0000           -0.3915990             -10.6560
        64        2.0000           -0.3674187              -9.9980
        65        2.0000           -0.3591251              -9.7723
        66        2.0000           -0.3503889              -9.5346
        67        2.0000           -0.3478775              -9.4662
        68        2.0000           -0.3452818              -9.3956 (HOMO)
        69                         -0.2555801              -6.9547 (LUMO)
        70                         -0.2145937              -5.8394
        71                         -0.2138604              -5.8194
        72                         -0.1818506              -4.9484
        73                         -0.1666189              -4.5339
        74                         -0.1254577              -3.4139
        75                         -0.1174306              -3.1954
        76                         -0.0969504              -2.6382
        77                         -0.0926856              -2.5221
        78                         -0.0867404              -2.3603
        79                         -0.0840713              -2.2877
       ...                                ...                  ...
       134                          0.7711756              20.9848
      -------------------------------------------------------------
                  HL-Gap            0.0897016 Eh            2.4409 eV

Wiberg/Mayer (AO) data.
largest (>0.10) Wiberg bond orders for each atom

     #   Z sym  total        # sym  WBO       # sym  WBO       # sym  WBO
 ---------------------------------------------------------------------------
     1   6 C    3.905 --    28 H    0.987    27 H    0.980    26 H    0.980
                             2 O    0.933
     2   8 O    2.130 --     3 C    1.012     1 C    0.933     4 O    0.105
     3   6 C    3.848 --     4 O    1.578     5 C    1.136     2 O    1.012
     4   8 O    1.856 --     3 C    1.578     2 O    0.105
     5   6 C    3.921 --    24 C    1.275     6 N    1.144     3 C    1.136
                            25 O    0.129
     6   7 N    3.017 --     7 C    1.625     5 C    1.144
     7   6 C    3.922 --     6 N    1.625    21 N    1.107     8 C    0.973
     8   6 C    3.973 --    11 N    0.983    10 C    0.983     7 C    0.973
                             9 C    0.970
     9   6 C    3.994 --    31 H    0.988    30 H    0.987    29 H    0.981
                             8 C    0.970
    10   6 C    3.996 --    32 H    0.987    33 H    0.986    34 H    0.983
                             8 C    0.983
    11   7 N    2.941 --    12 C    1.528     8 C    0.983    13 O    0.212
    12   6 C    3.935 --    11 N    1.528    13 O    1.435    14 C    0.887
    13   8 O    1.793 --    12 C    1.435    11 N    0.212
    14   6 C    3.839 --    15 C    0.991    16 N    0.961    12 C    0.887
                            20 O    0.880
    15   6 C    3.996 --    14 C    0.991    36 H    0.987    37 H    0.986
                            38 H    0.983
    16   7 N    3.034 --    17 N    1.005    14 C    0.961    35 H    0.910
    17   7 N    2.969 --    18 C    1.748    16 N    1.005    20 O    0.124
    18   6 C    3.904 --    17 N    1.748    20 O    1.050    19 C    1.017
    19   6 C    3.994 --    18 C    1.017    39 H    0.986    41 H    0.972
                            40 H    0.971
    20   8 O    2.143 --    18 C    1.050    14 C    0.880    17 N    0.124
    21   7 N    3.450 --    22 C    1.186     7 C    1.107    42 H    0.883
                            23 O    0.136
    22   6 C    3.886 --    23 O    1.550    21 N    1.186    24 C    0.974
    23   8 O    1.829 --    22 C    1.550    21 N    0.136
    24   6 C    3.944 --    25 O    1.503     5 C    1.275    22 C    0.974
    25   8 O    1.807 --    24 C    1.503     5 C    0.129
    26   1 H    1.016 --     1 C    0.980
    27   1 H    1.016 --     1 C    0.980
    28   1 H    1.017 --     1 C    0.987
    29   1 H    1.021 --     9 C    0.981
    30   1 H    1.010 --     9 C    0.987
    31   1 H    1.011 --     9 C    0.988
    32   1 H    1.011 --    10 C    0.987
    33   1 H    1.021 --    10 C    0.986
    34   1 H    1.021 --    10 C    0.983
    35   1 H    1.014 --    16 N    0.910
    36   1 H    1.011 --    15 C    0.987
    37   1 H    1.010 --    15 C    0.986
    38   1 H    1.018 --    15 C    0.983
    39   1 H    1.004 --    19 C    0.986
    40   1 H    1.003 --    19 C    0.971
    41   1 H    1.003 --    19 C    0.972
    42   1 H    0.982 --    21 N    0.883
 ---------------------------------------------------------------------------

           -------------------------------------------------
          | TOTAL ENERGY              -83.673706001044 Eh   |
          | GRADIENT NORM               0.000992387619 Eh/α |
          | HOMO-LUMO GAP               2.440905793313 eV   |
           -------------------------------------------------

 * finished run on 2023/06/21 at 17:19:02.146
