   * xtb version 6.5.1 (579679a) compiled by 'ehlert@majestix' on 2022-07-11
          program call               : /lustre/hpc/kemi/ree/PhD/git/ReactivityQM/dep/xtb-6.5.1/bin/xtb --gfn 1 /lustre/hpc/kemi/ree/PhD/git/ReactivityQM/calculations/R02methylcation/reac01prodN17/conf17/R02methylcation_reac01prodN17_conf17_gfn1.xyz --opt --vfukui --chrg 0 --uhf 0 --alpb DMSO

   ID    Z sym.   atoms
    1    6 C      1, 3, 5, 7-10, 12, 13, 15, 18, 19, 22, 24
    2    8 O      2, 4, 14, 20, 23, 25
    3    7 N      6, 11, 16, 17, 21
    4    1 H      26-42

      * Solvation model:               ALPB
        Solvent                        DMSO
        Solvent mass                       7.8130E+01 g/mol
          :  Hamiltonian                  GFN1-xTB          :
 * total energy  :   -82.9358948 Eh     change       -0.4283436E-09 Eh
 * total energy  :   -82.9496814 Eh     change       -0.1378653E-01 Eh
 * total energy  :   -82.9544596 Eh     change       -0.4778229E-02 Eh
 * total energy  :   -82.9555199 Eh     change       -0.1060354E-02 Eh
 * total energy  :   -82.9563707 Eh     change       -0.8507571E-03 Eh
 * total energy  :   -82.9570060 Eh     change       -0.6353447E-03 Eh
 * total energy  :   -82.9575963 Eh     change       -0.5902998E-03 Eh
 * total energy  :   -82.9581263 Eh     change       -0.5299283E-03 Eh
 * total energy  :   -82.9585516 Eh     change       -0.4253649E-03 Eh
 * total energy  :   -82.9589061 Eh     change       -0.3544183E-03 Eh
 * total energy  :   -82.9625392 Eh     change       -0.2367645E-04 Eh
 * total energy  :   -82.9625641 Eh     change       -0.2490407E-04 Eh
 * total energy  :   -82.9626090 Eh     change       -0.4487290E-04 Eh
 * total energy  :   -82.9626291 Eh     change       -0.2011884E-04 Eh
 * total energy  :   -82.9626515 Eh     change       -0.2243345E-04 Eh
 * total energy  :   -82.9626701 Eh     change       -0.1854638E-04 Eh
 * total energy  :   -82.9626815 Eh     change       -0.1141406E-04 Eh
 * total energy  :   -82.9626903 Eh     change       -0.8806512E-05 Eh
 * total energy  :   -82.9626950 Eh     change       -0.4699225E-05 Eh
   *** GEOMETRY OPTIMIZATION CONVERGED AFTER 38 ITERATIONS ***

 final structure:
================
42
 xtb: 6.5.1 (579679a)
C           -4.49725195154865        3.54353114209958       -0.90369206871413
O           -3.54761839397392        2.82981692038923       -0.11798073195043
C           -2.94294060263298        1.78983433458564       -0.72307825714020
O           -3.19580695919365        1.49074846292302       -1.87925625894255
C           -1.98243709966499        1.06994297002104        0.12091381158236
N           -1.40636558354484        0.00900264523083       -0.52130839619679
C           -0.54843193332927       -0.74289909867868        0.07368512121335
C            0.07067440659702       -1.91625172158296       -0.66285586510408
C            0.15172280532322       -3.17745511147117        0.19033836936335
C           -0.69198276179367       -2.16741243746008       -1.95702227919242
N            1.50473884136909       -1.46362375925313       -0.95713005145263
C            2.22120784695268       -2.19681817445110       -2.02442193009433
C            1.43154880784176        0.02005955998174       -1.30300183655596
O            1.08708982136769        0.34682535039565       -2.40138865618135
C            1.88127220356515        0.84892767399030       -0.21814472512374
N            1.81097592242176        2.15053076196455       -0.11237564389298
N            2.26566036573607        2.46938238016164        1.11217686929775
C            2.58914226473437        1.35503853858346        1.70961888221170
C            3.09189047689743        1.16827916894087        3.08145525754887
O            2.36747424142804        0.29428870098980        0.91951309345394
N           -0.18390749077698       -0.52580464655777        1.38763563364214
C           -0.59288671775164        0.56776295827581        2.11526541402002
O           -0.09358553891122        0.78818847658126        3.21132304173301
C           -1.64261583578339        1.43830890763452        1.45674147907336
O           -2.09938745922174        2.39906746460391        2.08741059934078
H           -4.02074757333353        3.96400732127543       -1.79370993408236
H           -4.88918410335212        4.34360395056724       -0.27815647789081
H           -5.30989021408171        2.88163580000535       -1.21595536452525
H            0.79043255679608       -3.02670088211783        1.05802573661447
H           -0.84850250216065       -3.44048094366193        0.53195162386115
H            0.55087599532837       -4.00518870242585       -0.39206570939709
H           -0.65617533917302       -1.29295642379870       -2.60491495584413
H           -1.73239774678721       -2.36313294112100       -1.69936612529064
H           -0.29374517845039       -3.03143233180340       -2.48230589833978
H            2.04050021208571       -1.56457022485189       -0.09479869647934
H            1.77064144728280       -1.96090458107476       -2.98478605543709
H            2.15903896509288       -3.25912643550763       -1.81325508122363
H            3.25723011232935       -1.86874535809452       -2.00375851486717
H            2.27445973292708        0.79497736067558        3.70375810409044
H            3.88665957515548        0.42568399406545        3.08932851969308
H            3.44962675585296        2.11311658864950        3.48325760007837
H            0.52300162834322       -1.09905765871284        1.81233435709088

          :  Hamiltonian                  GFN1-xTB          :
         :: total energy             -82.962695000783 Eh    ::
         :: gradient norm              0.000574626180 Eh/a0 ::
         :: HOMO-LUMO gap              0.669371023496 eV    ::
         :: SCC energy               -83.734633804216 Eh    ::
         :: -> Gsolv                  -0.103279180243 Eh    ::
         :: repulsion energy           0.803137183751 Eh    ::

    * Orbital Energies and Occupations

         #    Occupation            Energy/Eh            Energy/eV
      -------------------------------------------------------------
         1        2.0000           -0.8914062             -24.2564
       ...           ...                  ...                  ...
        55        2.0000           -0.5149566             -14.0127
        56        2.0000           -0.5055355             -13.7563
        57        2.0000           -0.5011266             -13.6363
        58        2.0000           -0.4999601             -13.6046
        59        2.0000           -0.4821856             -13.1209
        60        2.0000           -0.4790709             -13.0362
        61        2.0000           -0.4782965             -13.0151
        62        2.0000           -0.4747568             -12.9188
        63        2.0000           -0.4657916             -12.6748
        64        2.0000           -0.4555244             -12.3954
        65        2.0000           -0.4442953             -12.0899
        66        2.0000           -0.4026762             -10.9574
        67        2.0000           -0.3916547             -10.6575 (HOMO)
        68        0.0000           -0.3670557              -9.9881 (LUMO)
        69                         -0.2916962              -7.9375
        70                         -0.2774651              -7.5502
        71                         -0.2708457              -7.3701
        72                         -0.2433789              -6.6227
        73                         -0.2180894              -5.9345
        74                         -0.1632504              -4.4423
        75                         -0.1546905              -4.2093
        76                         -0.1414798              -3.8499
        77                         -0.1412768              -3.8443
        78                         -0.1346972              -3.6653
       ...                                ...                  ...
       134                          0.7456854              20.2911
      -------------------------------------------------------------
                  HL-Gap            0.0245989 Eh            0.6694 eV

Wiberg/Mayer (AO) data.
largest (>0.10) Wiberg bond orders for each atom

     #   Z sym  total        # sym  WBO       # sym  WBO       # sym  WBO
 ---------------------------------------------------------------------------
     1   6 C    3.889 --    27 H    0.987    26 H    0.980    28 H    0.980
                             2 O    0.915
     2   8 O    2.176 --     3 C    1.075     1 C    0.915     4 O    0.118
     3   6 C    3.851 --     4 O    1.601     2 O    1.075     5 C    1.074
     4   8 O    1.869 --     3 C    1.601     2 O    0.118
     5   6 C    3.924 --    24 C    1.233     6 N    1.216     3 C    1.074
                            25 O    0.111
     6   7 N    3.040 --     7 C    1.570     5 C    1.216
     7   6 C    3.936 --     6 N    1.570    21 N    1.096     8 C    0.970
     8   6 C    3.885 --    10 C    1.007     9 C    1.000     7 C    0.970
                            11 N    0.833
     9   6 C    3.985 --     8 C    1.000    31 H    0.979    29 H    0.977
                            30 H    0.976
    10   6 C    3.984 --     8 C    1.007    34 H    0.983    32 H    0.976
                            33 H    0.976
    11   7 N    3.593 --    12 C    0.908    35 H    0.885    13 C    0.835
                             8 C    0.833
    12   6 C    3.890 --    36 H    0.980    38 H    0.980    37 H    0.980
                            11 N    0.908
    13   6 C    3.879 --    14 O    1.737    15 C    1.095    11 N    0.835
    14   8 O    2.031 --    13 C    1.737
    15   6 C    3.882 --    16 N    1.528    13 C    1.095    20 O    1.028
    16   7 N    3.012 --    15 C    1.528    17 N    1.258
    17   7 N    2.989 --    18 C    1.546    16 N    1.258
    18   6 C    3.848 --    17 N    1.546    20 O    1.078    19 C    1.041
    19   6 C    3.978 --    18 C    1.041    41 H    0.979    40 H    0.966
                            39 H    0.939
    20   8 O    2.321 --    18 C    1.078    15 C    1.028
    21   7 N    3.418 --    22 C    1.148     7 C    1.096    42 H    0.890
                            23 O    0.133
    22   6 C    3.875 --    23 O    1.597    21 N    1.148    24 C    0.959
    23   8 O    1.897 --    22 C    1.597    21 N    0.133
    24   6 C    3.938 --    25 O    1.561     5 C    1.233    22 C    0.959
    25   8 O    1.847 --    24 C    1.561     5 C    0.111
    26   1 H    1.011 --     1 C    0.980
    27   1 H    1.014 --     1 C    0.987
    28   1 H    1.011 --     1 C    0.980
    29   1 H    0.994 --     9 C    0.977
    30   1 H    0.995 --     9 C    0.976
    31   1 H    0.996 --     9 C    0.979
    32   1 H    1.012 --    10 C    0.976
    33   1 H    1.004 --    10 C    0.976
    34   1 H    0.998 --    10 C    0.983
    35   1 H    0.936 --    11 N    0.885
    36   1 H    0.998 --    12 C    0.980
    37   1 H    0.993 --    12 C    0.980
    38   1 H    0.990 --    12 C    0.980
    39   1 H    1.009 --    19 C    0.939
    40   1 H    0.994 --    19 C    0.966
    41   1 H    0.996 --    19 C    0.979
    42   1 H    0.943 --    21 N    0.890
 ---------------------------------------------------------------------------

           -------------------------------------------------
          | TOTAL ENERGY              -82.962695000783 Eh   |
          | GRADIENT NORM               0.000574626180 Eh/α |
          | HOMO-LUMO GAP               0.669371023496 eV   |
           -------------------------------------------------

 * finished run on 2023/06/21 at 17:59:35.491
