   * xtb version 6.5.1 (579679a) compiled by 'ehlert@majestix' on 2022-07-11
          program call               : /lustre/hpc/kemi/ree/PhD/git/ReactivityQM/dep/xtb-6.5.1/bin/xtb --gfn 1 /lustre/hpc/kemi/ree/PhD/git/ReactivityQM/calculations/R02/reac01prodN15/conf16/R02_reac01prodN15_conf16_gfn1.xyz --opt --vfukui --chrg 1 --uhf 0 --alpb DMSO

   ID    Z sym.   atoms
    1    6 C      1, 3, 5, 7-10, 12, 14, 17, 18, 21, 23, 24
    2    8 O      2, 4, 13, 19, 22, 25
    3    7 N      6, 11, 15, 16, 20
    4    1 H      26-43

      * Solvation model:               ALPB
        Solvent                        DMSO
        Solvent mass                       7.8130E+01 g/mol
          :  Hamiltonian                  GFN1-xTB          :
 * total energy  :   -83.0889802 Eh     change       -0.6806999E-11 Eh
 * total energy  :   -83.1052300 Eh     change       -0.1624979E-01 Eh
 * total energy  :   -83.1136418 Eh     change       -0.8411787E-02 Eh
 * total energy  :   -83.1153570 Eh     change       -0.1715222E-02 Eh
 * total energy  :   -83.1163048 Eh     change       -0.9478058E-03 Eh
 * total energy  :   -83.1169445 Eh     change       -0.6397233E-03 Eh
 * total energy  :   -83.1176254 Eh     change       -0.6808917E-03 Eh
 * total energy  :   -83.1183756 Eh     change       -0.7501888E-03 Eh
 * total energy  :   -83.1190095 Eh     change       -0.6338600E-03 Eh
 * total energy  :   -83.1194434 Eh     change       -0.4338853E-03 Eh
 * total energy  :   -83.1219798 Eh     change       -0.3016656E-04 Eh
 * total energy  :   -83.1220012 Eh     change       -0.2144529E-04 Eh
 * total energy  :   -83.1220175 Eh     change       -0.1624313E-04 Eh
 * total energy  :   -83.1220243 Eh     change       -0.6854101E-05 Eh
 * total energy  :   -83.1220307 Eh     change       -0.6341106E-05 Eh
 * total energy  :   -83.1220363 Eh     change       -0.5625355E-05 Eh
 * total energy  :   -83.1220414 Eh     change       -0.5127790E-05 Eh
 * total energy  :   -83.1220460 Eh     change       -0.4606675E-05 Eh
 * total energy  :   -83.1220498 Eh     change       -0.3832497E-05 Eh
   *** GEOMETRY OPTIMIZATION CONVERGED AFTER 44 ITERATIONS ***

 final structure:
================
43
 xtb: 6.5.1 (579679a)
C           -6.08255393885907        0.71154357979052        1.84893562143996
O           -4.83949315990528        0.79006107872949        1.12553243878202
C           -4.19659439390888       -0.32183561752077        0.86598966533800
O           -4.52959871572996       -1.43565156368620        1.15767779106370
C           -2.89523938524215       -0.03521579296463        0.11885088502053
N           -1.82937159467907       -0.61589762957489        0.55768353709058
C           -0.65653149329814       -0.49437805349498       -0.11077761526951
C            0.53511412216731       -1.14300595785283        0.49611757226208
C            0.35268260768716       -2.64286478629381        0.15191982000486
C            0.56981079388313       -0.93404228401374        2.01723078236760
N            1.73797337398917       -0.61025949365553       -0.12391814801562
C            2.97529911059481       -1.14102545597364        0.14623568254653
O            3.17110024783563       -2.19908429941483        0.70176701560438
C            4.03967744982215       -0.25065998967486       -0.35730990915668
N            3.86995225370687        0.92614638860729       -0.88587458827367
N            5.10598260165066        1.40496987521509       -1.17968107396392
C            5.95704268799373        0.49186442078855       -0.80892073976385
C            7.43105862202215        0.52865961391482       -0.92350038319491
O            5.34163177818146       -0.57451265939204       -0.28126218082351
N           -0.60940934959344        0.03692835676028       -1.31910714404003
C           -1.73389041736729        0.61603301302550       -1.97663886225282
O           -1.68423537996494        0.89875583341972       -3.13142959371223
C           -2.87546015134216        0.92388518132244       -1.02450622932303
C           -2.52008167484925        2.31901369458354       -0.41330320110783
O           -4.10385984763590        0.95051314902724       -1.66237062661113
H           -6.61289508215152       -0.20365396153422        1.58096941085479
H           -5.87039741795340        0.72444318509097        2.91896344481113
H           -6.65622825169527        1.59155574895079        1.56632983022712
H           -0.62926548968929       -2.97654413289543        0.48212338598376
H            1.11988055864279       -3.21639937675978        0.66778095396192
H            0.44780993408411       -2.78699507845422       -0.92183734922790
H            1.40036528466961       -1.50146892243672        2.43336039042934
H            0.70656030463605        0.12201391499928        2.23967555394806
H           -0.36367873293605       -1.27773504941903        2.45833356262824
H            1.72924694607986        0.36720591943999       -0.37520253808564
H            7.75067922024843        1.52101910546810       -1.23267894609501
H            7.76230291555851       -0.20399704069312       -1.66064506584980
H            7.88521600483732        0.27341762919911        0.03353889885531
H            0.23174034471136       -0.04400378605931       -1.87954929162282
H           -3.33464857341335        2.61248685843952        0.24500895495896
H           -2.42874504563894        3.03370300528569       -1.22804744449404
H           -1.58827477156605        2.26786971619348        0.14262791535571
H           -4.08067929559819        1.49714366350813       -2.46008918264709

          :  Hamiltonian                  GFN1-xTB          :
         :: total energy             -83.122049845441 Eh    ::
         :: gradient norm              0.000575763982 Eh/a0 ::
         :: HOMO-LUMO gap              0.914859797634 eV    ::
         :: SCC energy               -83.916077026202 Eh    ::
         :: -> Gsolv                  -0.114698865125 Eh    ::
         :: repulsion energy           0.820633965213 Eh    ::

    * Orbital Energies and Occupations

         #    Occupation            Energy/Eh            Energy/eV
      -------------------------------------------------------------
         1        2.0000           -0.9036768             -24.5903
       ...           ...                  ...                  ...
        55        2.0000           -0.5385873             -14.6557
        56        2.0000           -0.5353433             -14.5674
        57        2.0000           -0.5326481             -14.4941
        58        2.0000           -0.5292672             -14.4021
        59        2.0000           -0.5241265             -14.2622
        60        2.0000           -0.5169991             -14.0683
        61        2.0000           -0.5070132             -13.7965
        62        2.0000           -0.4989157             -13.5762
        63        2.0000           -0.4951954             -13.4750
        64        2.0000           -0.4859408             -13.2231
        65        2.0000           -0.4809717             -13.0879
        66        2.0000           -0.4644417             -12.6381
        67        2.0000           -0.4632795             -12.6065 (HOMO)
        68                         -0.4296590             -11.6916 (LUMO)
        69                         -0.3530974              -9.6083
        70                         -0.3299027              -8.9771
        71                         -0.3114979              -8.4763
        72                         -0.2819990              -7.6736
        73                         -0.2661349              -7.2419
        74                         -0.2165086              -5.8915
        75                         -0.1608386              -4.3766
        76                         -0.1573904              -4.2828
        77                         -0.1540657              -4.1923
        78                         -0.1476093              -4.0167
       ...                                ...                  ...
       136                          0.7186586              19.5557
      -------------------------------------------------------------
                  HL-Gap            0.0336205 Eh            0.9149 eV

Wiberg/Mayer (AO) data.
largest (>0.10) Wiberg bond orders for each atom

     #   Z sym  total        # sym  WBO       # sym  WBO       # sym  WBO
 ---------------------------------------------------------------------------
     1   6 C    3.837 --    28 H    0.981    26 H    0.979    27 H    0.976
                             2 O    0.864
     2   8 O    2.248 --     3 C    1.172     1 C    0.864     4 O    0.158
     3   6 C    3.865 --     4 O    1.704     2 O    1.172     5 C    0.921
     4   8 O    1.979 --     3 C    1.704     2 O    0.158
     5   6 C    3.896 --     6 N    1.639    23 C    1.007     3 C    0.921
     6   7 N    3.065 --     5 C    1.639     7 C    1.214
     7   6 C    3.876 --    20 N    1.401     6 N    1.214     8 C    1.031
     8   6 C    3.934 --     7 C    1.031    10 C    0.959    11 N    0.951
                             9 C    0.911
     9   6 C    3.967 --    31 H    0.984    29 H    0.983    30 H    0.960
                             8 C    0.911
    10   6 C    3.976 --    33 H    0.983    34 H    0.981    32 H    0.977
                             8 C    0.959
    11   7 N    3.281 --    12 C    1.172     8 C    0.951    35 H    0.889
                            13 O    0.154
    12   6 C    3.905 --    13 O    1.639    11 N    1.172    14 C    1.004
    13   8 O    1.947 --    12 C    1.639    11 N    0.154
    14   6 C    3.881 --    15 N    1.594    19 O    1.066    12 C    1.004
    15   7 N    3.024 --    14 C    1.594    16 N    1.216
    16   7 N    2.982 --    17 C    1.588    15 N    1.216
    17   6 C    3.866 --    16 N    1.588    19 O    1.088    18 C    1.033
    18   6 C    3.984 --    17 C    1.033    36 H    0.981    38 H    0.965
                            37 H    0.958
    19   8 O    2.338 --    17 C    1.088    14 C    1.066
    20   7 N    3.518 --     7 C    1.401    21 C    0.989    39 H    0.851
    21   6 C    3.855 --    22 O    1.799    20 N    0.989    23 C    0.938
    22   8 O    2.051 --    21 C    1.799
    23   6 C    3.940 --     5 C    1.007    25 O    1.002    21 C    0.938
                            24 C    0.865
    24   6 C    3.960 --    42 H    0.985    40 H    0.973    41 H    0.972
                            23 C    0.865
    25   8 O    1.919 --    23 C    1.002    43 H    0.818
    26   1 H    1.002 --     1 C    0.979
    27   1 H    1.001 --     1 C    0.976
    28   1 H    1.004 --     1 C    0.981
    29   1 H    0.998 --     9 C    0.983
    30   1 H    1.005 --     9 C    0.960
    31   1 H    0.996 --     9 C    0.984
    32   1 H    0.999 --    10 C    0.977
    33   1 H    0.996 --    10 C    0.983
    34   1 H    1.003 --    10 C    0.981
    35   1 H    0.945 --    11 N    0.889
    36   1 H    0.997 --    18 C    0.981
    37   1 H    0.995 --    18 C    0.958
    38   1 H    0.995 --    18 C    0.965
    39   1 H    0.899 --    20 N    0.851
    40   1 H    1.001 --    24 C    0.973
    41   1 H    0.991 --    24 C    0.972
    42   1 H    0.993 --    24 C    0.985
    43   1 H    0.834 --    25 O    0.818
 ---------------------------------------------------------------------------

           -------------------------------------------------
          | TOTAL ENERGY              -83.122049845441 Eh   |
          | GRADIENT NORM               0.000575763982 Eh/α |
          | HOMO-LUMO GAP               0.914859797634 eV   |
           -------------------------------------------------

 * finished run on 2023/06/20 at 15:40:28.299
