   * xtb version 6.5.1 (579679a) compiled by 'ehlert@majestix' on 2022-07-11
          program call               : /lustre/hpc/kemi/ree/PhD/git/ReactivityQM/dep/xtb-6.5.1/bin/xtb --gfn 1 /lustre/hpc/kemi/ree/PhD/git/ReactivityQM/calculations/R01/reac02prodE01/conf15/R01_reac02prodE01_conf15_gfn1.xyz --opt --vfukui --chrg -1 --uhf 0 --alpb DMSO

   ID    Z sym.   atoms
    1    6 C      1, 3, 4, 6, 8-11, 14, 16
    2    8 O      2, 5, 15, 17
    3    7 N      7, 12, 13
    4    1 H      18-33

      * Solvation model:               ALPB
        Solvent                        DMSO
        Solvent mass                       7.8130E+01 g/mol
          :  Hamiltonian                  GFN1-xTB          :
 * total energy  :   -58.5362611 Eh     change       -0.6203038E-11 Eh
 * total energy  :   -58.5454453 Eh     change       -0.9184200E-02 Eh
 * total energy  :   -58.5485682 Eh     change       -0.3122982E-02 Eh
 * total energy  :   -58.5493987 Eh     change       -0.8304581E-03 Eh
 * total energy  :   -58.5498110 Eh     change       -0.4123418E-03 Eh
 * total energy  :   -58.5501212 Eh     change       -0.3102026E-03 Eh
 * total energy  :   -58.5503279 Eh     change       -0.2066351E-03 Eh
 * total energy  :   -58.5504672 Eh     change       -0.1393378E-03 Eh
 * total energy  :   -58.5505532 Eh     change       -0.8594031E-04 Eh
 * total energy  :   -58.5506215 Eh     change       -0.6832975E-04 Eh
 * total energy  :   -58.5507290 Eh     change       -0.1771467E-04 Eh
 * total energy  :   -58.5507428 Eh     change       -0.1378387E-04 Eh
 * total energy  :   -58.5507615 Eh     change       -0.1876742E-04 Eh
 * total energy  :   -58.5507834 Eh     change       -0.2182811E-04 Eh
 * total energy  :   -58.5507935 Eh     change       -0.1010380E-04 Eh
 * total energy  :   -58.5507994 Eh     change       -0.5943223E-05 Eh
 * total energy  :   -58.5508018 Eh     change       -0.2394643E-05 Eh
 * total energy  :   -58.5508067 Eh     change       -0.4888210E-05 Eh
 * total energy  :   -58.5508113 Eh     change       -0.4554388E-05 Eh
   *** GEOMETRY OPTIMIZATION CONVERGED AFTER 22 ITERATIONS ***

 final structure:
================
33
 xtb: 6.5.1 (579679a)
C           -4.12771473866324        1.39292794618349       -0.50378180574405
O           -3.19869503090360        0.34268814872525       -0.50202827148067
C           -2.22613180738222        0.35679993742195        0.68461931284361
C           -2.85573845712489       -0.63701683017020        1.72936483774627
O           -1.97965502218373        1.52683792690362        1.14932110005862
C           -0.97059214674814       -0.38586069025583        0.05181002695092
N            0.21718514494296        0.28631006656120        0.19719892900001
C            1.31044936455987       -0.21620285603043       -0.26655731893750
C            2.63679853116380        0.49332283303264       -0.06797543979489
C            3.12258580156545        0.19654267813612        1.35731977516813
C            2.45445828054525        2.00340809887651       -0.26947496795527
N            3.60390052302029       -0.06020302728935       -1.01460028210324
N            1.35063322483559       -1.42083889135750       -0.90028059322953
C            0.23108871618426       -2.19178093210278       -1.09874856295487
O            0.28159046216815       -3.28282438411351       -1.67730410778774
C           -0.97857878289367       -1.60397743684908       -0.57061272575448
O           -2.10311607898894       -2.36094225473038       -0.74686530908327
H           -5.02115550853504        1.16157016314756        0.10151956440844
H           -4.45290690688344        1.56780358230302       -1.53631290228330
H           -3.68989087719373        2.32889030242678       -0.11937902495754
H           -3.18138037705776       -1.56441666272841        1.26480992877084
H           -3.71038171440403       -0.14381033586120        2.18987245651954
H           -2.11490301257579       -0.85021107927662        2.49870276153045
H            3.28185219844776       -0.87403815377513        1.48178060667553
H            2.38087195271558        0.53244140578444        2.08223567516626
H            4.06114865927140        0.71477745253023        1.54652559510231
H            1.68937497898923        2.37604415476359        0.41308390561967
H            3.39236027895964        2.51976410487078       -0.07572088886999
H            2.14498490330523        2.21052656502803       -1.29329586914147
H            3.50741711829137        0.39003403290510       -1.91463940392844
H            4.54186531399266        0.11775502144867       -0.68929320401068
H            2.24339858674164       -1.74659809636929       -1.24440455967194
H           -1.84112457816181       -3.17972279013961       -1.19798423787134

          :  Hamiltonian                  GFN1-xTB          :
         :: total energy             -58.550811260404 Eh    ::
         :: gradient norm              0.000487150001 Eh/a0 ::
         :: HOMO-LUMO gap              2.004697704599 eV    ::
         :: SCC energy               -59.094071365455 Eh    ::
         :: -> Gsolv                  -0.127421441255 Eh    ::
         :: repulsion energy           0.561849847921 Eh    ::

    * Orbital Energies and Occupations

         #    Occupation            Energy/Eh            Energy/eV
      -------------------------------------------------------------
         1        2.0000           -0.8046708             -21.8962
       ...           ...                  ...                  ...
        36        2.0000           -0.4779818             -13.0065
        37        2.0000           -0.4739446             -12.8967
        38        2.0000           -0.4695248             -12.7764
        39        2.0000           -0.4567793             -12.4296
        40        2.0000           -0.4433326             -12.0637
        41        2.0000           -0.4365512             -11.8792
        42        2.0000           -0.4274754             -11.6322
        43        2.0000           -0.4155686             -11.3082
        44        2.0000           -0.4038134             -10.9883
        45        2.0000           -0.3994245             -10.8689
        46        2.0000           -0.3884717             -10.5709
        47        2.0000           -0.3608720              -9.8198
        48        2.0000           -0.3392858              -9.2324 (HOMO)
        49                         -0.2656145              -7.2277 (LUMO)
        50                         -0.2416858              -6.5766
        51                         -0.1360492              -3.7021
        52                         -0.1184183              -3.2223
        53                         -0.1140767              -3.1042
        54                         -0.0986307              -2.6839
        55                         -0.0952961              -2.5931
        56                         -0.0835921              -2.2747
        57                         -0.0793214              -2.1584
        58                         -0.0727088              -1.9785
        59                         -0.0665657              -1.8113
       ...                                ...                  ...
       100                          0.7075273              19.2528
      -------------------------------------------------------------
                  HL-Gap            0.0736713 Eh            2.0047 eV

Wiberg/Mayer (AO) data.
largest (>0.10) Wiberg bond orders for each atom

     #   Z sym  total        # sym  WBO       # sym  WBO       # sym  WBO
 ---------------------------------------------------------------------------
     1   6 C    3.937 --    19 H    0.984     2 O    0.983    18 H    0.980
                            20 H    0.971
     2   8 O    1.930 --     1 C    0.983     3 C    0.762
     3   6 C    3.898 --     5 O    1.277     4 C    0.925     6 C    0.880
                             2 O    0.762
     4   6 C    3.989 --    21 H    0.988    23 H    0.988    22 H    0.986
                             3 C    0.925
     5   8 O    1.553 --     3 C    1.277
     6   6 C    3.922 --    16 C    1.529     7 N    1.202     3 C    0.880
     7   7 N    3.025 --     8 C    1.579     6 C    1.202
     8   6 C    3.932 --     7 N    1.579    13 N    1.174     9 C    0.976
     9   6 C    3.967 --    11 C    0.987    12 N    0.984    10 C    0.983
                             8 C    0.976
    10   6 C    3.995 --    24 H    0.986    25 H    0.986    26 H    0.984
                             9 C    0.983
    11   6 C    3.995 --     9 C    0.987    28 H    0.987    29 H    0.985
                            27 H    0.982
    12   7 N    2.978 --     9 C    0.984    30 H    0.943    31 H    0.941
    13   7 N    3.461 --     8 C    1.174    14 C    1.129    32 H    0.879
                            15 O    0.121
    14   6 C    3.910 --    15 O    1.508    13 N    1.129    16 C    1.124
    15   8 O    1.835 --    14 C    1.508    13 N    0.121
    16   6 C    3.910 --     6 C    1.529    14 C    1.124    17 O    1.034
    17   8 O    2.024 --    16 C    1.034    33 H    0.833
    18   1 H    1.019 --     1 C    0.980
    19   1 H    1.025 --     1 C    0.984
    20   1 H    1.036 --     1 C    0.971
    21   1 H    1.021 --     4 C    0.988
    22   1 H    1.017 --     4 C    0.986
    23   1 H    1.016 --     4 C    0.988
    24   1 H    1.004 --    10 C    0.986
    25   1 H    1.006 --    10 C    0.986
    26   1 H    1.001 --    10 C    0.984
    27   1 H    1.014 --    11 C    0.982
    28   1 H    1.004 --    11 C    0.987
    29   1 H    1.005 --    11 C    0.985
    30   1 H    0.957 --    12 N    0.943
    31   1 H    0.955 --    12 N    0.941
    32   1 H    0.958 --    13 N    0.879
    33   1 H    0.874 --    17 O    0.833
 ---------------------------------------------------------------------------

           -------------------------------------------------
          | TOTAL ENERGY              -58.550811260404 Eh   |
          | GRADIENT NORM               0.000487150001 Eh/α |
          | HOMO-LUMO GAP               2.004697704599 eV   |
           -------------------------------------------------

 * finished run on 2023/06/20 at 14:57:21.096
