   * xtb version 6.5.1 (579679a) compiled by 'ehlert@majestix' on 2022-07-11
          program call               : /lustre/hpc/kemi/ree/PhD/git/ReactivityQM/dep/xtb-6.5.1/bin/xtb --gfn 1 /lustre/hpc/kemi/ree/PhD/git/ReactivityQM/calculations/R02/reac01prodE01/conf16/R02_reac01prodE01_conf16_gfn1.xyz --opt --vfukui --chrg -1 --uhf 0 --alpb DMSO

   ID    Z sym.   atoms
    1    6 C      1, 3, 5, 7-10, 12, 13, 15, 18, 19, 22, 24
    2    8 O      2, 4, 14, 20, 23, 25
    3    7 N      6, 11, 16, 17, 21
    4    1 H      26-43

      * Solvation model:               ALPB
        Solvent                        DMSO
        Solvent mass                       7.8130E+01 g/mol
          :  Hamiltonian                  GFN1-xTB          :
 * total energy  :   -83.8421443 Eh     change       -0.2413145E-09 Eh
 * total energy  :   -83.8565486 Eh     change       -0.1440430E-01 Eh
 * total energy  :   -83.8617092 Eh     change       -0.5160599E-02 Eh
 * total energy  :   -83.8627531 Eh     change       -0.1043850E-02 Eh
 * total energy  :   -83.8631558 Eh     change       -0.4027350E-03 Eh
 * total energy  :   -83.8633112 Eh     change       -0.1554253E-03 Eh
 * total energy  :   -83.8634615 Eh     change       -0.1502678E-03 Eh
 * total energy  :   -83.8635685 Eh     change       -0.1069701E-03 Eh
 * total energy  :   -83.8636575 Eh     change       -0.8905642E-04 Eh
 * total energy  :   -83.8637261 Eh     change       -0.6857480E-04 Eh
 * total energy  :   -83.8644534 Eh     change       -0.1606056E-04 Eh
 * total energy  :   -83.8644614 Eh     change       -0.7998228E-05 Eh
 * total energy  :   -83.8644695 Eh     change       -0.8084885E-05 Eh
 * total energy  :   -83.8644807 Eh     change       -0.1127879E-04 Eh
 * total energy  :   -83.8644936 Eh     change       -0.1285081E-04 Eh
 * total energy  :   -83.8645008 Eh     change       -0.7250629E-05 Eh
 * total energy  :   -83.8645125 Eh     change       -0.1166231E-04 Eh
 * total energy  :   -83.8645202 Eh     change       -0.7658270E-05 Eh
 * total energy  :   -83.8645241 Eh     change       -0.3941643E-05 Eh
   *** GEOMETRY OPTIMIZATION CONVERGED AFTER 44 ITERATIONS ***

 final structure:
================
43
 xtb: 6.5.1 (579679a)
C           -4.45681325840279        3.24228018059605        0.96113793920764
O           -3.64235508351344        2.11696859024212        0.62247731255109
C           -4.28021179785649        1.04271543487783        0.17830645454890
O           -5.49437225361478        0.99849704502076        0.05823123202404
C           -3.39510588456473       -0.09402481970014       -0.16339994083179
N           -2.04972101919121        0.08087433268913        0.01299200084004
C           -1.23759482334964       -0.88209505030510       -0.27684167914155
C            0.26357184135168       -0.73656800410669       -0.06132972691671
C            0.64715715978726       -1.71580463447825        1.06908233950131
C            0.98759515547976       -1.12414639237467       -1.36455393432424
N            0.51882409621733        0.67363840117165        0.22373752869549
C            1.72805325447448        1.01195514745489        1.12995914629787
C            1.75946881423881        2.58318876837061        1.07472887490204
O            1.67243629282051        0.51941268657800        2.32415567766480
C            2.98186075119167        0.59070219713423        0.29127012518279
N            3.41956748479849        1.14843345554246       -0.79772344768909
N            4.60342448697927        0.51722515448160       -1.12781757213421
C            4.80445561397331       -0.37103561171350       -0.21264120285959
C            5.94334675952496       -1.31557735374273       -0.10477162589962
O            3.82624637027980       -0.37768945396925        0.71196525735488
N           -1.70487234896978       -2.07654425188276       -0.75436460210595
C           -3.03097762472161       -2.37547774184755       -0.98147509639625
O           -3.36317316825578       -3.46656691165116       -1.42028097425435
C           -3.92563519692183       -1.26683626535989       -0.64486348586397
O           -5.23203446220884       -1.48239313457789       -0.83624278047343
H           -5.00365441541628        3.58619198333060        0.08046214763272
H           -3.78576277436671        4.02075801089682        1.31777128045330
H           -5.17004164096968        2.96740707216316        1.74130050021300
H            0.15327946539795       -1.43019564120627        1.99641708672082
H            0.34082616599230       -2.72530496977177        0.79652254072646
H            1.72291794183789       -1.70796133704517        1.23095103328552
H            0.68332090660708       -0.45121598400768       -2.16582809537370
H            0.75926573704271       -2.14833179853627       -1.65283803716411
H            2.06368565093031       -1.04167650758412       -1.22871886054092
H           -0.28056513840953        1.01923254020613        0.75976914878681
H            0.89150388162356        2.96375046517992        1.60971957285351
H            2.66227120577433        2.93390240953494        1.57234016821348
H            1.74420047755568        2.94087585108343        0.04631892768995
H            6.57362165254449       -1.22796015086116       -0.98631373374726
H            6.53581816248530       -1.09401787258695        0.78316601605866
H            5.57712748568056       -2.33798178499945       -0.02049255508608
H           -1.05967400679480       -2.82299558001500       -0.96949441194494
H           -5.75128091705747       -0.68560547422128       -0.58197954865740

          :  Hamiltonian                  GFN1-xTB          :
         :: total energy             -83.864524109060 Eh    ::
         :: gradient norm              0.000372850551 Eh/a0 ::
         :: HOMO-LUMO gap              0.685376263302 eV    ::
         :: SCC energy               -84.617540966325 Eh    ::
         :: -> Gsolv                  -0.115516781019 Eh    ::
         :: repulsion energy           0.780402987560 Eh    ::

    * Orbital Energies and Occupations

         #    Occupation            Energy/Eh            Energy/eV
      -------------------------------------------------------------
         1        2.0000           -0.8381393             -22.8069
       ...           ...                  ...                  ...
        56        2.0000           -0.4641354             -12.6298
        57        2.0000           -0.4616492             -12.5621
        58        2.0000           -0.4578891             -12.4598
        59        2.0000           -0.4511926             -12.2776
        60        2.0000           -0.4453233             -12.1179
        61        2.0000           -0.4396952             -11.9647
        62        2.0000           -0.4314620             -11.7407
        63        2.0000           -0.4182119             -11.3801
        64        2.0000           -0.4173170             -11.3558
        65        2.0000           -0.4109231             -11.1818
        66        2.0000           -0.3792812             -10.3208
        67        2.0000           -0.3456823              -9.4065
        68        2.0000           -0.3421235              -9.3097 (HOMO)
        69        0.0000           -0.3169364              -8.6243 (LUMO)
        70                         -0.2676788              -7.2839
        71                         -0.2339174              -6.3652
        72                         -0.2285916              -6.2203
        73                         -0.2152693              -5.8578
        74                         -0.1482522              -4.0341
        75                         -0.1348698              -3.6700
        76                         -0.1300075              -3.5377
        77                         -0.1247756              -3.3953
        78                         -0.1001659              -2.7257
        79                         -0.0856366              -2.3303
       ...                                ...                  ...
       136                          0.7234395              19.6858
      -------------------------------------------------------------
                  HL-Gap            0.0251871 Eh            0.6854 eV

Wiberg/Mayer (AO) data.
largest (>0.10) Wiberg bond orders for each atom

     #   Z sym  total        # sym  WBO       # sym  WBO       # sym  WBO
 ---------------------------------------------------------------------------
     1   6 C    3.870 --    27 H    0.986    26 H    0.979    28 H    0.979
                             2 O    0.896
     2   8 O    2.218 --     3 C    1.134     1 C    0.896     4 O    0.128
     3   6 C    3.845 --     4 O    1.600     2 O    1.134     5 C    1.022
     4   8 O    1.938 --     3 C    1.600     2 O    0.128
     5   6 C    3.967 --    24 C    1.483     6 N    1.186     3 C    1.022
     6   7 N    3.038 --     7 C    1.575     5 C    1.186
     7   6 C    3.907 --     6 N    1.575    21 N    1.159     8 C    0.975
     8   6 C    3.969 --    11 N    0.992    10 C    0.981     7 C    0.975
                             9 C    0.966
     9   6 C    3.992 --    30 H    0.984    29 H    0.982    31 H    0.978
                             8 C    0.966
    10   6 C    3.995 --    32 H    0.986    33 H    0.983     8 C    0.981
                            34 H    0.978
    11   7 N    2.965 --     8 C    0.992    35 H    0.936    12 C    0.834
    12   6 C    3.938 --    14 O    1.239    13 C    0.926    15 C    0.886
                            11 N    0.834
    13   6 C    3.992 --    38 H    0.991    37 H    0.988    36 H    0.987
                            12 C    0.926
    14   8 O    1.545 --    12 C    1.239
    15   6 C    3.806 --    16 N    1.637    20 O    1.053    12 C    0.886
    16   7 N    2.967 --    15 C    1.637    17 N    1.152
    17   7 N    2.975 --    18 C    1.651    16 N    1.152
    18   6 C    3.888 --    17 N    1.651    20 O    1.067    19 C    1.024
    19   6 C    3.993 --    18 C    1.024    39 H    0.985    41 H    0.972
                            40 H    0.968
    20   8 O    2.310 --    18 C    1.067    15 C    1.053
    21   7 N    3.460 --     7 C    1.159    22 C    1.133    42 H    0.888
                            23 O    0.136
    22   6 C    3.911 --    23 O    1.582    21 N    1.133    24 C    1.064
    23   8 O    1.882 --    22 C    1.582    21 N    0.136
    24   6 C    3.921 --     5 C    1.483    25 O    1.114    22 C    1.064
    25   8 O    2.081 --    24 C    1.114    43 H    0.780
    26   1 H    1.007 --     1 C    0.979
    27   1 H    1.011 --     1 C    0.986
    28   1 H    1.007 --     1 C    0.979
    29   1 H    1.028 --     9 C    0.982
    30   1 H    1.004 --     9 C    0.984
    31   1 H    1.027 --     9 C    0.978
    32   1 H    1.012 --    10 C    0.986
    33   1 H    1.003 --    10 C    0.983
    34   1 H    1.012 --    10 C    0.978
    35   1 H    0.994 --    11 N    0.936
    36   1 H    1.014 --    13 C    0.987
    37   1 H    1.017 --    13 C    0.988
    38   1 H    1.022 --    13 C    0.991
    39   1 H    1.003 --    19 C    0.985
    40   1 H    1.002 --    19 C    0.968
    41   1 H    1.001 --    19 C    0.972
    42   1 H    0.941 --    21 N    0.888
    43   1 H    0.856 --    25 O    0.780
 ---------------------------------------------------------------------------

           -------------------------------------------------
          | TOTAL ENERGY              -83.864524109060 Eh   |
          | GRADIENT NORM               0.000372850551 Eh/α |
          | HOMO-LUMO GAP               0.685376263302 eV   |
           -------------------------------------------------

 * finished run on 2023/06/20 at 14:52:19.970
