   * xtb version 6.5.1 (579679a) compiled by 'ehlert@majestix' on 2022-07-11
          program call               : /lustre/hpc/kemi/ree/PhD/git/ReactivityQM/dep/xtb-6.5.1/bin/xtb --gfn 1 /lustre/hpc/kemi/ree/PhD/git/ReactivityQM/calculations/RaltegravirCLI/reac02prodN06/conf07/RaltegravirCLI_reac02prodN06_conf07_gfn1.xyz --opt --vfukui --chrg 1 --uhf 0 --alpb DMSO

   ID    Z sym.   atoms
    1    6 C      1, 3, 5, 7-9, 12-16, 18, 19, 21-24
    2    7 N      2, 11, 20, 25
    3    8 O      4, 6, 10
    4    9 F      17
    5    1 H      26-47

      * Solvation model:               ALPB
        Solvent                        DMSO
        Solvent mass                       7.8130E+01 g/mol
          :  Hamiltonian                  GFN1-xTB          :
 * total energy  :   -79.4673910 Eh     change       -0.8668621E-12 Eh
 * total energy  :   -79.4818786 Eh     change       -0.1448758E-01 Eh
 * total energy  :   -79.4875356 Eh     change       -0.5656951E-02 Eh
 * total energy  :   -79.4887118 Eh     change       -0.1176258E-02 Eh
 * total energy  :   -79.4895628 Eh     change       -0.8509892E-03 Eh
 * total energy  :   -79.4898088 Eh     change       -0.2460190E-03 Eh
 * total energy  :   -79.4900405 Eh     change       -0.2316970E-03 Eh
 * total energy  :   -79.4902155 Eh     change       -0.1749726E-03 Eh
 * total energy  :   -79.4903636 Eh     change       -0.1480987E-03 Eh
 * total energy  :   -79.4905137 Eh     change       -0.1500504E-03 Eh
 * total energy  :   -79.4925134 Eh     change       -0.4136962E-04 Eh
 * total energy  :   -79.4925566 Eh     change       -0.4324711E-04 Eh
 * total energy  :   -79.4925743 Eh     change       -0.1764117E-04 Eh
 * total energy  :   -79.4926083 Eh     change       -0.3398856E-04 Eh
 * total energy  :   -79.4926184 Eh     change       -0.1017892E-04 Eh
 * total energy  :   -79.4926374 Eh     change       -0.1898651E-04 Eh
 * total energy  :   -79.4926433 Eh     change       -0.5874884E-05 Eh
 * total energy  :   -79.4926551 Eh     change       -0.1181767E-04 Eh
 * total energy  :   -79.4926593 Eh     change       -0.4149015E-05 Eh
   *** GEOMETRY OPTIMIZATION CONVERGED AFTER 50 ITERATIONS ***

 final structure:
================
47
 xtb: 6.5.1 (579679a)
C           -1.95652616061741        2.54911481882023       -1.10426824676692
N           -1.59559743579113        1.12740626742848       -1.06352575489523
C           -0.66846624534974        0.77283487147080       -2.00099175459268
O           -0.20279486038503        1.53333454060315       -2.83338191226773
C           -0.24266594751312       -0.63873407944675       -1.96961463532123
O            0.62362796550441       -1.02172251440315       -2.85183008113413
C           -0.67135394267851       -1.49242057061688       -0.90794278608234
C           -0.68949867103135       -2.99968029421338       -1.11328765787071
C            0.63126778862827       -1.08479747307018        0.10703688588356
O            0.42906378195077       -0.29418367172502        0.97763401713392
N            1.70957413341605       -1.77039814240166       -0.18669914778192
C            2.84606755142258       -1.78835676450169        0.76101856644303
C            3.68404411672563       -0.54210462359531        0.61415958547042
C            3.41322522986534        0.57786988218047        1.39831964216640
C            4.17781716647682        1.72774353303379        1.26880058300200
C            5.20854648880833        1.73060420728653        0.34530074771163
F            5.95122668903116        2.83655556845133        0.21511752689694
C            5.50305674630747        0.63557216579071       -0.44828028709981
C            4.72875532711404       -0.50681662569815       -0.30703280805476
N           -1.79583490372205       -1.04059824361614       -0.19871315102832
C           -2.18299663072607        0.18411996989120       -0.22583113544395
C           -3.38308344581656        0.52714925275649        0.64812657761590
C           -4.59928856306839        0.80078494535337       -0.24752435919115
C           -3.68434449690366       -0.65890553725133        1.57761117481716
N           -3.08852972609230        1.71272420864958        1.44588022620292
H           -1.04056049747419        3.12157343805588       -1.25035695491385
H           -2.62288920240506        2.72074763582098       -1.94937131164226
H           -2.43668505631844        2.83132300224808       -0.17111057316660
H            0.86646720882292       -0.29465774687606       -3.46822206601620
H            0.10389542402711       -3.30824106607176       -1.78871074210527
H           -1.65080939965136       -3.26532034423564       -1.55190316832742
H           -0.58533532021998       -3.51298098899079       -0.15996515159380
H            1.79433356999068       -2.31246256500673       -1.02957891512747
H            3.42072582594223       -2.68532466708188        0.52966749391267
H            2.43327587309885       -1.86575803065582        1.76942956172230
H            2.59862619099997        0.55072518550743        2.11184304695311
H            3.97908773002698        2.60535859199347        1.87018133375807
H            6.31739509888133        0.67708443578636       -1.15965975651180
H            4.93820535271492       -1.37585596458003       -0.91826344751146
H           -4.45173741909566        1.69741963379512       -0.84538731530017
H           -4.77000847070932       -0.04452584396372       -0.91269881810489
H           -5.48008055925571        0.94122974367200        0.37740055584074
H           -4.50909005677303       -0.39503894444069        2.23734883402641
H           -3.95787432229549       -1.53923938089463        0.99842572786954
H           -2.80838964327860       -0.89289046042358        2.18027697863855
H           -2.36402950211434        1.49302381273115        2.11778801224139
H           -3.91981578046620        1.97671583244013        1.95724285954536

          :  Hamiltonian                  GFN1-xTB          :
         :: total energy             -79.492659270472 Eh    ::
         :: gradient norm              0.000738356954 Eh/a0 ::
         :: HOMO-LUMO gap              0.640570336114 eV    ::
         :: SCC energy               -80.394359144014 Eh    ::
         :: -> Gsolv                  -0.102076037107 Eh    ::
         :: repulsion energy           0.933639555079 Eh    ::

    * Orbital Energies and Occupations

         #    Occupation            Energy/Eh            Energy/eV
      -------------------------------------------------------------
         1        2.0000           -0.8957317             -24.3741
       ...           ...                  ...                  ...
        55        2.0000           -0.5230765             -14.2336
        56        2.0000           -0.5156063             -14.0304
        57        2.0000           -0.5139583             -13.9855
        58        2.0000           -0.5089358             -13.8488
        59        2.0000           -0.4974620             -13.5366
        60        2.0000           -0.4940484             -13.4437
        61        2.0000           -0.4903202             -13.3423
        62        2.0000           -0.4857941             -13.2191
        63        2.0000           -0.4803604             -13.0713
        64        2.0000           -0.4717960             -12.8382
        65        2.0000           -0.4645586             -12.6413
        66        2.0000           -0.4526209             -12.3164
        67        2.0000           -0.4269054             -11.6167 (HOMO)
        68        0.0000           -0.4033648             -10.9761 (LUMO)
        69                         -0.3202017              -8.7131
        70                         -0.2918067              -7.9405
        71                         -0.2862841              -7.7902
        72                         -0.2831661              -7.7053
        73                         -0.2541233              -6.9150
        74                         -0.1619617              -4.4072
        75                         -0.1581736              -4.3041
        76                         -0.1505573              -4.0969
        77                         -0.1449313              -3.9438
        78                         -0.1426746              -3.8824
       ...                                ...                  ...
       144                          0.7429225              20.2160
      -------------------------------------------------------------
                  HL-Gap            0.0235405 Eh            0.6406 eV

Wiberg/Mayer (AO) data.
largest (>0.10) Wiberg bond orders for each atom

     #   Z sym  total        # sym  WBO       # sym  WBO       # sym  WBO
 ---------------------------------------------------------------------------
     1   6 C    3.898 --    26 H    0.973    27 H    0.968    28 H    0.962
                             2 N    0.915
     2   7 N    3.532 --     3 C    1.193    21 C    1.104     1 C    0.915
                             4 O    0.164
     3   6 C    3.927 --     4 O    1.587     2 N    1.193     5 C    1.013
     4   8 O    1.940 --     3 C    1.587     2 N    0.164
     5   6 C    3.846 --     6 O    1.267     7 C    1.150     3 C    1.013
                             9 C    0.109
     6   8 O    2.220 --     5 C    1.267    29 H    0.758
     7   6 C    3.959 --     5 C    1.150    20 N    1.060     8 C    0.977
                             9 C    0.597
     8   6 C    3.975 --    32 H    0.981    30 H    0.980     7 C    0.977
                            31 H    0.969
     9   6 C    3.904 --    10 O    1.700    11 N    1.375     7 C    0.597
                             5 C    0.109
    10   8 O    2.083 --     9 C    1.700    11 N    0.181
    11   7 N    3.401 --     9 C    1.375    12 C    0.882    33 H    0.882
                            10 O    0.181
    12   6 C    3.907 --    13 C    0.997    35 H    0.972    34 H    0.972
                            11 N    0.882
    13   6 C    3.984 --    19 C    1.415    14 C    1.414    12 C    0.997
    14   6 C    3.991 --    15 C    1.447    13 C    1.414    36 H    0.969
                            18 C    0.109
    15   6 C    3.991 --    14 C    1.447    16 C    1.397    37 H    0.968
                            19 C    0.109
    16   6 C    3.860 --    15 C    1.397    18 C    1.397    17 F    0.935
    17   9 F    1.066 --    16 C    0.935
    18   6 C    3.990 --    19 C    1.447    16 C    1.397    38 H    0.968
                            14 C    0.109
    19   6 C    3.993 --    18 C    1.447    13 C    1.415    39 H    0.970
                            15 C    0.109
    20   7 N    3.031 --    21 C    1.658     7 C    1.060
    21   6 C    3.902 --    20 N    1.658     2 N    1.104    22 C    0.973
    22   6 C    3.961 --    24 C    0.991    25 N    0.983    23 C    0.980
                            21 C    0.973
    23   6 C    3.991 --    41 H    0.985    40 H    0.982    42 H    0.981
                            22 C    0.980
    24   6 C    3.993 --    22 C    0.991    43 H    0.984    45 H    0.984
                            44 H    0.983
    25   7 N    3.001 --    22 C    0.983    46 H    0.938    47 H    0.934
    26   1 H    1.001 --     1 C    0.973
    27   1 H    0.998 --     1 C    0.968
    28   1 H    1.025 --     1 C    0.962
    29   1 H    0.803 --     6 O    0.758
    30   1 H    0.996 --     8 C    0.980
    31   1 H    0.996 --     8 C    0.969
    32   1 H    0.997 --     8 C    0.981
    33   1 H    0.927 --    11 N    0.882
    34   1 H    0.997 --    12 C    0.972
    35   1 H    0.997 --    12 C    0.972
    36   1 H    1.005 --    14 C    0.969
    37   1 H    0.996 --    15 C    0.968
    38   1 H    0.996 --    18 C    0.968
    39   1 H    0.997 --    19 C    0.970
    40   1 H    1.002 --    23 C    0.982
    41   1 H    1.001 --    23 C    0.985
    42   1 H    0.998 --    23 C    0.981
    43   1 H    1.002 --    24 C    0.984
    44   1 H    1.008 --    24 C    0.983
    45   1 H    1.007 --    24 C    0.984
    46   1 H    0.952 --    25 N    0.938
    47   1 H    0.948 --    25 N    0.934
 ---------------------------------------------------------------------------

           -------------------------------------------------
          | TOTAL ENERGY              -79.492659270472 Eh   |
          | GRADIENT NORM               0.000738356954 Eh/α |
          | HOMO-LUMO GAP               0.640570336114 eV   |
           -------------------------------------------------

 * finished run on 2023/06/20 at 15:23:20.654
