   * xtb version 6.5.1 (579679a) compiled by 'ehlert@majestix' on 2022-07-11
          program call               : /lustre/hpc/kemi/ree/PhD/git/ReactivityQM/dep/xtb-6.5.1/bin/xtb --gfn 1 /lustre/hpc/kemi/ree/PhD/git/ReactivityQM/calculations/R02methylcation/reac01prodN05/conf03/R02methylcation_reac01prodN05_conf03_gfn1.xyz --opt --vfukui --chrg 0 --uhf 0 --alpb DMSO

   ID    Z sym.   atoms
    1    6 C      1, 3, 5, 6, 8, 11-14, 16, 18, 21, 22, 25
    2    8 O      2, 4, 7, 9, 17, 23
    3    7 N      10, 15, 19, 20, 24
    4    1 H      26-42

      * Solvation model:               ALPB
        Solvent                        DMSO
        Solvent mass                       7.8130E+01 g/mol
          :  Hamiltonian                  GFN1-xTB          :
 * total energy  :   -82.9748626 Eh     change       -0.2994227E-10 Eh
 * total energy  :   -82.9859242 Eh     change       -0.1106156E-01 Eh
 * total energy  :   -82.9902289 Eh     change       -0.4304699E-02 Eh
 * total energy  :   -82.9913395 Eh     change       -0.1110561E-02 Eh
 * total energy  :   -82.9922081 Eh     change       -0.8686871E-03 Eh
 * total energy  :   -82.9926915 Eh     change       -0.4833142E-03 Eh
 * total energy  :   -82.9930279 Eh     change       -0.3364533E-03 Eh
 * total energy  :   -82.9932646 Eh     change       -0.2366395E-03 Eh
 * total energy  :   -82.9934536 Eh     change       -0.1890482E-03 Eh
 * total energy  :   -82.9936181 Eh     change       -0.1645443E-03 Eh
 * total energy  :   -82.9948592 Eh     change       -0.1044282E-04 Eh
 * total energy  :   -82.9948666 Eh     change       -0.7343304E-05 Eh
 * total energy  :   -82.9948737 Eh     change       -0.7076153E-05 Eh
 * total energy  :   -82.9948805 Eh     change       -0.6812765E-05 Eh
 * total energy  :   -82.9948867 Eh     change       -0.6250738E-05 Eh
 * total energy  :   -82.9948927 Eh     change       -0.5934344E-05 Eh
 * total energy  :   -82.9948996 Eh     change       -0.6901331E-05 Eh
 * total energy  :   -82.9949090 Eh     change       -0.9412508E-05 Eh
 * total energy  :   -82.9949131 Eh     change       -0.4106239E-05 Eh
   *** GEOMETRY OPTIMIZATION CONVERGED AFTER 44 ITERATIONS ***

 final structure:
================
42
 xtb: 6.5.1 (579679a)
C           -4.40454928977315        2.93324701477522       -1.94211275927593
O           -4.11554142598539        1.82276295422338       -1.09247303280363
C           -2.83563375722851        1.44527743371167       -1.03176355965000
O           -1.97263616177713        2.01374669661527       -1.68160411581990
C           -2.59706686465476        0.34296778555245       -0.08895236372935
C           -3.51300600130457        0.07716272121056        0.96750594196416
O           -4.62872206292337        0.57966705058658        1.10399201503807
C           -3.02671385826698       -0.88327586591836        2.02291722041386
O           -3.66739270963895       -1.25716103332440        2.98293508570229
N           -1.71890654742147       -1.31890354638027        1.86650633200907
C           -0.90889462616978       -1.09171709287989        0.80715672678079
C            0.43614826660688       -1.81262200141095        0.83007193341589
C            0.29142239985229       -3.14995014926000        0.08572089223960
C            0.91043264844517       -2.07669398307683        2.26890370899773
N            1.43273411265988       -0.92772667971121        0.22201859289275
C            2.65712062331430       -1.35130962804874       -0.19094913869724
O            3.00249177962407       -2.50927921016745       -0.32285931242551
C            3.55431693226727       -0.21697593082510       -0.51480196595764
N            4.77255440470846       -0.27189729167009       -0.95518085666717
N            5.20205258497741        1.01306447737524       -1.08641709911126
C            4.22026764277220        1.77620379531838       -0.71744718101185
C            4.19226261528526        3.25375855632790       -0.67002466862031
O            3.14580012877128        1.06020488289001       -0.34476166500309
N           -1.36314724117994       -0.32973105185209       -0.16584810725189
C           -0.62963442062481       -0.23238438396366       -1.43640250431565
H           -3.88199433988213        3.82620696151633       -1.58981840680953
H           -4.09221231666197        2.71635041147787       -2.96655101053765
H           -5.48177481819346        3.08595605378366       -1.90121227324276
H           -1.39463406228693       -1.92007434916247        2.60822917835520
H            1.12709637055239       -3.80309859446773        0.32693639761204
H           -0.63205537147718       -3.62998882137985        0.40603686671515
H            0.26132260449395       -3.00700055678927       -0.99181251143056
H            0.31461039029618       -2.85134849353190        2.74719795011563
H            1.94189402702148       -2.42341727372257        2.22672767865809
H            0.87276974072540       -1.16397079594841        2.85975762983500
H            1.35708331617609        0.04511571691017        0.47723469106008
H            5.15063187253249        3.64808378476636       -0.99936658215086
H            3.98895775471795        3.58751833519367        0.34722440005744
H            3.39926214995615        3.63384018348812       -1.31343142104175
H           -0.01571903608952       -1.11415949869962       -1.57230823697262
H           -0.00416882965467        0.65760849485303       -1.43261957320263
H           -1.34682962453356       -0.17605907838936       -2.25104789613022

          :  Hamiltonian                  GFN1-xTB          :
         :: total energy             -82.994913081089 Eh    ::
         :: gradient norm              0.000485195976 Eh/a0 ::
         :: HOMO-LUMO gap              2.517331824985 eV    ::
         :: SCC energy               -83.776343117756 Eh    ::
         :: -> Gsolv                  -0.071201933374 Eh    ::
         :: repulsion energy           0.808506215202 Eh    ::

    * Orbital Energies and Occupations

         #    Occupation            Energy/Eh            Energy/eV
      -------------------------------------------------------------
         1        2.0000           -0.8692420             -23.6533
       ...           ...                  ...                  ...
        55        2.0000           -0.5089169             -13.8483
        56        2.0000           -0.5088500             -13.8465
        57        2.0000           -0.4941204             -13.4457
        58        2.0000           -0.4909559             -13.3596
        59        2.0000           -0.4879218             -13.2770
        60        2.0000           -0.4838727             -13.1668
        61        2.0000           -0.4731829             -12.8760
        62        2.0000           -0.4719138             -12.8414
        63        2.0000           -0.4654892             -12.6666
        64        2.0000           -0.4564196             -12.4198
        65        2.0000           -0.4540682             -12.3558
        66        2.0000           -0.4253859             -11.5753
        67        2.0000           -0.4146133             -11.2822 (HOMO)
        68                         -0.3221031              -8.7649 (LUMO)
        69                         -0.3177430              -8.6462
        70                         -0.3038008              -8.2668
        71                         -0.2598938              -7.0721
        72                         -0.2376662              -6.4672
        73                         -0.2053023              -5.5866
        74                         -0.1664974              -4.5306
        75                         -0.1474317              -4.0118
        76                         -0.1433423              -3.9005
        77                         -0.1381355              -3.7589
        78                         -0.1323913              -3.6025
       ...                                ...                  ...
       134                          0.7525307              20.4774
      -------------------------------------------------------------
                  HL-Gap            0.0925102 Eh            2.5173 eV

Wiberg/Mayer (AO) data.
largest (>0.10) Wiberg bond orders for each atom

     #   Z sym  total        # sym  WBO       # sym  WBO       # sym  WBO
 ---------------------------------------------------------------------------
     1   6 C    3.877 --    28 H    0.986    27 H    0.980    26 H    0.980
                             2 O    0.903
     2   8 O    2.201 --     3 C    1.105     1 C    0.903     4 O    0.121
     3   6 C    3.865 --     4 O    1.585     2 O    1.105     5 C    1.080
     4   8 O    1.896 --     3 C    1.585     2 O    0.121
     5   6 C    3.850 --     6 C    1.257     3 C    1.080    24 N    1.057
                             7 O    0.139
     6   6 C    3.944 --     7 O    1.573     5 C    1.257     8 C    0.954
     7   8 O    1.883 --     6 C    1.573     5 C    0.139
     8   6 C    3.867 --     9 O    1.660    10 N    1.089     6 C    0.954
     9   8 O    1.932 --     8 C    1.660    10 N    0.117
    10   7 N    3.453 --    11 C    1.206     8 C    1.089    29 H    0.877
                             9 O    0.117
    11   6 C    3.914 --    24 N    1.435    10 N    1.206    12 C    0.977
    12   6 C    3.935 --    14 C    0.985    11 C    0.977    13 C    0.976
                            15 N    0.934
    13   6 C    3.981 --    31 H    0.984    32 H    0.977    12 C    0.976
                            30 H    0.975
    14   6 C    3.985 --    12 C    0.985    35 H    0.983    34 H    0.978
                            33 H    0.978
    15   7 N    3.319 --    16 C    1.217    12 C    0.934    36 H    0.894
                            17 O    0.167
    16   6 C    3.912 --    17 O    1.610    15 N    1.217    18 C    0.997
    17   8 O    1.921 --    16 C    1.610    15 N    0.167
    18   6 C    3.874 --    19 N    1.620    23 O    1.045    16 C    0.997
    19   7 N    3.003 --    18 C    1.620    20 N    1.202
    20   7 N    2.983 --    21 C    1.607    19 N    1.202
    21   6 C    3.867 --    20 N    1.607    23 O    1.072    22 C    1.032
    22   6 C    3.986 --    21 C    1.032    37 H    0.982    38 H    0.962
                            39 H    0.962
    23   8 O    2.316 --    21 C    1.072    18 C    1.045
    24   7 N    3.590 --    11 C    1.435     5 C    1.057    25 C    0.917
    25   6 C    3.909 --    40 H    0.976    42 H    0.976    41 H    0.970
                            24 N    0.917
    26   1 H    1.008 --     1 C    0.980
    27   1 H    1.009 --     1 C    0.980
    28   1 H    1.012 --     1 C    0.986
    29   1 H    0.932 --    10 N    0.877
    30   1 H    1.010 --    13 C    0.975
    31   1 H    1.000 --    13 C    0.984
    32   1 H    1.002 --    13 C    0.977
    33   1 H    0.996 --    14 C    0.978
    34   1 H    0.998 --    14 C    0.978
    35   1 H    0.997 --    14 C    0.983
    36   1 H    0.938 --    15 N    0.894
    37   1 H    0.998 --    22 C    0.982
    38   1 H    0.996 --    22 C    0.962
    39   1 H    0.996 --    22 C    0.962
    40   1 H    1.009 --    25 C    0.976
    41   1 H    1.014 --    25 C    0.970
    42   1 H    1.005 --    25 C    0.976
 ---------------------------------------------------------------------------

           -------------------------------------------------
          | TOTAL ENERGY              -82.994913081089 Eh   |
          | GRADIENT NORM               0.000485195976 Eh/α |
          | HOMO-LUMO GAP               2.517331824985 eV   |
           -------------------------------------------------

 * finished run on 2023/06/21 at 17:35:21.046
