   * xtb version 6.5.1 (579679a) compiled by 'ehlert@majestix' on 2022-07-11
          program call               : /lustre/hpc/kemi/ree/PhD/git/ReactivityQM/dep/xtb-6.5.1/bin/xtb --gfn 1 /lustre/hpc/kemi/ree/PhD/git/ReactivityQM/calculations/RaltegravirCLI/reac01prodE03/conf02/RaltegravirCLI_reac01prodE03_conf02_gfn1.xyz --opt --vfukui --chrg -1 --uhf 0 --alpb DMSO

   ID    Z sym.   atoms
    1    6 C      1, 2, 4, 5, 10
    2    8 O      3, 6
    3   17 Cl     7
    4    7 N      8, 9
    5    1 H      11-16

      * Solvation model:               ALPB
        Solvent                        DMSO
        Solvent mass                       7.8130E+01 g/mol
          :  Hamiltonian                  GFN1-xTB          :
 * total energy  :   -34.0943688 Eh     change       -0.2903278E-10 Eh
 * total energy  :   -34.1039444 Eh     change       -0.9575534E-02 Eh
 * total energy  :   -34.1087288 Eh     change       -0.4784436E-02 Eh
 * total energy  :   -34.1096594 Eh     change       -0.9305824E-03 Eh
 * total energy  :   -34.1111058 Eh     change       -0.1446447E-02 Eh
 * total energy  :   -34.1114225 Eh     change       -0.3166654E-03 Eh
 * total energy  :   -34.1115356 Eh     change       -0.1131583E-03 Eh
 * total energy  :   -34.1115642 Eh     change       -0.2859353E-04 Eh
 * total energy  :   -34.1115811 Eh     change       -0.1685798E-04 Eh
 * total energy  :   -34.1115948 Eh     change       -0.1372129E-04 Eh
 * total energy  :   -34.1289763 Eh     change       -0.3412817E-04 Eh
 * total energy  :   -34.1290190 Eh     change       -0.4269367E-04 Eh
 * total energy  :   -34.1290415 Eh     change       -0.2248545E-04 Eh
 * total energy  :   -34.1290669 Eh     change       -0.2537333E-04 Eh
 * total energy  :   -34.1290866 Eh     change       -0.1976617E-04 Eh
 * total energy  :   -34.1290971 Eh     change       -0.1044591E-04 Eh
 * total energy  :   -34.1291105 Eh     change       -0.1343993E-04 Eh
 * total energy  :   -34.1291161 Eh     change       -0.5624304E-05 Eh
 * total energy  :   -34.1291192 Eh     change       -0.3069357E-05 Eh
   *** GEOMETRY OPTIMIZATION CONVERGED AFTER 69 ITERATIONS ***

 final structure:
================
16
 xtb: 6.5.1 (579679a)
C           -1.45371658722358       -1.11229021767967       -0.98241538271775
C           -0.41661641354010       -0.12337085043932       -0.61139810220057
O            0.78457745357643       -0.09023514913485       -1.20997638290677
C            1.47511923588681        0.97724775586398       -0.61869244713291
C            2.84275723887718        0.88076813829312       -0.43961031047208
O            3.85990421470608        1.42309675462097       -0.76818062239268
Cl           5.03666747765492       -5.31868251221677        2.14280257062183
N            0.65422013254106        1.56825931363739        0.32616658186530
N           -0.47527650777097        0.82867350673375        0.27538944521305
C           -1.58551011066362        1.19271373801965        1.12237167652909
H           -1.75689417925448       -1.69320993025828       -0.11114416250059
H           -2.33782361043443       -0.60858472415575       -1.37325071771478
H           -1.05670768970332       -1.78112279285209       -1.74256556380627
H           -1.22456602273700        1.90003991527829        1.86464050860793
H           -1.98052032840158        0.30244067175061        1.60716943112938
H           -2.36561330351384        1.65425538254267        0.51869547787857

          :  Hamiltonian                  GFN1-xTB          :
         :: total energy             -34.129119203246 Eh    ::
         :: gradient norm              0.000683421250 Eh/a0 ::
         :: HOMO-LUMO gap              1.779972484401 eV    ::
         :: SCC energy               -34.409864624403 Eh    ::
         :: -> Gsolv                  -0.132240679575 Eh    ::
         :: repulsion energy           0.286866338681 Eh    ::

    * Orbital Energies and Occupations

         #    Occupation            Energy/Eh            Energy/eV
      -------------------------------------------------------------
         1        2.0000           -0.8530851             -23.2136
       ...           ...                  ...                  ...
        16        2.0000           -0.5653815             -15.3848
        17        2.0000           -0.5588759             -15.2078
        18        2.0000           -0.5525380             -15.0353
        19        2.0000           -0.5418379             -14.7442
        20        2.0000           -0.5372401             -14.6190
        21        2.0000           -0.5254458             -14.2981
        22        2.0000           -0.4994158             -13.5898
        23        2.0000           -0.4746011             -12.9146
        24        2.0000           -0.4746011             -12.9146
        25        2.0000           -0.4746011             -12.9146
        26        2.0000           -0.4582474             -12.4695
        27        2.0000           -0.4423323             -12.0365
        28        2.0000           -0.3468944              -9.4395 (HOMO)
        29                         -0.2814817              -7.6595 (LUMO)
        30                         -0.2715291              -7.3887
        31                         -0.2197159              -5.9788
        32                         -0.1584320              -4.3112
        33                         -0.1446893              -3.9372
        34                         -0.0999723              -2.7204
        35                         -0.0870586              -2.3690
        36                         -0.0728564              -1.9825
        37                         -0.0674028              -1.8341
        38                          0.0181971               0.4952
        39                          0.0379984               1.0340
       ...                                ...                  ...
        57                          0.8178454              22.2547
      -------------------------------------------------------------
                  HL-Gap            0.0654128 Eh            1.7800 eV

Wiberg/Mayer (AO) data.
largest (>0.10) Wiberg bond orders for each atom

     #   Z sym  total        # sym  WBO       # sym  WBO       # sym  WBO
 ---------------------------------------------------------------------------
     1   6 C    3.983 --     2 C    1.028    13 H    0.980    11 H    0.964
                            12 H    0.964
     2   6 C    3.878 --     9 N    1.462     3 O    1.078     1 C    1.028
                             8 N    0.190
     3   8 O    2.229 --     2 C    1.078     4 C    0.929
     4   6 C    3.745 --     5 C    1.442     8 N    1.173     3 O    0.929
                             6 O    0.142
     5   6 C    3.568 --     6 O    1.863     4 C    1.442     8 N    0.154
     6   8 O    2.095 --     5 C    1.863     4 C    0.142
     7  17 Cl   0.000
     8   7 N    2.770 --     4 C    1.173     9 N    1.114     2 C    0.190
                             5 C    0.154
     9   7 N    3.645 --     2 C    1.462     8 N    1.114    10 C    0.937
    10   6 C    3.929 --    14 H    0.982    15 H    0.980    16 H    0.975
                             9 N    0.937
    11   1 H    0.997 --     1 C    0.964
    12   1 H    0.997 --     1 C    0.964
    13   1 H    0.995 --     1 C    0.980
    14   1 H    1.005 --    10 C    0.982
    15   1 H    0.997 --    10 C    0.980
    16   1 H    0.998 --    10 C    0.975
 ---------------------------------------------------------------------------

           -------------------------------------------------
          | TOTAL ENERGY              -34.129119203246 Eh   |
          | GRADIENT NORM               0.000683421250 Eh/α |
          | HOMO-LUMO GAP               1.779972484401 eV   |
           -------------------------------------------------

 * finished run on 2023/06/20 at 14:53:02.389
