   * xtb version 6.5.1 (579679a) compiled by 'ehlert@majestix' on 2022-07-11
          program call               : /lustre/hpc/kemi/ree/PhD/git/ReactivityQM/dep/xtb-6.5.1/bin/xtb --gfn 1 /lustre/hpc/kemi/ree/PhD/git/ReactivityQM/calculations/R03/reac02prodN02/conf19/R03_reac02prodN02_conf19_gfn1.xyz --opt --vfukui --chrg 1 --uhf 0 --alpb DMSO

   ID    Z sym.   atoms
    1    6 C      1, 3, 5, 7-10, 12, 14, 15, 18, 19, 22, 23, 25
    2    8 O      2, 4, 13, 20, 24, 26
    3    7 N      6, 11, 16, 17, 21
    4    1 H      27-46

      * Solvation model:               ALPB
        Solvent                        DMSO
        Solvent mass                       7.8130E+01 g/mol
          :  Hamiltonian                  GFN1-xTB          :
 * total energy  :   -86.3182586 Eh     change       -0.3159073E-10 Eh
 * total energy  :   -86.3390031 Eh     change       -0.2074453E-01 Eh
 * total energy  :   -86.3468413 Eh     change       -0.7838146E-02 Eh
 * total energy  :   -86.3483476 Eh     change       -0.1506317E-02 Eh
 * total energy  :   -86.3490246 Eh     change       -0.6769839E-03 Eh
 * total energy  :   -86.3491889 Eh     change       -0.1643141E-03 Eh
 * total energy  :   -86.3493240 Eh     change       -0.1351564E-03 Eh
 * total energy  :   -86.3494270 Eh     change       -0.1029206E-03 Eh
 * total energy  :   -86.3495290 Eh     change       -0.1020787E-03 Eh
 * total energy  :   -86.3496122 Eh     change       -0.8318175E-04 Eh
 * total energy  :   -86.3497956 Eh     change       -0.3459688E-04 Eh
 * total energy  :   -86.3498145 Eh     change       -0.1883795E-04 Eh
 * total energy  :   -86.3497783 Eh     change        0.3617418E-04 Eh
 * total energy  :   -86.3498289 Eh     change       -0.5057145E-04 Eh
 * total energy  :   -86.3498339 Eh     change       -0.5053943E-05 Eh
 * total energy  :   -86.3498435 Eh     change       -0.9581679E-05 Eh
 * total energy  :   -86.3498491 Eh     change       -0.5586894E-05 Eh
 * total energy  :   -86.3498564 Eh     change       -0.7344444E-05 Eh
 * total energy  :   -86.3498595 Eh     change       -0.3109427E-05 Eh
   *** GEOMETRY OPTIMIZATION CONVERGED AFTER 22 ITERATIONS ***

 final structure:
================
46
 xtb: 6.5.1 (579679a)
C            6.60067677173808        1.53738430775224       -1.74467812645328
O            5.59715544356761        1.26842885446916       -0.75149545549088
C            4.46296407046440        0.71601856312575       -1.19767127427896
O            4.27211187990926        0.44647808004100       -2.35824050527884
C            3.46680783353409        0.47534773151773       -0.11550278429338
N            2.30899702669218       -0.09625521048691       -0.57003398825387
C            1.33123168685238       -0.36418711097411        0.22693416017904
C            0.12336557087082       -1.03640723267227       -0.41553125104253
C           -0.05145337705740       -2.46509236735045        0.11572910858988
C            0.30394241312662       -1.05883147608747       -1.93875652111397
N           -1.06015216226108       -0.19367456685264       -0.13062180042581
C           -2.31091370054617       -0.49031674838907       -0.39521705186645
O           -2.60103911977407       -1.64979132648594       -0.89201117807089
C           -3.94392370426472       -2.06801354807614       -1.19682315368938
C           -3.26407835719407        0.54664571874908       -0.08307483598013
N           -2.93377259538650        1.71590210427211        0.39910737755396
N           -4.07261779919551        2.40620862599838        0.56577840779426
C           -5.05116977822630        1.62937221703878        0.17946134342192
C           -6.49442263274041        1.93052265505977        0.17422084710349
O           -4.59540993210826        0.44301918486476       -0.24165939064104
N            1.39593374096103       -0.09405438119578        1.56736862991439
C            0.33683091568517       -0.37757867755437        2.53721928811964
C            2.53348687553685        0.46962611488381        2.15096934224837
O            2.56994996640544        0.68049580072254        3.35111161068018
C            3.61901655474667        0.76849934593665        1.21435411026108
O            4.69570628641310        1.31556329071861        1.78115649828196
H            7.44492712099781        1.98000414012230       -1.22183785471397
H            6.89662317535379        0.60604379960859       -2.23210193195465
H            6.20494423854164        2.23082160528024       -2.48966450331562
H           -0.66617934303334       -3.04999573894617       -0.56415134054578
H           -0.51792710115816       -2.47408261142460        1.09682127374187
H            0.92965547967268       -2.93374045675755        0.18522384430601
H            0.44536266008642       -0.04737015543260       -2.31473326357252
H            1.18036454337979       -1.65482465665091       -2.18675467885098
H           -0.57456382095386       -1.49803050478866       -2.40487561340053
H           -0.89563844639175        0.75439333758142        0.18974082184147
H           -4.54795108733166       -2.06610828916806       -0.28980185408980
H           -3.84705595943452       -3.07715417103765       -1.59269711853845
H           -4.37864345920442       -1.40224031155759       -1.94245924365700
H           -6.66249012996457        2.93430542809333        0.55782658697551
H           -7.02456210537981        1.20468499605317        0.79133483438673
H           -6.88475499927383        1.85214270702985       -0.84082577652068
H           -0.60144107631915       -0.57175029477944        2.03600936286251
H            0.62785136078294       -1.23896310839122        3.13889306375941
H            0.23128480645089        0.49199060887820        3.18673141840312
H            5.40097126542301        1.50456272724704        1.13688056560730

          :  Hamiltonian                  GFN1-xTB          :
         :: total energy             -86.349859540706 Eh    ::
         :: gradient norm              0.000423242599 Eh/a0 ::
         :: HOMO-LUMO gap              1.676464806267 eV    ::
         :: SCC energy               -87.181525404010 Eh    ::
         :: -> Gsolv                  -0.115359626478 Eh    ::
         :: repulsion energy           0.860655738794 Eh    ::

    * Orbital Energies and Occupations

         #    Occupation            Energy/Eh            Energy/eV
      -------------------------------------------------------------
         1        2.0000           -0.9056138             -24.6430
       ...           ...                  ...                  ...
        58        2.0000           -0.5270862             -14.3427
        59        2.0000           -0.5229947             -14.2314
        60        2.0000           -0.5207480             -14.1703
        61        2.0000           -0.5192051             -14.1283
        62        2.0000           -0.5113491             -13.9145
        63        2.0000           -0.5047602             -13.7352
        64        2.0000           -0.4939455             -13.4409
        65        2.0000           -0.4909190             -13.3586
        66        2.0000           -0.4881833             -13.2841
        67        2.0000           -0.4870730             -13.2539
        68        2.0000           -0.4715231             -12.8308
        69        2.0000           -0.4593908             -12.5007
        70        2.0000           -0.4407394             -11.9931 (HOMO)
        71                         -0.3791305             -10.3167 (LUMO)
        72                         -0.3343429              -9.0979
        73                         -0.2987692              -8.1299
        74                         -0.2916199              -7.9354
        75                         -0.2585068              -7.0343
        76                         -0.2508040              -6.8247
        77                         -0.1699745              -4.6252
        78                         -0.1613948              -4.3918
        79                         -0.1567980              -4.2667
        80                         -0.1559469              -4.2435
        81                         -0.1474107              -4.0113
       ...                                ...                  ...
       144                          0.7285543              19.8250
      -------------------------------------------------------------
                  HL-Gap            0.0616089 Eh            1.6765 eV

Wiberg/Mayer (AO) data.
largest (>0.10) Wiberg bond orders for each atom

     #   Z sym  total        # sym  WBO       # sym  WBO       # sym  WBO
 ---------------------------------------------------------------------------
     1   6 C    3.857 --    27 H    0.986    29 H    0.980    28 H    0.980
                             2 O    0.881
     2   8 O    2.206 --     3 C    1.094     1 C    0.881     4 O    0.132
     3   6 C    3.849 --     4 O    1.674     2 O    1.094     5 C    1.002
     4   8 O    1.936 --     3 C    1.674     2 O    0.132
     5   6 C    3.960 --    25 C    1.491     6 N    1.179     3 C    1.002
     6   7 N    3.037 --     7 C    1.583     5 C    1.179
     7   6 C    3.939 --     6 N    1.583    21 N    1.173     8 C    0.974
     8   6 C    3.898 --    10 C    0.983     9 C    0.983     7 C    0.974
                            11 N    0.884
     9   6 C    3.982 --     8 C    0.983    32 H    0.981    31 H    0.980
                            30 H    0.979
    10   6 C    3.981 --     8 C    0.983    35 H    0.983    33 H    0.983
                            34 H    0.979
    11   7 N    3.469 --    12 C    1.432     8 C    0.884    36 H    0.874
                            13 O    0.110
    12   6 C    3.895 --    11 N    1.432    13 O    1.216    15 C    1.088
    13   8 O    2.291 --    12 C    1.216    14 C    0.852    11 N    0.110
    14   6 C    3.819 --    38 H    0.980    39 H    0.974    37 H    0.974
                            13 O    0.852
    15   6 C    3.891 --    16 N    1.537    12 C    1.088    20 O    1.058
    16   7 N    3.037 --    15 C    1.537    17 N    1.264
    17   7 N    2.991 --    18 C    1.540    16 N    1.264
    18   6 C    3.848 --    17 N    1.540    20 O    1.088    19 C    1.041
    19   6 C    3.977 --    18 C    1.041    40 H    0.979    41 H    0.954
                            42 H    0.953
    20   8 O    2.344 --    18 C    1.088    15 C    1.058
    21   7 N    3.498 --     7 C    1.173    23 C    1.101    22 C    0.929
                            24 O    0.136
    22   6 C    3.920 --    43 H    0.979    44 H    0.973    45 H    0.973
                            21 N    0.929
    23   6 C    3.910 --    24 O    1.599    21 N    1.101    25 C    1.063
    24   8 O    1.911 --    23 C    1.599    21 N    0.136
    25   6 C    3.921 --     5 C    1.491    26 O    1.118    23 C    1.063
    26   8 O    2.098 --    25 C    1.118    46 H    0.797
    27   1 H    1.008 --     1 C    0.986
    28   1 H    1.005 --     1 C    0.980
    29   1 H    1.006 --     1 C    0.980
    30   1 H    1.003 --     9 C    0.979
    31   1 H    0.999 --     9 C    0.980
    32   1 H    0.998 --     9 C    0.981
    33   1 H    1.006 --    10 C    0.983
    34   1 H    1.006 --    10 C    0.979
    35   1 H    1.001 --    10 C    0.983
    36   1 H    0.936 --    11 N    0.874
    37   1 H    1.001 --    14 C    0.974
    38   1 H    1.001 --    14 C    0.980
    39   1 H    1.001 --    14 C    0.974
    40   1 H    0.994 --    19 C    0.979
    41   1 H    0.991 --    19 C    0.954
    42   1 H    0.991 --    19 C    0.953
    43   1 H    1.004 --    22 C    0.979
    44   1 H    0.999 --    22 C    0.973
    45   1 H    1.004 --    22 C    0.973
    46   1 H    0.848 --    26 O    0.797
 ---------------------------------------------------------------------------

           -------------------------------------------------
          | TOTAL ENERGY              -86.349859540706 Eh   |
          | GRADIENT NORM               0.000423242599 Eh/α |
          | HOMO-LUMO GAP               1.676464806267 eV   |
           -------------------------------------------------

 * finished run on 2023/06/20 at 15:36:58.561
