   * xtb version 6.5.1 (579679a) compiled by 'ehlert@majestix' on 2022-07-11
          program call               : /lustre/hpc/kemi/ree/PhD/git/ReactivityQM/dep/xtb-6.5.1/bin/xtb --gfn 1 /lustre/hpc/kemi/ree/PhD/git/ReactivityQM/calculations/R02oxygendeprot/reac01prodE06/conf20/R02oxygendeprot_reac01prodE06_conf20_gfn1.xyz --opt --vfukui --chrg -2 --uhf 0 --alpb DMSO

   ID    Z sym.   atoms
    1    6 C      1, 3, 5, 6, 8, 11-15, 17, 19, 22, 23
    2    8 O      2, 4, 7, 9, 18, 24
    3    7 N      10, 16, 20, 21, 25
    4    1 H      26-42

      * Solvation model:               ALPB
        Solvent                        DMSO
        Solvent mass                       7.8130E+01 g/mol
          :  Hamiltonian                  GFN1-xTB          :
 * total energy  :   -83.6047079 Eh     change       -0.5261427E-09 Eh
 * total energy  :   -83.6156144 Eh     change       -0.1090646E-01 Eh
 * total energy  :   -83.6191088 Eh     change       -0.3494425E-02 Eh
 * total energy  :   -83.6197026 Eh     change       -0.5938225E-03 Eh
 * total energy  :   -83.6202222 Eh     change       -0.5196347E-03 Eh
 * total energy  :   -83.6206195 Eh     change       -0.3972437E-03 Eh
 * total energy  :   -83.6210414 Eh     change       -0.4218887E-03 Eh
 * total energy  :   -83.6214397 Eh     change       -0.3983522E-03 Eh
 * total energy  :   -83.6216818 Eh     change       -0.2420993E-03 Eh
 * total energy  :   -83.6218042 Eh     change       -0.1223986E-03 Eh
 * total energy  :   -83.6224954 Eh     change       -0.1379675E-04 Eh
 * total energy  :   -83.6225073 Eh     change       -0.1193915E-04 Eh
 * total energy  :   -83.6225128 Eh     change       -0.5482535E-05 Eh
 * total energy  :   -83.6225182 Eh     change       -0.5402226E-05 Eh
 * total energy  :   -83.6225247 Eh     change       -0.6526587E-05 Eh
 * total energy  :   -83.6225334 Eh     change       -0.8722417E-05 Eh
 * total energy  :   -83.6225390 Eh     change       -0.5567262E-05 Eh
 * total energy  :   -83.6225430 Eh     change       -0.4028058E-05 Eh
 * total energy  :   -83.6225466 Eh     change       -0.3609236E-05 Eh
   *** GEOMETRY OPTIMIZATION CONVERGED AFTER 40 ITERATIONS ***

 final structure:
================
42
 xtb: 6.5.1 (579679a)
C           -3.91646481877746        3.51710767248081       -0.22918947301412
O           -3.33170524806314        2.38003902377698       -0.83431004456355
C           -2.58773289734800        1.58288652660947        0.00000656849426
O           -2.47257357569700        1.89953441758268        1.18709428758401
C           -1.98288336816920        0.41657707647659       -0.62302316322492
C           -2.15571849069487        0.10192653537482       -2.00342489691642
O           -2.95981982658694        0.66800398495176       -2.80528501928076
C           -1.24275304144858       -0.96071329954452       -2.52984631835250
O           -1.09183883173819       -1.21687203408304       -3.73409447730434
N           -0.45589773339989       -1.60736631636817       -1.60842344857128
C           -0.79933898424485       -1.60597479657605       -0.18923538135654
C           -1.94334477082228       -2.62967119702017        0.03883479595555
C            0.48264646434257       -1.95342608600740        0.64249090806630
C            1.14302429857349       -3.27352065145615        0.23386327599035
C            0.13374246701297       -1.97749769678097        2.13922728108952
N            1.38619998500392       -0.83645822305391        0.36424532333914
C            2.61334613890984       -0.69143568749766        0.94159045319649
O            3.19088419004555       -1.57798733836633        1.59889217955652
C            3.24117645070464        0.59244065063765        0.67796547634445
N            4.42081248626399        1.00853723525511        1.10991833556895
N            4.58274771277028        2.28161694729455        0.63793866621527
C            3.52053520024701        2.57635386001464       -0.04024428779433
C            3.24019545469827        3.84948605489057       -0.74747167495921
O            2.62256818195709        1.56743955961030       -0.06517824519965
N           -1.20348282225344       -0.30272349708266        0.24241063095167
H           -4.46140623762326        4.05489091695246       -1.00564528496428
H           -3.15168619241523        4.17441842744053        0.20055541103597
H           -4.61076659663739        3.22663479983718        0.56768629243539
H            0.01231385764912       -2.42797893280756       -1.95842818461523
H           -2.78435585873261       -2.36401419799364       -0.60166860017196
H           -2.27503803374214       -2.59880627679094        1.07417827552568
H           -1.62450545489275       -3.63977221082015       -0.20858433864544
H            1.52940555752007       -3.21860828273975       -0.78305577718327
H            1.97402490209667       -3.50025938464785        0.90100839233767
H            0.42694396476426       -4.09074636290366        0.29501840044822
H            1.04239491509923       -2.00152176018910        2.73954860423470
H           -0.44231396277158       -1.08672952700171        2.39529010540171
H           -0.45366977805356       -2.86296142036331        2.37599146716691
H            0.87583733336582        0.01529896068941        0.12086968891935
H            3.01417205630856        3.65931108316580       -1.79664155263653
H            2.38390555085775        4.35551264823103       -0.30098517709010
H            4.11042035592442        4.49702879881766       -0.67784347402444

          :  Hamiltonian                  GFN1-xTB          :
         :: total energy             -83.622546637994 Eh    ::
         :: gradient norm              0.000630526082 Eh/a0 ::
         :: HOMO-LUMO gap              0.103911106973 eV    ::
         :: SCC energy               -84.342833546413 Eh    ::
         :: -> Gsolv                  -0.269710763714 Eh    ::
         :: repulsion energy           0.747635408955 Eh    ::

    * Orbital Energies and Occupations

         #    Occupation            Energy/Eh            Energy/eV
      -------------------------------------------------------------
         1        2.0000           -0.8186175             -22.2757
       ...           ...                  ...                  ...
        56        2.0000           -0.4413888             -12.0108
        57        2.0000           -0.4372191             -11.8973
        58        2.0000           -0.4197938             -11.4232
        59        2.0000           -0.4165204             -11.3341
        60        2.0000           -0.4131989             -11.2437
        61        2.0000           -0.4079221             -11.1001
        62        2.0000           -0.4026248             -10.9560
        63        2.0000           -0.3965700             -10.7912
        64        2.0000           -0.3905797             -10.6282
        65        2.0000           -0.3787438             -10.3061
        66        2.0000           -0.3632182              -9.8837
        67        2.0000           -0.3344620              -9.1012
        68        1.7636           -0.2758266              -7.5056 (HOMO)
        69        0.2364           -0.2720079              -7.4017 (LUMO)
        70                         -0.2364913              -6.4353
        71                         -0.2221091              -6.0439
        72                         -0.1641270              -4.4661
        73                         -0.1519593              -4.1350
        74                         -0.1288900              -3.5073
        75                         -0.1104304              -3.0050
        76                         -0.1068352              -2.9071
        77                         -0.0996489              -2.7116
        78                         -0.0866109              -2.3568
        79                         -0.0824273              -2.2430
       ...                                ...                  ...
       134                          0.7403438              20.1458
      -------------------------------------------------------------
                  HL-Gap            0.0038187 Eh            0.1039 eV

Wiberg/Mayer (AO) data.
largest (>0.10) Wiberg bond orders for each atom

     #   Z sym  total        # sym  WBO       # sym  WBO       # sym  WBO
 ---------------------------------------------------------------------------
     1   6 C    3.912 --    26 H    0.987    28 H    0.980    27 H    0.980
                             2 O    0.940
     2   8 O    2.132 --     3 C    1.011     1 C    0.940     4 O    0.100
     3   6 C    3.816 --     4 O    1.544     5 C    1.122     2 O    1.011
     4   8 O    1.814 --     3 C    1.544     2 O    0.100
     5   6 C    3.912 --    25 N    1.253     6 C    1.239     3 C    1.122
     6   6 C    3.874 --     7 O    1.418     5 C    1.239     8 C    1.000
     7   8 O    1.665 --     6 C    1.418
     8   6 C    3.861 --     9 O    1.530    10 N    1.169     6 C    1.000
     9   8 O    1.793 --     8 C    1.530    10 N    0.131
    10   7 N    3.256 --     8 C    1.169    11 C    0.924    29 H    0.916
                             9 O    0.131
    11   6 C    3.941 --    25 N    1.025    12 C    0.964    13 C    0.947
                            10 N    0.924
    12   6 C    3.976 --    30 H    0.984    31 H    0.984    32 H    0.984
                            11 C    0.964
    13   6 C    3.938 --    14 C    1.000    15 C    0.991    11 C    0.947
                            16 N    0.937
    14   6 C    3.994 --    13 C    1.000    35 H    0.984    33 H    0.982
                            34 H    0.979
    15   6 C    3.993 --    13 C    0.991    38 H    0.985    36 H    0.983
                            37 H    0.981
    16   7 N    3.269 --    17 C    1.196    13 C    0.937    39 H    0.887
                            18 O    0.142
    17   6 C    3.841 --    18 O    1.465    16 N    1.196    19 C    1.080
    18   8 O    1.751 --    17 C    1.465    16 N    0.142
    19   6 C    3.750 --    20 N    1.478    17 C    1.080    24 O    0.996
    20   7 N    2.809 --    19 C    1.478    21 N    1.188
    21   7 N    2.980 --    22 C    1.625    20 N    1.188
    22   6 C    3.831 --    21 N    1.625    24 O    1.056    23 C    1.026
    23   6 C    3.993 --    22 C    1.026    42 H    0.985    40 H    0.971
                            41 H    0.968
    24   8 O    2.234 --    22 C    1.056    19 C    0.996
    25   7 N    2.681 --     5 C    1.253    11 C    1.025
    26   1 H    1.018 --     1 C    0.987
    27   1 H    1.018 --     1 C    0.980
    28   1 H    1.018 --     1 C    0.980
    29   1 H    0.968 --    10 N    0.916
    30   1 H    1.011 --    12 C    0.984
    31   1 H    1.013 --    12 C    0.984
    32   1 H    1.007 --    12 C    0.984
    33   1 H    1.008 --    14 C    0.982
    34   1 H    1.021 --    14 C    0.979
    35   1 H    1.007 --    14 C    0.984
    36   1 H    1.014 --    15 C    0.983
    37   1 H    1.029 --    15 C    0.981
    38   1 H    1.007 --    15 C    0.985
    39   1 H    0.982 --    16 N    0.887
    40   1 H    1.000 --    23 C    0.971
    41   1 H    0.999 --    23 C    0.968
    42   1 H    1.003 --    23 C    0.985
 ---------------------------------------------------------------------------

           -------------------------------------------------
          | TOTAL ENERGY              -83.622546637994 Eh   |
          | GRADIENT NORM               0.000630526082 Eh/α |
          | HOMO-LUMO GAP               0.103911106973 eV   |
           -------------------------------------------------

 * finished run on 2023/06/21 at 17:07:45.115
