                         Program Version 5.0.1 -  RELEASE  -
|  1> # ORCA input file
|  2> ! SP r2SCAN-3c CPCM
|  3>
|  4> %maxcore 1875.0
|  5> %pal nprocs 4 end
|  6> %cpcm smd true SMDsolvent "DMSO" end
|  7>
|  8> *xyz 1 1
|  9> C      -3.328970    1.504585   -0.543981
| 10> O      -2.857311    0.148061   -0.385716
| 11> C      -1.623943   -0.133556   -0.307846
| 12> C      -1.234986   -1.542938   -0.151574
| 13> O      -0.783437    0.859923   -0.375435
| 14> C       0.566963    0.811167   -0.324126
| 15> N       1.330591    1.842691   -0.410279
| 16> N       2.601824    1.360492   -0.315554
| 17> C       2.522702    0.075750   -0.178717
| 18> C       3.617754   -0.903190   -0.040347
| 19> O       1.230717   -0.342594   -0.176485
| 20> H      -2.910992    1.922624   -1.459063
| 21> H      -4.412925    1.433537   -0.598270
| 22> H      -3.011669    2.092948    0.317207
| 23> H      -0.643340   -1.661034    0.757810
| 24> H      -2.123637   -2.168958   -0.112769
| 25> H      -0.596746   -1.838025   -0.986598
| 26> H       3.567264   -1.630391   -0.850790
| 27> H       4.575037   -0.387393   -0.067078
| 28> H       3.515106   -1.443700    0.900575
| 29> **                         ****END OF INPUT****

CARTESIAN COORDINATES (ANGSTROEM)
---------------------------------
  C     -3.328970    1.504585   -0.543981
  O     -2.857311    0.148061   -0.385716
  C     -1.623943   -0.133556   -0.307846
  C     -1.234986   -1.542938   -0.151574
  O     -0.783437    0.859923   -0.375435
  C      0.566963    0.811167   -0.324126
  N      1.330591    1.842691   -0.410279
  N      2.601824    1.360492   -0.315554
  C      2.522702    0.075750   -0.178717
  C      3.617754   -0.903190   -0.040347
  O      1.230717   -0.342594   -0.176485
  H     -2.910992    1.922624   -1.459063
  H     -4.412925    1.433537   -0.598270
  H     -3.011669    2.092948    0.317207
  H     -0.643340   -1.661034    0.757810
  H     -2.123637   -2.168958   -0.112769
  H     -0.596746   -1.838025   -0.986598
  H      3.567264   -1.630391   -0.850790
  H      4.575037   -0.387393   -0.067078
  H      3.515106   -1.443700    0.900575

 Total Charge           Charge          ....    1
 Multiplicity           Mult            ....    1
 Number of Electrons    NEL             ....   82
 Basis Dimension        Dim             ....  279

ORBITAL ENERGIES
----------------

  NO   OCC          E(Eh)            E(eV)
   0   2.0000     -19.128096      -520.5020
   1   2.0000     -19.096147      -519.6326
   2   2.0000     -19.092547      -519.5346
   3   2.0000     -14.227931      -387.1617
   4   2.0000     -14.215395      -386.8206
   5   2.0000     -10.276056      -279.6257
   6   2.0000     -10.235288      -278.5164
   7   2.0000     -10.165278      -276.6113
   8   2.0000     -10.115780      -275.2644
   9   2.0000     -10.078356      -274.2460
  10   2.0000     -10.052813      -273.5509
  11   2.0000      -1.220138       -33.2017
  12   2.0000      -1.178550       -32.0700
  13   2.0000      -1.129057       -30.7232
  14   2.0000      -1.003085       -27.2953
  15   2.0000      -0.862910       -23.4810
  16   2.0000      -0.811271       -22.0758
  17   2.0000      -0.750468       -20.4213
  18   2.0000      -0.731734       -19.9115
  19   2.0000      -0.714707       -19.4482
  20   2.0000      -0.651233       -17.7209
  21   2.0000      -0.603208       -16.4141
  22   2.0000      -0.573840       -15.6150
  23   2.0000      -0.560535       -15.2529
  24   2.0000      -0.538983       -14.6665
  25   2.0000      -0.513291       -13.9673
  26   2.0000      -0.497374       -13.5342
  27   2.0000      -0.464270       -12.6334
  28   2.0000      -0.457085       -12.4379
  29   2.0000      -0.433255       -11.7895
  30   2.0000      -0.422431       -11.4949
  31   2.0000      -0.420091       -11.4313
  32   2.0000      -0.400931       -10.9099
  33   2.0000      -0.396877       -10.7996
  34   2.0000      -0.389183       -10.5902
  35   2.0000      -0.376928       -10.2567
  36   2.0000      -0.365083        -9.9344
  37   2.0000      -0.363875        -9.9015
  38   2.0000      -0.336790        -9.1645
  39   2.0000      -0.285222        -7.7613
  40   2.0000      -0.275411        -7.4943
  41   0.0000      -0.132689        -3.6106
  42   0.0000      -0.054234        -1.4758
  43   0.0000      -0.021601        -0.5878
  44   0.0000       0.006648         0.1809
  45   0.0000       0.037247         1.0136

MULLIKEN ATOMIC CHARGES
-----------------------
   0 C :   -0.297837
   1 O :   -0.114006
   2 C :    0.508481
   3 C :   -0.498532
   4 O :   -0.045642
   5 C :    0.180376
   6 N :   -0.203249
   7 N :   -0.219744
   8 C :    0.366915
   9 C :   -0.626913
  10 O :   -0.022389
  11 H :    0.210335
  12 H :    0.212110
  13 H :    0.211898
  14 H :    0.241719
  15 H :    0.229194
  16 H :    0.243280
  17 H :    0.206693
  18 H :    0.210785
  19 H :    0.206525
Sum of atomic charges:    1.0000000

LOEWDIN ATOMIC CHARGES
----------------------
   0 C :    0.011169
   1 O :   -0.459454
   2 C :    0.510270
   3 C :   -0.270489
   4 O :   -0.310954
   5 C :    0.537944
   6 N :   -0.278197
   7 N :   -0.335302
   8 C :    0.392741
   9 C :   -0.310599
  10 O :   -0.352554
  11 H :    0.204816
  12 H :    0.208189
  13 H :    0.205358
  14 H :    0.224765
  15 H :    0.209020
  16 H :    0.225284
  17 H :    0.195918
  18 H :    0.196323
  19 H :    0.195753

  Mayer bond orders larger than 0.100000
B(  0-C ,  1-O ) :   0.7915 B(  0-C , 11-H ) :   0.9331 B(  0-C , 12-H ) :   0.9437
B(  0-C , 13-H ) :   0.9324 B(  1-O ,  2-C ) :   1.4276 B(  2-C ,  3-C ) :   1.0135
B(  2-C ,  4-O ) :   1.1365 B(  3-C , 14-H ) :   0.8987 B(  3-C , 15-H ) :   0.9299
B(  3-C , 16-H ) :   0.8975 B(  4-O ,  5-C ) :   1.1394 B(  5-C ,  6-N ) :   1.7453
B(  5-C , 10-O ) :   1.1280 B(  6-N ,  7-N ) :   1.1675 B(  7-N ,  8-C ) :   1.6522
B(  8-C ,  9-C ) :   0.8642 B(  8-C , 10-O ) :   1.0440 B(  9-C , 17-H ) :   0.9367
B(  9-C , 18-H ) :   0.9750 B(  9-C , 19-H ) :   0.9366

Dispersion correction           -0.005817106
FINAL SINGLE POINT ENERGY      -568.893197856090

DIPOLE MOMENT
-------------
                                X             Y             Z
Electronic contribution:      0.24152       3.81692      -0.35770
Nuclear contribution   :     -3.04942      -6.10474       0.49313
                        -----------------------------------------
Total Dipole Moment    :     -2.80790      -2.28782       0.13543
                        -----------------------------------------
Magnitude (a.u.)       :      3.62447
Magnitude (Debye)      :      9.21267

Rotational constants in cm-1:     0.095801     0.021083     0.017449
Rotational constants in MHz :  2872.039664   632.053840   523.116947

                             ****ORCA TERMINATED NORMALLY****
TOTAL RUN TIME: 0 days 0 hours 0 minutes 33 seconds 337 msec
