   * xtb version 6.5.1 (579679a) compiled by 'ehlert@majestix' on 2022-07-11
          program call               : /lustre/hpc/kemi/ree/PhD/git/ReactivityQM/dep/xtb-6.5.1/bin/xtb --gfn 1 /lustre/hpc/kemi/ree/PhD/git/ReactivityQM/calculations/R01/reac01prodN05/conf12/R01_reac01prodN05_conf12_gfn1.xyz --opt --vfukui --chrg 1 --uhf 0 --alpb DMSO

   ID    Z sym.   atoms
    1    6 C      1, 3, 4, 6, 9, 10
    2    8 O      2, 5, 11
    3    7 N      7, 8
    4    1 H      12-20

      * Solvation model:               ALPB
        Solvent                        DMSO
        Solvent mass                       7.8130E+01 g/mol
          :  Hamiltonian                  GFN1-xTB          :
 * total energy  :   -37.4544584 Eh     change       -0.1452776E-09 Eh
 * total energy  :   -37.4693305 Eh     change       -0.1487215E-01 Eh
 * total energy  :   -37.4797708 Eh     change       -0.1044024E-01 Eh
 * total energy  :   -37.4837655 Eh     change       -0.3994711E-02 Eh
 * total energy  :   -37.4937719 Eh     change       -0.1000644E-01 Eh
 * total energy  :   -37.4941985 Eh     change       -0.4265874E-03 Eh
 * total energy  :   -37.5110902 Eh     change       -0.1689170E-01 Eh
 * total energy  :   -37.5274549 Eh     change       -0.1636474E-01 Eh
 * total energy  :   -37.5640919 Eh     change       -0.3663691E-01 Eh
 * total energy  :   -37.5792442 Eh     change       -0.1515237E-01 Eh
 * total energy  :   -37.6286725 Eh     change       -0.1369661E-04 Eh
 * total energy  :   -37.6286811 Eh     change       -0.8606655E-05 Eh
 * total energy  :   -37.6286968 Eh     change       -0.1567572E-04 Eh
 * total energy  :   -37.6287185 Eh     change       -0.2170961E-04 Eh
 * total energy  :   -37.6287337 Eh     change       -0.1519724E-04 Eh
 * total energy  :   -37.6287418 Eh     change       -0.8097882E-05 Eh
 * total energy  :   -37.6287472 Eh     change       -0.5369523E-05 Eh
 * total energy  :   -37.6287521 Eh     change       -0.4904052E-05 Eh
 * total energy  :   -37.6287545 Eh     change       -0.2440011E-05 Eh
   *** GEOMETRY OPTIMIZATION CONVERGED AFTER 65 ITERATIONS ***

 final structure:
================
20
 xtb: 6.5.1 (579679a)
C           -3.32897019258997        1.50458454223579       -0.54398055429235
O           -2.85731093794873        0.14806102740603       -0.38571575651452
C           -1.62394335116989       -0.13355605698453       -0.30784646151456
C           -1.23498634172839       -1.54293761583963       -0.15157375923499
O           -0.78343684269561        0.85992289788318       -0.37543470858920
C            0.56696270339108        0.81116720303223       -0.32412637498657
N            1.33059084826534        1.84269053330805       -0.41027902734448
N            2.60182438790794        1.36049183841960       -0.31555403186051
C            2.52270199844486        0.07575007601541       -0.17871688820997
C            3.61775385754726       -0.90319029403078       -0.04034734271409
O            1.23071672886225       -0.34259432974637       -0.17648490632434
H           -2.91099235038104        1.92262416860463       -1.45906337083892
H           -4.41292465723421        1.43353726618700       -0.59827031725126
H           -3.01166907335154        2.09294838341453        0.31720694413393
H           -0.64334034077412       -1.66103364553629        0.75780955280684
H           -2.12363706579785       -2.16895758724361       -0.11276886328307
H           -0.59674568102022       -1.83802482655245       -0.98659757053714
H            3.56726353502399       -1.63039138580017       -0.85079035962876
H            4.57503718917113       -0.38739348175917       -0.06707798206334
H            3.51510558607846       -1.44369971301391        0.90057477824761

          :  Hamiltonian                  GFN1-xTB          :
         :: total energy             -37.628754495248 Eh    ::
         :: gradient norm              0.000719128595 Eh/a0 ::
         :: HOMO-LUMO gap              2.884288072569 eV    ::
         :: SCC energy               -37.975376026477 Eh    ::
         :: -> Gsolv                  -0.084000243097 Eh    ::
         :: repulsion energy           0.354637379373 Eh    ::

    * Orbital Energies and Occupations

         #    Occupation            Energy/Eh            Energy/eV
      -------------------------------------------------------------
         1        2.0000           -0.9498234             -25.8460
       ...           ...                  ...                  ...
        18        2.0000           -0.6239553             -16.9787
        19        2.0000           -0.5972470             -16.2519
        20        2.0000           -0.5938545             -16.1596
        21        2.0000           -0.5801554             -15.7868
        22        2.0000           -0.5685285             -15.4704
        23        2.0000           -0.5650415             -15.3756
        24        2.0000           -0.5614457             -15.2777
        25        2.0000           -0.5574135             -15.1680
        26        2.0000           -0.5505267             -14.9806
        27        2.0000           -0.5410112             -14.7217
        28        2.0000           -0.5164175             -14.0524
        29        2.0000           -0.4914968             -13.3743
        30        2.0000           -0.4847883             -13.1918 (HOMO)
        31                         -0.3787926             -10.3075 (LUMO)
        32                         -0.2949498              -8.0260
        33                         -0.2790310              -7.5928
        34                         -0.1798435              -4.8938
        35                         -0.1662950              -4.5251
        36                         -0.1544174              -4.2019
        37                         -0.1111377              -3.0242
        38                         -0.1087630              -2.9596
        39                         -0.1045800              -2.8458
        40                         -0.1036264              -2.8198
        41                         -0.0855839              -2.3289
       ...                                ...                  ...
        62                          0.5653380              15.3836
      -------------------------------------------------------------
                  HL-Gap            0.1059956 Eh            2.8843 eV

Wiberg/Mayer (AO) data.
largest (>0.10) Wiberg bond orders for each atom

     #   Z sym  total        # sym  WBO       # sym  WBO       # sym  WBO
 ---------------------------------------------------------------------------
     1   6 C    3.802 --    13 H    0.980    12 H    0.970    14 H    0.969
                             2 O    0.833
     2   8 O    2.349 --     3 C    1.343     1 C    0.833
     3   6 C    3.764 --     2 O    1.343     5 O    1.181     4 C    1.048
     4   6 C    3.958 --     3 C    1.048    16 H    0.972    15 H    0.928
                            17 H    0.927
     5   8 O    2.362 --     3 C    1.181     6 C    0.966
     6   6 C    3.814 --     7 N    1.608    11 O    1.063     5 O    0.966
     7   7 N    3.007 --     6 C    1.608     8 N    1.181
     8   7 N    2.983 --     9 C    1.629     7 N    1.181
     9   6 C    3.839 --     8 N    1.629    10 C    1.038    11 O    1.026
    10   6 C    3.978 --     9 C    1.038    19 H    0.979    20 H    0.957
                            18 H    0.957
    11   8 O    2.308 --     6 C    1.063     9 C    1.026
    12   1 H    0.994 --     1 C    0.970
    13   1 H    0.998 --     1 C    0.980
    14   1 H    0.994 --     1 C    0.969
    15   1 H    0.987 --     4 C    0.928
    16   1 H    0.986 --     4 C    0.972
    17   1 H    0.987 --     4 C    0.927
    18   1 H    0.992 --    10 C    0.957
    19   1 H    0.994 --    10 C    0.979
    20   1 H    0.992 --    10 C    0.957
 ---------------------------------------------------------------------------

           -------------------------------------------------
          | TOTAL ENERGY              -37.628754495248 Eh   |
          | GRADIENT NORM               0.000719128595 Eh/α |
          | HOMO-LUMO GAP               2.884288072569 eV   |
           -------------------------------------------------

 * finished run on 2023/06/20 at 14:56:02.817
