   * xtb version 6.5.1 (579679a) compiled by 'ehlert@majestix' on 2022-07-11
          program call               : /lustre/hpc/kemi/ree/PhD/git/ReactivityQM/dep/xtb-6.5.1/bin/xtb --gfn 1 /lustre/hpc/kemi/ree/PhD/git/ReactivityQM/calculations/RaltegravirCLI/reac02prodN09/conf10/RaltegravirCLI_reac02prodN09_conf10_gfn1.xyz --opt --vfukui --chrg 1 --uhf 0 --alpb DMSO

   ID    Z sym.   atoms
    1    6 C      1-4, 6-9, 11, 13, 15-18, 21, 22, 24
    2    9 F      5
    3    7 N      10, 14, 19, 20
    4    8 O      12, 23, 25
    5    1 H      26-47

      * Solvation model:               ALPB
        Solvent                        DMSO
        Solvent mass                       7.8130E+01 g/mol
          :  Hamiltonian                  GFN1-xTB          :
 * total energy  :   -79.4672157 Eh     change       -0.5878604E-09 Eh
 * total energy  :   -79.4762000 Eh     change       -0.8984343E-02 Eh
 * total energy  :   -79.4788638 Eh     change       -0.2663795E-02 Eh
 * total energy  :   -79.4794249 Eh     change       -0.5610737E-03 Eh
 * total energy  :   -79.4798522 Eh     change       -0.4272948E-03 Eh
 * total energy  :   -79.4800232 Eh     change       -0.1710178E-03 Eh
 * total energy  :   -79.4801440 Eh     change       -0.1208034E-03 Eh
 * total energy  :   -79.4802221 Eh     change       -0.7808633E-04 Eh
 * total energy  :   -79.4802785 Eh     change       -0.5635509E-04 Eh
 * total energy  :   -79.4803374 Eh     change       -0.5894993E-04 Eh
 * total energy  :   -79.4819404 Eh     change       -0.1681854E-04 Eh
 * total energy  :   -79.4819534 Eh     change       -0.1298326E-04 Eh
 * total energy  :   -79.4819667 Eh     change       -0.1335606E-04 Eh
 * total energy  :   -79.4819772 Eh     change       -0.1045331E-04 Eh
 * total energy  :   -79.4819866 Eh     change       -0.9401875E-05 Eh
 * total energy  :   -79.4819945 Eh     change       -0.7902566E-05 Eh
 * total energy  :   -79.4820023 Eh     change       -0.7824260E-05 Eh
 * total energy  :   -79.4820084 Eh     change       -0.6110659E-05 Eh
 * total energy  :   -79.4820117 Eh     change       -0.3259784E-05 Eh
   *** GEOMETRY OPTIMIZATION CONVERGED AFTER 61 ITERATIONS ***

 final structure:
================
47
 xtb: 6.5.1 (579679a)
C            3.89772638543737        0.99914443427660       -1.53499216883835
C            4.47483161382775       -0.20628915821191       -0.75616285030854
C            5.22247308956770        0.20451698986068        0.44621126382162
C            5.11194959533048       -0.50501582312951        1.60165011081482
F            5.80848526457704       -0.13435107750243        2.66862616178516
C            4.26490092859022       -1.61581230843498        1.72329428367156
C            3.50040363502228       -2.01852945660932        0.63557881651460
C            3.55039641245039       -1.34514024957621       -0.57199231353223
C            2.62948864749321       -1.75014363971279       -1.68861733886967
N            1.45705054879248       -0.89026038378535       -1.60245718375284
C            0.54456400699383       -1.09076924571770       -0.61648872181214
O            0.61506943809098       -2.03726413806932        0.15011315717876
C           -0.55522956392393       -0.08062950195043       -0.55960870790777
N           -1.68702099627415       -0.50479031929462        0.07032823945025
C           -2.71726020151495        0.26998633973473        0.21753422539347
C           -3.89706026936132       -0.33609554935913        0.96741846761220
C           -3.81571390265725        0.08917618042077        2.44124835718581
C           -3.81707625685603       -1.87024637658576        0.87538482779451
N           -5.15759961054962        0.11665511143886        0.39811348402756
N           -2.71473375820201        1.56977192740085       -0.22108003055878
C           -3.85692116770204        2.47713093008592       -0.06938910086616
C           -1.61550532906605        2.09981730747436       -0.87012597925423
O           -1.57321915712831        3.25288143263098       -1.29004055969763
C           -0.48947342940968        1.19788691824069       -1.02881584166073
O            0.58778389115034        1.72955940728726       -1.64385723388820
H            3.62978786543804        0.70110892210386       -2.54505389972964
H            3.01248241242057        1.36884285298948       -1.02195700975078
H            4.64501847240522        1.78805103748802       -1.58726685174845
H            5.25563453165883       -0.60780863882629       -1.43398038542602
H            5.87372646590378        1.06705088740628        0.37798169765780
H            4.20755822829838       -2.13950477643384        2.67041100629909
H            2.82725471649288       -2.86164338480575        0.74424279313787
H            3.08616137051399       -1.60480584994362       -2.66671063147317
H            2.31471343242935       -2.79019646466752       -1.56764995101253
H            1.43278171625455       -0.06919643821798       -2.18266574443950
H           -2.85637937958875       -0.21243228109942        2.86014881809033
H           -3.91994465389578        1.16768840031699        2.54456327210038
H           -4.61395278653007       -0.39297188337199        3.00369134501518
H           -2.90594596516535       -2.23086977723418        1.35083288974088
H           -4.67951052498466       -2.30620238057553        1.37623528875817
H           -3.81647054745244       -2.18263870896463       -0.16766990872985
H           -5.92278714223946       -0.13584116290067        1.00696716469167
H           -5.30876441984278       -0.31349703415170       -0.50391495204139
H           -3.49955147225679        3.49649624773383       -0.21232071575070
H           -4.60938385960574        2.24285229419510       -0.82050122992876
H           -4.28993800984348        2.37351146847806        0.92026876758869
H            0.36920273490237        2.65222791956909       -1.88752412734269

          :  Hamiltonian                  GFN1-xTB          :
         :: total energy             -79.482011659364 Eh    ::
         :: gradient norm              0.000311661109 Eh/a0 ::
         :: HOMO-LUMO gap              0.179307646447 eV    ::
         :: SCC energy               -80.363289357719 Eh    ::
         :: -> Gsolv                  -0.103463636127 Eh    ::
         :: repulsion energy           0.912484529138 Eh    ::

    * Orbital Energies and Occupations

         #    Occupation            Energy/Eh            Energy/eV
      -------------------------------------------------------------
         1        2.0000           -0.9144044             -24.8822
       ...           ...                  ...                  ...
        55        2.0000           -0.5202820             -14.1576
        56        2.0000           -0.5165190             -14.0552
        57        2.0000           -0.5093408             -13.8599
        58        2.0000           -0.5022198             -13.6661
        59        2.0000           -0.5016503             -13.6506
        60        2.0000           -0.4937800             -13.4364
        61        2.0000           -0.4833263             -13.1520
        62        2.0000           -0.4767920             -12.9742
        63        2.0000           -0.4669745             -12.7070
        64        2.0000           -0.4611438             -12.5484
        65        2.0000           -0.4479895             -12.1904
        66        2.0000           -0.4325744             -11.7709
        67        1.9395           -0.4223406             -11.4925 (HOMO)
        68        0.0605           -0.4157512             -11.3132 (LUMO)
        69                         -0.3261580              -8.8752
        70                         -0.3229647              -8.7883
        71                         -0.2854144              -7.7665
        72                         -0.2466101              -6.7106
        73                         -0.2395043              -6.5172
        74                         -0.1650102              -4.4902
        75                         -0.1598129              -4.3487
        76                         -0.1507431              -4.1019
        77                         -0.1441312              -3.9220
        78                         -0.1372778              -3.7355
       ...                                ...                  ...
       144                          0.7049147              19.1817
      -------------------------------------------------------------
                  HL-Gap            0.0065894 Eh            0.1793 eV

Wiberg/Mayer (AO) data.
largest (>0.10) Wiberg bond orders for each atom

     #   Z sym  total        # sym  WBO       # sym  WBO       # sym  WBO
 ---------------------------------------------------------------------------
     1   6 C    3.965 --    26 H    0.981    28 H    0.980    27 H    0.977
                             2 C    0.927
     2   6 C    3.986 --     3 C    1.084     8 C    1.081     1 C    0.927
                            29 H    0.822
     3   6 C    3.934 --     4 C    1.536     2 C    1.084    30 H    0.959
     4   6 C    3.882 --     3 C    1.536     6 C    1.290     5 F    0.964
     5   9 F    1.106 --     4 C    0.964
     6   6 C    3.917 --     7 C    1.422     4 C    1.290    31 H    0.961
     7   6 C    3.981 --     8 C    1.470     6 C    1.422    32 H    0.955
     8   6 C    3.903 --     7 C    1.470     2 C    1.081     9 C    1.012
     9   6 C    3.948 --     8 C    1.012    33 H    0.967    34 H    0.966
                            10 N    0.936
    10   7 N    3.329 --    11 C    1.216     9 C    0.936    35 H    0.881
                            12 O    0.155
    11   6 C    3.896 --    12 O    1.602    10 N    1.216    13 C    0.992
    12   8 O    1.909 --    11 C    1.602    10 N    0.155
    13   6 C    3.962 --    24 C    1.502    14 N    1.202    11 C    0.992
    14   7 N    3.027 --    15 C    1.555    13 C    1.202
    15   6 C    3.917 --    14 N    1.555    20 N    1.179    16 C    0.976
    16   6 C    3.958 --    19 N    0.985    18 C    0.983    17 C    0.980
                            15 C    0.976
    17   6 C    3.992 --    36 H    0.985    38 H    0.982    16 C    0.980
                            37 H    0.979
    18   6 C    3.983 --    40 H    0.985    41 H    0.985    16 C    0.983
                            39 H    0.982
    19   7 N    2.953 --    16 C    0.985    43 H    0.935    42 H    0.932
    20   7 N    3.518 --    15 C    1.179    22 C    1.136    21 C    0.924
                            23 O    0.133
    21   6 C    3.915 --    46 H    0.977    44 H    0.975    45 H    0.975
                            20 N    0.924
    22   6 C    3.916 --    23 O    1.547    20 N    1.136    24 C    1.086
    23   8 O    1.895 --    22 C    1.547    20 N    0.133
    24   6 C    3.910 --    13 C    1.502    22 C    1.086    25 O    1.071
    25   8 O    2.069 --    24 C    1.071    47 H    0.795
    26   1 H    0.995 --     1 C    0.981
    27   1 H    1.010 --     1 C    0.977
    28   1 H    0.993 --     1 C    0.980
    29   1 H    0.970 --     2 C    0.822
    30   1 H    0.986 --     3 C    0.959
    31   1 H    0.988 --     6 C    0.961
    32   1 H    1.006 --     7 C    0.955
    33   1 H    0.995 --     9 C    0.967
    34   1 H    1.000 --     9 C    0.966
    35   1 H    0.937 --    10 N    0.881
    36   1 H    1.003 --    17 C    0.985
    37   1 H    1.003 --    17 C    0.979
    38   1 H    0.999 --    17 C    0.982
    39   1 H    1.012 --    18 C    0.982
    40   1 H    1.002 --    18 C    0.985
    41   1 H    1.006 --    18 C    0.985
    42   1 H    0.947 --    19 N    0.932
    43   1 H    0.951 --    19 N    0.935
    44   1 H    1.007 --    21 C    0.975
    45   1 H    1.014 --    21 C    0.975
    46   1 H    1.019 --    21 C    0.977
    47   1 H    0.840 --    25 O    0.795
 ---------------------------------------------------------------------------

           -------------------------------------------------
          | TOTAL ENERGY              -79.482011659364 Eh   |
          | GRADIENT NORM               0.000311661109 Eh/α |
          | HOMO-LUMO GAP               0.179307646447 eV   |
           -------------------------------------------------

 * finished run on 2023/06/20 at 15:28:53.279
