   * xtb version 6.5.1 (579679a) compiled by 'ehlert@majestix' on 2022-07-11
          program call               : /lustre/hpc/kemi/ree/PhD/git/ReactivityQM/dep/xtb-6.5.1/bin/xtb --gfn 1 /lustre/hpc/kemi/ree/PhD/git/ReactivityQM/calculations/RaltegravirCLI/reac02prodE10/conf13/RaltegravirCLI_reac02prodE10_conf13_gfn1.xyz --opt --vfukui --chrg -1 --uhf 0 --alpb DMSO

   ID    Z sym.   atoms
    1    6 C      1, 3, 5, 6, 8, 9, 12-16, 18, 19, 21-24
    2    7 N      2, 11, 20, 25
    3    8 O      4, 7, 10
    4    9 F      17
    5    1 H      26-47

      * Solvation model:               ALPB
        Solvent                        DMSO
        Solvent mass                       7.8130E+01 g/mol
          :  Hamiltonian                  GFN1-xTB          :
 * total energy  :   -80.2121734 Eh     change       -0.1708145E-10 Eh
 * total energy  :   -80.2222923 Eh     change       -0.1011888E-01 Eh
 * total energy  :   -80.2249164 Eh     change       -0.2624127E-02 Eh
 * total energy  :   -80.2252844 Eh     change       -0.3680122E-03 Eh
 * total energy  :   -80.2255847 Eh     change       -0.3002266E-03 Eh
 * total energy  :   -80.2257282 Eh     change       -0.1435463E-03 Eh
 * total energy  :   -80.2258842 Eh     change       -0.1559555E-03 Eh
 * total energy  :   -80.2259957 Eh     change       -0.1115553E-03 Eh
 * total energy  :   -80.2260858 Eh     change       -0.9005974E-04 Eh
 * total energy  :   -80.2261495 Eh     change       -0.6368710E-04 Eh
 * total energy  :   -80.2267331 Eh     change       -0.9754146E-04 Eh
 * total energy  :   -80.2268042 Eh     change       -0.7109809E-04 Eh
 * total energy  :   -80.2268459 Eh     change       -0.4164365E-04 Eh
 * total energy  :   -80.2268664 Eh     change       -0.2053960E-04 Eh
 * total energy  :   -80.2268877 Eh     change       -0.2126327E-04 Eh
 * total energy  :   -80.2269000 Eh     change       -0.1233684E-04 Eh
 * total energy  :   -80.2269061 Eh     change       -0.6126170E-05 Eh
 * total energy  :   -80.2269114 Eh     change       -0.5283627E-05 Eh
 * total energy  :   -80.2269145 Eh     change       -0.3044988E-05 Eh
   *** GEOMETRY OPTIMIZATION CONVERGED AFTER 24 ITERATIONS ***

 final structure:
================
47
 xtb: 6.5.1 (579679a)
C           -3.91066048936211       -1.66753921912600        0.45625767958799
N           -2.63826863218566       -1.30092144780543       -0.16418438234531
C           -2.10828378690089       -2.23070576846491       -0.98836581962649
O           -2.66352338507656       -3.32589466344090       -1.16164569825809
C           -0.78761627051398       -1.94898685644573       -1.72623816601254
C           -1.05257075798432       -2.14578262501181       -3.23438517998957
O            0.13845282164954       -2.96092835125510       -1.28303181841075
C           -0.24959132280257       -0.57394900285485       -1.40861450566079
C            0.92437451286319       -0.08320454132819       -2.02533835283940
O            1.60359273484945       -0.65738550433133       -2.90405687061026
N            1.28509016332397        1.23509181861738       -1.63688695139042
C            2.68036112262492        1.60497144564898       -1.76888555295735
C            3.53353194352958        1.17115232974491       -0.59115785865210
C            3.29173836530042       -0.02611291473053        0.08027487314587
C            4.08866154902377       -0.41747443034549        1.14664763018043
C            5.13105578330007        0.40830845346511        1.52532090868367
F            5.91218241047758        0.03523953983303        2.55880510282341
C            5.40342755584256        1.60309172595907        0.88576376477772
C            4.59240354684564        1.97812155561025       -0.17705822898181
N           -0.86286492404089        0.21225128141420       -0.48361599594692
C           -1.96736261302328       -0.07190794335958        0.11192677083814
C           -2.49486379636763        0.91174851945880        1.14599997360325
C           -1.61608028446082        2.17502406493237        1.11701089325473
C           -2.44569407751610        0.31673050845380        2.56289101798382
N           -3.88357364399411        1.28985025910102        0.84519612107017
H           -3.73920674376594       -2.26692336389886        1.35371089759431
H           -4.47772513442895       -0.77550234657876        0.71095086428030
H           -4.48701527440510       -2.26393599540167       -0.25419989049182
H           -1.53236282976787       -3.10932121177073       -3.40442458127375
H           -0.10976697860730       -2.11676416828472       -3.77816941825189
H           -1.70491173504280       -1.35304846921709       -3.59918267474665
H           -0.31303768302920       -3.81510796139910       -1.30456788321154
H            0.88059056957685        1.51150047033285       -0.74748759708401
H            3.07092981243058        1.14349769453687       -2.68647153172272
H            2.75164158742823        2.69176435934125       -1.88485261919589
H            2.46767672150930       -0.66214718532223       -0.22730124595131
H            3.90896553743924       -1.34383812914077        1.67759507035040
H            6.22704803125766        2.22359724116885        1.21285648684809
H            4.79111754778809        2.91361979570946       -0.68773249672669
H           -1.60559707449653        2.60352478624742        0.11539793418087
H           -2.01146185449099        2.91391927221454        1.81236739163190
H           -0.59235390462937        1.93220208388727        1.40119028129596
H           -3.15693540521697       -0.49907017595892        2.67565076456108
H           -1.44422430677650       -0.05846941973146        2.77371788918918
H           -2.69108012388370        1.08488080216134        3.29609756157079
H           -3.90658317355956        1.83640509720424       -0.00604876356806
H           -4.22962511073901        1.87843059017665        1.58910420645186

          :  Hamiltonian                  GFN1-xTB          :
         :: total energy             -80.226914466466 Eh    ::
         :: gradient norm              0.000861228393 Eh/a0 ::
         :: HOMO-LUMO gap              1.599355199390 eV    ::
         :: SCC energy               -81.083158574129 Eh    ::
         :: -> Gsolv                  -0.108278133623 Eh    ::
         :: repulsion energy           0.887591130036 Eh    ::

    * Orbital Energies and Occupations

         #    Occupation            Energy/Eh            Energy/eV
      -------------------------------------------------------------
         1        2.0000           -0.8534706             -23.2241
       ...           ...                  ...                  ...
        56        2.0000           -0.4600007             -12.5173
        57        2.0000           -0.4598080             -12.5120
        58        2.0000           -0.4554398             -12.3931
        59        2.0000           -0.4419364             -12.0257
        60        2.0000           -0.4386700             -11.9368
        61        2.0000           -0.4218684             -11.4796
        62        2.0000           -0.4114913             -11.1972
        63        2.0000           -0.4076966             -11.0940
        64        2.0000           -0.3982560             -10.8371
        65        2.0000           -0.3933071             -10.7024
        66        2.0000           -0.3843407             -10.4584
        67        2.0000           -0.3726169             -10.1394
        68        2.0000           -0.3194253              -8.6920 (HOMO)
        69                         -0.2606501              -7.0926 (LUMO)
        70                         -0.2512441              -6.8367
        71                         -0.2367253              -6.4416
        72                         -0.1941959              -5.2843
        73                         -0.1378446              -3.7509
        74                         -0.1306094              -3.5541
        75                         -0.1177785              -3.2049
        76                         -0.1081850              -2.9439
        77                         -0.1048624              -2.8535
        78                         -0.1021346              -2.7792
        79                         -0.0909435              -2.4747
       ...                                ...                  ...
       144                          0.6879336              18.7196
      -------------------------------------------------------------
                  HL-Gap            0.0587752 Eh            1.5994 eV

Wiberg/Mayer (AO) data.
largest (>0.10) Wiberg bond orders for each atom

     #   Z sym  total        # sym  WBO       # sym  WBO       # sym  WBO
 ---------------------------------------------------------------------------
     1   6 C    3.948 --    26 H    0.981    28 H    0.980    27 H    0.973
                             2 N    0.944
     2   7 N    3.445 --     3 C    1.265    21 C    0.980     1 C    0.944
                             4 O    0.147
     3   6 C    3.891 --     4 O    1.529     2 N    1.265     5 C    0.935
     4   8 O    1.843 --     3 C    1.529     2 N    0.147
     5   6 C    3.907 --     8 C    0.980     6 C    0.974     3 C    0.935
                             7 O    0.916
     6   6 C    3.995 --    31 H    0.988    29 H    0.986    30 H    0.981
                             5 C    0.974
     7   8 O    1.881 --     5 C    0.916    32 H    0.868
     8   6 C    3.859 --     9 C    1.281    20 N    1.219     5 C    0.980
                            21 C    0.119    10 O    0.103
     9   6 C    3.910 --    10 O    1.449     8 C    1.281    11 N    1.038
    10   8 O    1.782 --     9 C    1.449     8 C    0.103
    11   7 N    3.148 --     9 C    1.038    12 C    0.979    33 H    0.924
    12   6 C    3.973 --    13 C    0.994    11 N    0.979    35 H    0.976
                            34 H    0.957
    13   6 C    3.986 --    19 C    1.415    14 C    1.413    12 C    0.994
    14   6 C    3.993 --    15 C    1.444    13 C    1.413    36 H    0.966
                            18 C    0.110
    15   6 C    3.992 --    14 C    1.444    16 C    1.402    37 H    0.971
                            19 C    0.110
    16   6 C    3.856 --    18 C    1.403    15 C    1.402    17 F    0.914
    17   9 F    1.038 --    16 C    0.914
    18   6 C    3.992 --    19 C    1.441    16 C    1.403    38 H    0.970
                            14 C    0.110
    19   6 C    3.994 --    18 C    1.441    13 C    1.415    39 H    0.972
                            15 C    0.110
    20   7 N    3.083 --    21 C    1.596     8 C    1.219
    21   6 C    3.896 --    20 N    1.596    22 C    0.982     2 N    0.980
                             8 C    0.119
    22   6 C    3.964 --    23 C    0.992    24 C    0.989    21 C    0.982
                            25 N    0.970
    23   6 C    3.996 --    22 C    0.992    41 H    0.986    40 H    0.984
                            42 H    0.984
    24   6 C    3.992 --    22 C    0.989    44 H    0.987    45 H    0.985
                            43 H    0.982
    25   7 N    2.990 --    22 C    0.970    47 H    0.948    46 H    0.947
    26   1 H    1.010 --     1 C    0.981
    27   1 H    1.034 --     1 C    0.973
    28   1 H    1.017 --     1 C    0.980
    29   1 H    1.015 --     6 C    0.986
    30   1 H    1.028 --     6 C    0.981
    31   1 H    1.012 --     6 C    0.988
    32   1 H    0.896 --     7 O    0.868
    33   1 H    0.991 --    11 N    0.924
    34   1 H    1.026 --    12 C    0.957
    35   1 H    1.013 --    12 C    0.976
    36   1 H    1.009 --    14 C    0.966
    37   1 H    1.000 --    15 C    0.971
    38   1 H    0.999 --    18 C    0.970
    39   1 H    1.002 --    19 C    0.972
    40   1 H    1.017 --    23 C    0.984
    41   1 H    1.006 --    23 C    0.986
    42   1 H    1.017 --    23 C    0.984
    43   1 H    1.008 --    24 C    0.982
    44   1 H    1.008 --    24 C    0.987
    45   1 H    1.003 --    24 C    0.985
    46   1 H    0.965 --    25 N    0.947
    47   1 H    0.962 --    25 N    0.948
 ---------------------------------------------------------------------------

           -------------------------------------------------
          | TOTAL ENERGY              -80.226914466466 Eh   |
          | GRADIENT NORM               0.000861228393 Eh/α |
          | HOMO-LUMO GAP               1.599355199390 eV   |
           -------------------------------------------------

 * finished run on 2023/06/20 at 15:10:22.201
