   * xtb version 6.5.1 (579679a) compiled by 'ehlert@majestix' on 2022-07-11
          program call               : /lustre/hpc/kemi/ree/PhD/git/ReactivityQM/dep/xtb-6.5.1/bin/xtb --gfn 1 /lustre/hpc/kemi/ree/PhD/git/ReactivityQM/calculations/R02methylcation/reac01prodE03/conf16/R02methylcation_reac01prodE03_conf16_gfn1.xyz --opt --vfukui --chrg -2 --uhf 0 --alpb DMSO

   ID    Z sym.   atoms
    1    6 C      1, 3, 5, 6, 8-11, 13, 15, 18, 19, 22, 24
    2    8 O      2, 4, 14, 20, 23, 25
    3    7 N      7, 12, 16, 17, 21
    4    1 H      26-42

      * Solvation model:               ALPB
        Solvent                        DMSO
        Solvent mass                       7.8130E+01 g/mol
          :  Hamiltonian                  GFN1-xTB          :
 * total energy  :   -83.5556777 Eh     change       -0.1392664E-11 Eh
 * total energy  :   -83.5698690 Eh     change       -0.1419121E-01 Eh
 * total energy  :   -83.5756494 Eh     change       -0.5780482E-02 Eh
 * total energy  :   -83.5770662 Eh     change       -0.1416761E-02 Eh
 * total energy  :   -83.5780430 Eh     change       -0.9767796E-03 Eh
 * total energy  :   -83.5785927 Eh     change       -0.5497468E-03 Eh
 * total energy  :   -83.5790201 Eh     change       -0.4274215E-03 Eh
 * total energy  :   -83.5793301 Eh     change       -0.3099701E-03 Eh
 * total energy  :   -83.5795469 Eh     change       -0.2168282E-03 Eh
 * total energy  :   -83.5797136 Eh     change       -0.1666090E-03 Eh
 * total energy  :   -83.5809525 Eh     change       -0.5218238E-04 Eh
 * total energy  :   -83.5809715 Eh     change       -0.1904310E-04 Eh
 * total energy  :   -83.5810063 Eh     change       -0.3472102E-04 Eh
 * total energy  :   -83.5810158 Eh     change       -0.9574602E-05 Eh
 * total energy  :   -83.5810318 Eh     change       -0.1600232E-04 Eh
 * total energy  :   -83.5810420 Eh     change       -0.1016824E-04 Eh
 * total energy  :   -83.5810472 Eh     change       -0.5190164E-05 Eh
 * total energy  :   -83.5810529 Eh     change       -0.5731763E-05 Eh
 * total energy  :   -83.5810578 Eh     change       -0.4891368E-05 Eh
   *** GEOMETRY OPTIMIZATION CONVERGED AFTER 33 ITERATIONS ***

 final structure:
================
42
 xtb: 6.5.1 (579679a)
C           -4.20130655101444       -0.96331271295217       -1.23560039079775
O           -4.01400397590974        0.44517807549666       -1.34734548473037
C           -3.80840034515907        1.14184918012045       -0.16669058575331
O           -4.85496844250823        1.97817476681687        0.20504044651175
C           -5.95434801191427        2.06859985213880       -0.66984958962834
C           -2.65106802207135        1.03444549017382        0.57583054524914
N           -1.70759144206595        0.13861987767963        0.05467418706254
C           -0.59372288596342       -0.04843738776905        0.67974906320561
C            0.41811181411998       -1.05817452400811        0.15948618633428
C            0.22306015466609       -1.26584961568354       -1.34930448636311
C            0.19011425271623       -2.37573705246447        0.91923678998713
N            1.75216813852370       -0.52647214661066        0.45251343862590
C            2.90132364936817       -1.20305176907340       -0.01366690792900
O            2.91960510668985       -2.43249428763148       -0.25229475027129
C            4.01475116802594       -0.32353209361230       -0.10678783843723
N            4.00399850557883        0.99916522904467        0.12216782966052
N            5.28059165897580        1.44048606559562       -0.10215907719831
C            5.99000332201163        0.41688210487541       -0.44613821978210
C            7.43355562946165        0.40507643423296       -0.79435040222873
O            5.28273525495504       -0.73969188769247       -0.47962811046675
N           -0.29241303373691        0.58427924208236        1.84408966024561
C           -1.13679749742107        1.51595010434535        2.47330520106879
O           -0.72478004755668        2.03142322758277        3.54672381281745
C           -2.39652822418980        1.77607464272449        1.81161043698450
O           -3.23340752463196        2.60910446474274        2.29433377452549
H           -5.03051586367082       -1.20401412933129       -0.56009038115209
H           -4.43571122521149       -1.33207447767380       -2.23520355314200
H           -3.28688622631757       -1.44998133016581       -0.87382235103640
H           -6.48869044541071        1.11358904554956       -0.75192469793628
H           -5.65308925142264        2.38382080650070       -1.67687182911435
H           -6.63239669145654        2.81555603894214       -0.25251502101535
H            0.42297106068334       -0.33774453866887       -1.88505636927677
H           -0.80645353510039       -1.56487059069269       -1.54354711499103
H            0.89334606441460       -2.04133060680401       -1.71671755286393
H            0.38753239857119       -2.22958374377811        1.98115224989928
H           -0.84578308814149       -2.68984690621063        0.79269932975066
H            0.84335083310964       -3.16078689633294        0.54314144366247
H            1.81944033134290        0.47353449005386        0.27984351429796
H            7.57149606163635        0.11867431810316       -1.83769111716254
H            7.85393092592312        1.39591767940231       -0.63839160798445
H            7.96864117832044       -0.31556187435045       -0.17535653496160
H            0.57813182178415        0.37614743530103        2.30861706433394

          :  Hamiltonian                  GFN1-xTB          :
         :: total energy             -83.581057815942 Eh    ::
         :: gradient norm              0.000969953105 Eh/a0 ::
         :: HOMO-LUMO gap              0.030422089678 eV    ::
         :: SCC energy               -84.302106360494 Eh    ::
         :: -> Gsolv                  -0.272570416755 Eh    ::
         :: repulsion energy           0.746687755035 Eh    ::

    * Orbital Energies and Occupations

         #    Occupation            Energy/Eh            Energy/eV
      -------------------------------------------------------------
         1        2.0000           -0.7951380             -21.6368
       ...           ...                  ...                  ...
        56        2.0000           -0.4454936             -12.1225
        57        2.0000           -0.4362491             -11.8709
        58        2.0000           -0.4246764             -11.5560
        59        2.0000           -0.4056444             -11.0381
        60        2.0000           -0.4035351             -10.9807
        61        2.0000           -0.4023228             -10.9478
        62        2.0000           -0.3992636             -10.8645
        63        2.0000           -0.3925716             -10.6824
        64        2.0000           -0.3845968             -10.4654
        65        2.0000           -0.3775771             -10.2744
        66        2.0000           -0.3438879              -9.3577
        67        2.0000           -0.3419299              -9.3044
        68        1.2860           -0.2646256              -7.2008 (HOMO)
        69        0.7140           -0.2635076              -7.1704 (LUMO)
        70                         -0.2060744              -5.6076
        71                         -0.2052541              -5.5852
        72                         -0.1783134              -4.8522
        73                         -0.1352956              -3.6816
        74                         -0.1225663              -3.3352
        75                         -0.1171548              -3.1879
        76                         -0.1142546              -3.1090
        77                         -0.0957931              -2.6067
        78                         -0.0925665              -2.5189
        79                         -0.0756117              -2.0575
       ...                                ...                  ...
       134                          0.7288072              19.8319
      -------------------------------------------------------------
                  HL-Gap            0.0011180 Eh            0.0304 eV

Wiberg/Mayer (AO) data.
largest (>0.10) Wiberg bond orders for each atom

     #   Z sym  total        # sym  WBO       # sym  WBO       # sym  WBO
 ---------------------------------------------------------------------------
     1   6 C    3.902 --    27 H    0.986    26 H    0.983    28 H    0.977
                             2 O    0.924
     2   8 O    2.021 --     3 C    0.958     1 C    0.924
     3   6 C    3.552 --     6 C    1.466     4 O    0.963     2 O    0.958
     4   8 O    2.053 --     3 C    0.963     5 C    0.949
     5   6 C    3.917 --    31 H    0.985    30 H    0.980    29 H    0.980
                             4 O    0.949
     6   6 C    3.938 --     3 C    1.466    24 C    1.113     7 N    1.099
     7   7 N    2.974 --     8 C    1.576     6 C    1.099    21 N    0.112
     8   6 C    3.916 --     7 N    1.576    21 N    1.166     9 C    0.974
     9   6 C    3.953 --    10 C    0.990    11 C    0.983     8 C    0.974
                            12 N    0.946
    10   6 C    3.993 --     9 C    0.990    32 H    0.987    34 H    0.984
                            33 H    0.983
    11   6 C    3.991 --    36 H    0.988    35 H    0.986     9 C    0.983
                            37 H    0.979
    12   7 N    3.123 --    13 C    1.054     9 C    0.946    38 H    0.921
                            14 O    0.100
    13   6 C    3.737 --    14 O    1.436    15 C    1.178    12 N    1.054
    14   8 O    1.673 --    13 C    1.436    12 N    0.100
    15   6 C    3.686 --    16 N    1.369    13 C    1.178    20 O    0.968
    16   7 N    2.720 --    15 C    1.369    17 N    1.183
    17   7 N    2.980 --    18 C    1.630    16 N    1.183
    18   6 C    3.817 --    17 N    1.630    20 O    1.046    19 C    1.023
    19   6 C    3.994 --    18 C    1.023    40 H    0.986    41 H    0.973
                            39 H    0.970
    20   8 O    2.172 --    18 C    1.046    15 C    0.968
    21   7 N    3.385 --     8 C    1.166    22 C    1.036    42 H    0.906
                             7 N    0.112
    22   6 C    3.762 --    23 O    1.420    24 C    1.144    21 N    1.036
    23   8 O    1.640 --    22 C    1.420
    24   6 C    3.806 --    25 O    1.390    22 C    1.144     6 C    1.113
    25   8 O    1.583 --    24 C    1.390
    26   1 H    1.014 --     1 C    0.983
    27   1 H    1.018 --     1 C    0.986
    28   1 H    1.040 --     1 C    0.977
    29   1 H    1.013 --     5 C    0.980
    30   1 H    1.015 --     5 C    0.980
    31   1 H    1.019 --     5 C    0.985
    32   1 H    1.009 --    10 C    0.987
    33   1 H    1.022 --    10 C    0.983
    34   1 H    1.014 --    10 C    0.984
    35   1 H    1.010 --    11 C    0.986
    36   1 H    1.009 --    11 C    0.988
    37   1 H    1.024 --    11 C    0.979
    38   1 H    0.982 --    12 N    0.921
    39   1 H    1.001 --    19 C    0.970
    40   1 H    1.005 --    19 C    0.986
    41   1 H    1.001 --    19 C    0.973
    42   1 H    0.967 --    21 N    0.906
 ---------------------------------------------------------------------------

           -------------------------------------------------
          | TOTAL ENERGY              -83.581057815942 Eh   |
          | GRADIENT NORM               0.000969953105 Eh/α |
          | HOMO-LUMO GAP               0.030422089678 eV   |
           -------------------------------------------------

 * finished run on 2023/06/21 at 17:07:42.564
