   * xtb version 6.5.1 (579679a) compiled by 'ehlert@majestix' on 2022-07-11
          program call               : /lustre/hpc/kemi/ree/PhD/git/ReactivityQM/dep/xtb-6.5.1/bin/xtb --gfn 1 /lustre/hpc/kemi/ree/PhD/git/ReactivityQM/calculations/RaltegravirCLI/reac02prodE03/conf01/RaltegravirCLI_reac02prodE03_conf01_gfn1.xyz --opt --vfukui --chrg -1 --uhf 0 --alpb DMSO

   ID    Z sym.   atoms
    1    6 C      1, 3, 5, 7, 8, 11-15, 17, 18, 20-24
    2    7 N      2, 10, 19, 25
    3    8 O      4, 6, 9
    4    9 F      16
    5    1 H      26-47

      * Solvation model:               ALPB
        Solvent                        DMSO
        Solvent mass                       7.8130E+01 g/mol
          :  Hamiltonian                  GFN1-xTB          :
 * total energy  :   -80.1286796 Eh     change       -0.1330847E-09 Eh
 * total energy  :   -80.1405834 Eh     change       -0.1190375E-01 Eh
 * total energy  :   -80.1462816 Eh     change       -0.5698222E-02 Eh
 * total energy  :   -80.1483063 Eh     change       -0.2024687E-02 Eh
 * total energy  :   -80.1504543 Eh     change       -0.2148046E-02 Eh
 * total energy  :   -80.1519545 Eh     change       -0.1500139E-02 Eh
 * total energy  :   -80.1533752 Eh     change       -0.1420682E-02 Eh
 * total energy  :   -80.1550182 Eh     change       -0.1643011E-02 Eh
 * total energy  :   -80.1565789 Eh     change       -0.1560670E-02 Eh
 * total energy  :   -80.1577391 Eh     change       -0.1160273E-02 Eh
 * total energy  :   -80.1686008 Eh     change       -0.1927311E-04 Eh
 * total energy  :   -80.1686198 Eh     change       -0.1891966E-04 Eh
 * total energy  :   -80.1686345 Eh     change       -0.1476619E-04 Eh
 * total energy  :   -80.1686462 Eh     change       -0.1172445E-04 Eh
 * total energy  :   -80.1686554 Eh     change       -0.9147899E-05 Eh
 * total energy  :   -80.1686630 Eh     change       -0.7586413E-05 Eh
 * total energy  :   -80.1686701 Eh     change       -0.7090010E-05 Eh
 * total energy  :   -80.1686754 Eh     change       -0.5280649E-05 Eh
 * total energy  :   -80.1686764 Eh     change       -0.1062677E-05 Eh
   *** GEOMETRY OPTIMIZATION CONVERGED AFTER 68 ITERATIONS ***

 final structure:
================
47
 xtb: 6.5.1 (579679a)
C           -3.69083652764922       -0.91982829588664       -2.35922586263885
N           -2.41954227486147       -0.59874912877318       -1.71480965692747
C           -1.33718957863567       -1.30086690112472       -2.19985628091096
O           -1.43816168985652       -2.05464104344040       -3.22045071385614
C           -0.19355020165789       -1.26137368604812       -1.35594877634043
O            0.69529292371875       -2.30285388268399       -1.52280894204678
C           -0.10397000509749       -0.33474711674613       -0.32021201600018
C            0.72635714156112       -0.36088900309093        0.85163139366078
O            0.61532027927133        0.43879143215898        1.80025022803753
N            1.67815286698976       -1.38005438478721        0.91702860309989
C            2.77386303189925       -1.22473666454469        1.86538360597077
C            3.82094017809159       -0.27616022520858        1.31969605739236
C            3.69866420344758        1.09853034905002        1.51776872823928
C            4.63086366184530        1.97703590985308        0.98447175255990
C            5.67884113538213        1.45396908979701        0.24881385020749
F            6.58926375154903        2.29968065685106       -0.27229626988781
C            5.83370653186108        0.09755445925517        0.03109575113689
C            4.89155157599980       -0.76594440588016        0.57434471872799
N           -0.98090192985021        0.81392845919083       -0.45604850092991
C           -0.50718530054591        1.75526710729659       -1.49241158319794
C           -2.31855148239500        0.35593618766374       -0.72391017744940
C           -3.29034393349323        0.37045940966033        0.44762760653475
C           -2.78426081181091        1.34247487261946        1.52701500120447
C           -3.46703213584777       -1.03265045921364        1.06171257783872
N           -4.61596538938922        0.81956902464366       -0.02093974034105
H           -4.50529565263267       -0.38683996120287       -1.87333951952097
H           -3.86869709251480       -1.99667559172013       -2.30782500755631
H           -3.63961081492835       -0.62985653331572       -3.41236603022652
H            0.39080178026265       -2.79718743353331       -2.30639108414719
H            1.96678518155193       -1.78225076566486        0.03481432578073
H            3.21345106706948       -2.21036406240855        2.04421240047270
H            2.36605231715430       -0.84343552390471        2.80734957642499
H            2.86544717084631        1.48544032343243        2.09495349563049
H            4.55084990723444        3.04606833718674        1.13412558516731
H            6.67148000852001       -0.27201595600219       -0.54520066631675
H            4.99913286241796       -1.83338132368391        0.41840242189196
H            0.47637068264436        2.13016830632361       -1.20431816060041
H           -0.43434135641216        1.28367739624722       -2.48162853684358
H           -1.21141197465105        2.58646213346788       -1.54397775293101
H           -3.49693334210977        1.38668281533496        2.35053417542877
H           -1.81459110141400        1.02161679059583        1.91117061877200
H           -2.67542577281133        2.34183746860450        1.10565414227278
H           -3.90010130296521       -1.71458907571921        0.33032427094792
H           -2.50055566672382       -1.42438143299501        1.38023239556764
H           -4.13022890013573       -0.98705654404392        1.92619253194548
H           -4.54339194263141        1.77680931850229       -0.34141954511178
H           -5.26511007828605        0.80956655388920        0.75372000887741

          :  Hamiltonian                  GFN1-xTB          :
         :: total energy             -80.168676414265 Eh    ::
         :: gradient norm              0.000155251099 Eh/a0 ::
         :: HOMO-LUMO gap              0.955827614647 eV    ::
         :: SCC energy               -81.012373858355 Eh    ::
         :: -> Gsolv                  -0.099647464584 Eh    ::
         :: repulsion energy           0.876020314887 Eh    ::

    * Orbital Energies and Occupations

         #    Occupation            Energy/Eh            Energy/eV
      -------------------------------------------------------------
         1        2.0000           -0.8543133             -23.2470
       ...           ...                  ...                  ...
        56        2.0000           -0.4602505             -12.5241
        57        2.0000           -0.4569880             -12.4353
        58        2.0000           -0.4464867             -12.1495
        59        2.0000           -0.4395590             -11.9610
        60        2.0000           -0.4269365             -11.6175
        61        2.0000           -0.4107977             -11.1784
        62        2.0000           -0.4078256             -11.0975
        63        2.0000           -0.3970224             -10.8035
        64        2.0000           -0.3896620             -10.6032
        65        2.0000           -0.3844543             -10.4615
        66        2.0000           -0.3697670             -10.0619
        67        2.0000           -0.3590671              -9.7707
        68        2.0000           -0.2966779              -8.0730 (HOMO)
        69                         -0.2615518              -7.1172 (LUMO)
        70                         -0.2581640              -7.0250
        71                         -0.2529179              -6.8822
        72                         -0.1758697              -4.7857
        73                         -0.1335043              -3.6328
        74                         -0.1222136              -3.3256
        75                         -0.1092599              -2.9731
        76                         -0.1038674              -2.8264
        77                         -0.1026026              -2.7920
        78                         -0.0971020              -2.6423
        79                         -0.0952832              -2.5928
       ...                                ...                  ...
       144                          0.6846501              18.6303
      -------------------------------------------------------------
                  HL-Gap            0.0351260 Eh            0.9558 eV

Wiberg/Mayer (AO) data.
largest (>0.10) Wiberg bond orders for each atom

     #   Z sym  total        # sym  WBO       # sym  WBO       # sym  WBO
 ---------------------------------------------------------------------------
     1   6 C    3.956 --    27 H    0.983    28 H    0.979    26 H    0.978
                             2 N    0.949
     2   7 N    3.495 --    21 C    1.152     3 C    1.138     1 C    0.949
                             4 O    0.124
     3   6 C    3.925 --     4 O    1.339     5 C    1.202     2 N    1.138
                            21 C    0.124
     4   8 O    1.707 --     3 C    1.339     2 N    0.124
     5   6 C    3.892 --     7 C    1.386     3 C    1.202     6 O    1.003
                            21 C    0.129
     6   8 O    2.006 --     5 C    1.003    29 H    0.830
     7   6 C    3.918 --     5 C    1.386     8 C    1.176    19 N    0.962
                            21 C    0.122
     8   6 C    3.908 --     9 O    1.481     7 C    1.176    10 N    1.103
     9   8 O    1.823 --     8 C    1.481    10 N    0.106
    10   7 N    3.209 --     8 C    1.103    11 C    0.960    30 H    0.911
                             9 O    0.106
    11   6 C    3.968 --    12 C    0.995    31 H    0.979    32 H    0.973
                            10 N    0.960
    12   6 C    3.985 --    18 C    1.418    13 C    1.413    11 C    0.995
    13   6 C    3.991 --    14 C    1.445    12 C    1.413    33 H    0.968
                            17 C    0.111
    14   6 C    3.992 --    13 C    1.445    15 C    1.400    34 H    0.971
                            18 C    0.109
    15   6 C    3.856 --    17 C    1.404    14 C    1.400    16 F    0.915
    16   9 F    1.040 --    15 C    0.915
    17   6 C    3.992 --    18 C    1.440    15 C    1.404    35 H    0.970
                            13 C    0.111
    18   6 C    3.994 --    17 C    1.440    12 C    1.418    36 H    0.972
                            14 C    0.109
    19   7 N    3.047 --    21 C    0.976    20 C    0.964     7 C    0.962
    20   6 C    3.986 --    39 H    0.989    37 H    0.988    38 H    0.982
                            19 N    0.964
    21   6 C    3.774 --     2 N    1.152    22 C    0.981    19 N    0.976
                             5 C    0.129     3 C    0.124     7 C    0.122
    22   6 C    3.960 --    23 C    0.994    24 C    0.983    21 C    0.981
                            25 N    0.962
    23   6 C    3.996 --    22 C    0.994    40 H    0.987    42 H    0.986
                            41 H    0.979
    24   6 C    3.996 --    44 H    0.987    45 H    0.986    43 H    0.985
                            22 C    0.983
    25   7 N    2.985 --    22 C    0.962    47 H    0.951    46 H    0.950
    26   1 H    1.036 --     1 C    0.978
    27   1 H    1.016 --     1 C    0.983
    28   1 H    1.016 --     1 C    0.979
    29   1 H    0.883 --     6 O    0.830
    30   1 H    0.970 --    10 N    0.911
    31   1 H    1.010 --    11 C    0.979
    32   1 H    1.019 --    11 C    0.973
    33   1 H    1.017 --    13 C    0.968
    34   1 H    1.000 --    14 C    0.971
    35   1 H    0.999 --    17 C    0.970
    36   1 H    1.001 --    18 C    0.972
    37   1 H    1.020 --    20 C    0.988
    38   1 H    1.010 --    20 C    0.982
    39   1 H    1.027 --    20 C    0.989
    40   1 H    1.007 --    23 C    0.987
    41   1 H    1.033 --    23 C    0.979
    42   1 H    1.014 --    23 C    0.986
    43   1 H    1.010 --    24 C    0.985
    44   1 H    1.013 --    24 C    0.987
    45   1 H    1.004 --    24 C    0.986
    46   1 H    0.974 --    25 N    0.950
    47   1 H    0.966 --    25 N    0.951
 ---------------------------------------------------------------------------

           -------------------------------------------------
          | TOTAL ENERGY              -80.168676414265 Eh   |
          | GRADIENT NORM               0.000155251099 Eh/α |
          | HOMO-LUMO GAP               0.955827614647 eV   |
           -------------------------------------------------

 * finished run on 2023/06/20 at 14:59:26.584
