   * xtb version 6.5.1 (579679a) compiled by 'ehlert@majestix' on 2022-07-11
          program call               : /lustre/hpc/kemi/ree/PhD/git/ReactivityQM/dep/xtb-6.5.1/bin/xtb --gfn 1 /lustre/hpc/kemi/ree/PhD/git/ReactivityQM/calculations/RaltegravirCLI/reac02prodN17/conf08/RaltegravirCLI_reac02prodN17_conf08_gfn1.xyz --opt --vfukui --chrg 1 --uhf 0 --alpb DMSO

   ID    Z sym.   atoms
    1    6 C      1, 3, 4, 6, 7, 10-14, 16, 17, 19-22, 25
    2    8 O      2, 5, 8
    3    7 N      9, 18, 23, 24
    4    9 F      15
    5    1 H      26-47

      * Solvation model:               ALPB
        Solvent                        DMSO
        Solvent mass                       7.8130E+01 g/mol
          :  Hamiltonian                  GFN1-xTB          :
 * total energy  :   -79.5116528 Eh     change       -0.5826450E-11 Eh
 * total energy  :   -79.5300576 Eh     change       -0.1840483E-01 Eh
 * total energy  :   -79.5362019 Eh     change       -0.6144228E-02 Eh
 * total energy  :   -79.5373846 Eh     change       -0.1182707E-02 Eh
 * total energy  :   -79.5381595 Eh     change       -0.7749485E-03 Eh
 * total energy  :   -79.5384353 Eh     change       -0.2757758E-03 Eh
 * total energy  :   -79.5386282 Eh     change       -0.1929237E-03 Eh
 * total energy  :   -79.5387894 Eh     change       -0.1612173E-03 Eh
 * total energy  :   -79.5389376 Eh     change       -0.1481893E-03 Eh
 * total energy  :   -79.5390730 Eh     change       -0.1354318E-03 Eh
 * total energy  :   -79.5402309 Eh     change       -0.5964361E-04 Eh
 * total energy  :   -79.5403391 Eh     change       -0.1082371E-03 Eh
 * total energy  :   -79.5403908 Eh     change       -0.5171779E-04 Eh
 * total energy  :   -79.5404285 Eh     change       -0.3767178E-04 Eh
 * total energy  :   -79.5404644 Eh     change       -0.3591610E-04 Eh
 * total energy  :   -79.5404773 Eh     change       -0.1286214E-04 Eh
 * total energy  :   -79.5404918 Eh     change       -0.1452506E-04 Eh
 * total energy  :   -79.5404970 Eh     change       -0.5136784E-05 Eh
 * total energy  :   -79.5405004 Eh     change       -0.3413987E-05 Eh
   *** GEOMETRY OPTIMIZATION CONVERGED AFTER 36 ITERATIONS ***

 final structure:
================
47
 xtb: 6.5.1 (579679a)
C           -2.56398386313735       -2.29121572009290       -3.79008031171702
O           -2.95165715447711       -1.79698653046578       -2.49762528497320
C           -2.18692415221852       -1.01557358521679       -1.76300810912906
C           -0.89480181561364       -0.54273230856976       -2.08768046438649
O           -0.32844668803395       -0.85761982480137       -3.24587264292387
C           -0.25863507922835        0.24836337294348       -1.13787339895015
C            1.12219379464511        0.75052408642775       -1.39618205580227
O            1.70359174264426        0.47361131122099       -2.45006164898879
N            1.64292369901866        1.49435660682524       -0.42434801552370
C            3.00531831877212        2.01988093815962       -0.49733443241319
C            3.97106115971522        1.06248322965448        0.16730013683530
C            4.33257687239024       -0.11687445101569       -0.48183243754002
C            5.20297353916681       -1.01336705140902        0.12012087904550
C            5.70003601548318       -0.70398211189695        1.37412197817203
F            6.54221796181065       -1.56599323501753        1.96309577237308
C            5.36112481190510        0.45648080313965        2.04572023471065
C            4.48567908713392        1.34135054550809        1.43042575930924
N           -0.84747805412181        0.55147237219454        0.02635647925648
C           -2.05114074980582        0.12759367786909        0.31454994091961
C           -2.57065789488090        0.47874033748987        1.69994180686108
C           -2.46733874303924       -0.77621418568719        2.58130422180660
C           -1.70847333369117        1.60213170630344        2.29659182753550
N           -3.96065281618761        0.91373048753298        1.63422970269706
N           -2.73167402636974       -0.66049187470797       -0.57603541077656
C           -4.07959957636570       -1.19247720052464       -0.32995061896236
H           -3.40348808944084       -2.89924739462333       -4.12579181340056
H           -1.66440687408132       -2.90249186381683       -3.70829411376375
H           -2.39804450054428       -1.46316730083699       -4.48031659576493
H            0.58788207507373       -0.43240555894715       -3.26055631080850
H            1.10878733833976        1.63662228123310        0.41904455803224
H            3.25343809725591        2.14520413823975       -1.55550966299200
H            3.01504360897659        2.99251827778718       -0.00173212852751
H            3.92790435996557       -0.33545301283610       -1.46269698658837
H            5.48969162080804       -1.93452308688218       -0.37052735172225
H            5.76855363083726        0.66116368064702        3.02725931526159
H            4.20424293169429        2.25513736204955        1.93992666806429
H           -3.10771411519416       -1.57041650055602        2.20250724036385
H           -2.77657238777590       -0.52849499954265        3.59551924787888
H           -1.43788972377565       -1.13143511867000        2.60229018935221
H           -2.10792952699559        1.87843967172862        3.27080456194096
H           -0.67751611740191        1.27399070688667        2.41474534708334
H           -1.72941922261209        2.47409337427184        1.64536956919894
H           -4.01363583107562        1.79664820387165        1.14487577372975
H           -4.30301773198532        1.05671166057845        2.57502508825544
H           -4.49179697414810       -0.73625581031025        0.56525512995549
H           -4.70238508375514       -0.94994307607530       -1.18966001996228
H           -4.00995853967804       -2.27388603005889       -0.22341061302308

          :  Hamiltonian                  GFN1-xTB          :
         :: total energy             -79.540500364117 Eh    ::
         :: gradient norm              0.000511620200 Eh/a0 ::
         :: HOMO-LUMO gap              1.819545195954 eV    ::
         :: SCC energy               -80.430297742646 Eh    ::
         :: -> Gsolv                  -0.095637119742 Eh    ::
         :: repulsion energy           0.919664893687 Eh    ::

    * Orbital Energies and Occupations

         #    Occupation            Energy/Eh            Energy/eV
      -------------------------------------------------------------
         1        2.0000           -0.8827594             -24.0211
       ...           ...                  ...                  ...
        55        2.0000           -0.5147636             -14.0074
        56        2.0000           -0.5139293             -13.9847
        57        2.0000           -0.5129927             -13.9592
        58        2.0000           -0.5109400             -13.9034
        59        2.0000           -0.5027527             -13.6806
        60        2.0000           -0.4930832             -13.4175
        61        2.0000           -0.4783313             -13.0161
        62        2.0000           -0.4705207             -12.8035
        63        2.0000           -0.4666252             -12.6975
        64        2.0000           -0.4602595             -12.5243
        65        2.0000           -0.4565168             -12.4225
        66        2.0000           -0.4431297             -12.0582
        67        2.0000           -0.4306883             -11.7196 (HOMO)
        68                         -0.3638212              -9.9001 (LUMO)
        69                         -0.3226965              -8.7810
        70                         -0.2784444              -7.5769
        71                         -0.2748083              -7.4779
        72                         -0.2683999              -7.3035
        73                         -0.1900999              -5.1729
        74                         -0.1580961              -4.3020
        75                         -0.1517806              -4.1302
        76                         -0.1498912              -4.0787
        77                         -0.1375174              -3.7420
        78                         -0.1351948              -3.6788
       ...                                ...                  ...
       144                          0.6617434              18.0070
      -------------------------------------------------------------
                  HL-Gap            0.0668671 Eh            1.8195 eV

Wiberg/Mayer (AO) data.
largest (>0.10) Wiberg bond orders for each atom

     #   Z sym  total        # sym  WBO       # sym  WBO       # sym  WBO
 ---------------------------------------------------------------------------
     1   6 C    3.835 --    26 H    0.982    27 H    0.977    28 H    0.977
                             2 O    0.865
     2   8 O    2.238 --     3 C    1.150     1 C    0.865
     3   6 C    3.895 --    24 N    1.258     4 C    1.226     2 O    1.150
     4   6 C    3.935 --     6 C    1.362     3 C    1.226     5 O    1.138
     5   8 O    2.083 --     4 C    1.138    29 H    0.714
     6   6 C    3.965 --     4 C    1.362    18 N    1.303     7 C    0.998
     7   6 C    3.915 --     8 O    1.510     9 N    1.331     6 C    0.998
     8   8 O    1.941 --     7 C    1.510     9 N    0.177    29 H    0.108
     9   7 N    3.409 --     7 C    1.331    10 C    0.926    30 H    0.891
                             8 O    0.177
    10   6 C    3.931 --    11 C    0.991    32 H    0.975    31 H    0.968
                             9 N    0.926
    11   6 C    3.985 --    17 C    1.423    12 C    1.415    10 C    0.991
    12   6 C    3.992 --    13 C    1.448    11 C    1.415    33 H    0.969
                            16 C    0.111
    13   6 C    3.992 --    12 C    1.448    14 C    1.397    34 H    0.969
                            17 C    0.110
    14   6 C    3.862 --    16 C    1.403    13 C    1.397    15 F    0.929
    15   9 F    1.058 --    14 C    0.929
    16   6 C    3.991 --    17 C    1.440    14 C    1.403    35 H    0.969
                            12 C    0.111
    17   6 C    3.993 --    16 C    1.440    11 C    1.423    36 H    0.970
                            13 C    0.110
    18   7 N    3.060 --    19 C    1.486     6 C    1.303
    19   6 C    3.899 --    18 N    1.486    24 N    1.193    20 C    0.978
    20   6 C    3.959 --    22 C    0.989    23 N    0.985    19 C    0.978
                            21 C    0.974
    21   6 C    3.990 --    39 H    0.985    37 H    0.983    38 H    0.980
                            20 C    0.974
    22   6 C    3.992 --    20 C    0.989    42 H    0.984    40 H    0.983
                            41 H    0.983
    23   7 N    2.998 --    20 C    0.985    43 H    0.936    44 H    0.932
    24   7 N    3.578 --     3 C    1.258    19 C    1.193    25 C    0.908
    25   6 C    3.887 --    46 H    0.971    47 H    0.971    45 H    0.959
                            24 N    0.908
    26   1 H    1.006 --     1 C    0.982
    27   1 H    1.007 --     1 C    0.977
    28   1 H    1.007 --     1 C    0.977
    29   1 H    0.833 --     5 O    0.714     8 O    0.108
    30   1 H    0.948 --     9 N    0.891
    31   1 H    1.004 --    10 C    0.968
    32   1 H    1.000 --    10 C    0.975
    33   1 H    1.006 --    12 C    0.969
    34   1 H    0.997 --    13 C    0.969
    35   1 H    0.997 --    16 C    0.969
    36   1 H    0.998 --    17 C    0.970
    37   1 H    1.001 --    21 C    0.983
    38   1 H    0.997 --    21 C    0.980
    39   1 H    1.001 --    21 C    0.985
    40   1 H    1.000 --    22 C    0.983
    41   1 H    1.009 --    22 C    0.983
    42   1 H    1.004 --    22 C    0.984
    43   1 H    0.949 --    23 N    0.936
    44   1 H    0.946 --    23 N    0.932
    45   1 H    1.024 --    25 C    0.959
    46   1 H    0.999 --    25 C    0.971
    47   1 H    0.998 --    25 C    0.971
 ---------------------------------------------------------------------------

           -------------------------------------------------
          | TOTAL ENERGY              -79.540500364117 Eh   |
          | GRADIENT NORM               0.000511620200 Eh/α |
          | HOMO-LUMO GAP               1.819545195954 eV   |
           -------------------------------------------------

 * finished run on 2023/06/20 at 15:40:59.130
