   * xtb version 6.5.1 (579679a) compiled by 'ehlert@majestix' on 2022-07-11
          program call               : /lustre/hpc/kemi/ree/PhD/git/ReactivityQM/dep/xtb-6.5.1/bin/xtb --gfn 1 /lustre/hpc/kemi/ree/PhD/git/ReactivityQM/calculations/R03/reac01prodE02/conf10/R03_reac01prodE02_conf10_gfn1.xyz --opt --vfukui --chrg -1 --uhf 0 --alpb DMSO

   ID    Z sym.   atoms
    1    6 C      1-4, 6-9
    2    9 F      5
    3    7 N      10
    4    1 H      11-21

      * Solvation model:               ALPB
        Solvent                        DMSO
        Solvent mass                       7.8130E+01 g/mol
          :  Hamiltonian                  GFN1-xTB          :
 * total energy  :   -31.4567931 Eh     change       -0.4558132E-11 Eh
 * total energy  :   -31.4619953 Eh     change       -0.5202148E-02 Eh
 * total energy  :   -31.4629894 Eh     change       -0.9941542E-03 Eh
 * total energy  :   -31.4631334 Eh     change       -0.1439671E-03 Eh
 * total energy  :   -31.4632763 Eh     change       -0.1428751E-03 Eh
 * total energy  :   -31.4633943 Eh     change       -0.1180332E-03 Eh
 * total energy  :   -31.4635394 Eh     change       -0.1450866E-03 Eh
 * total energy  :   -31.4636647 Eh     change       -0.1252623E-03 Eh
 * total energy  :   -31.4637321 Eh     change       -0.6739747E-04 Eh
 * total energy  :   -31.4637613 Eh     change       -0.2925537E-04 Eh
 * total energy  :   -31.4638899 Eh     change       -0.1948286E-04 Eh
 * total energy  :   -31.4638850 Eh     change        0.4890020E-05 Eh
 * total energy  :   -31.4639340 Eh     change       -0.4897445E-04 Eh
 * total energy  :   -31.4639464 Eh     change       -0.1241888E-04 Eh
 * total energy  :   -31.4639544 Eh     change       -0.8017929E-05 Eh
 * total energy  :   -31.4639635 Eh     change       -0.9021900E-05 Eh
 * total energy  :   -31.4639614 Eh     change        0.2099658E-05 Eh
 * total energy  :   -31.4639669 Eh     change       -0.5494124E-05 Eh
 * total energy  :   -31.4639715 Eh     change       -0.4686823E-05 Eh
   *** GEOMETRY OPTIMIZATION CONVERGED AFTER 28 ITERATIONS ***

 final structure:
================
21
 xtb: 6.5.1 (579679a)
C           -0.51980636505057        1.81226357356832       -1.08407550285972
C           -0.19594664224575        0.29208580255121       -0.91863707400198
C           -1.45036620158651       -0.53781626619731       -1.10324009365776
C           -2.08804945226295       -1.04540735630067       -0.01894414870817
F           -3.28541781377461       -1.69226354203502       -0.23617941182875
C           -1.60760444184106       -1.04037416718709        1.29502013661366
C           -0.28814190000700       -0.55602029425278        1.45557816935176
C            0.42750312239219        0.01752873192790        0.44398323369512
C            1.88310115095504        0.37937149346804        0.62919853267033
N            2.79648026032218       -0.74355881218348        0.30818075222199
H           -0.96161290977409        1.99736399644346       -2.06450680939276
H           -1.22709342223366        2.13045789081573       -0.31688509062817
H            0.38734930354192        2.41132430794604       -0.99196450384832
H            0.52989081077526        0.05065287731984       -1.71934419785327
H           -1.85626842036216       -0.64638987108191       -2.10237771772358
H           -2.16103882759029       -1.49311530939556        2.10619592774377
H            0.18472597130450       -0.67692462597332        2.43137049281697
H            2.17162761317640        1.22274737232998       -0.01251691419245
H            2.08394995891280        0.67247237637528        1.66940012640618
H            2.63958598809094       -1.01828984124132       -0.65469424448637
H            2.53713321725756       -1.53610633689741        0.88443833766153

          :  Hamiltonian                  GFN1-xTB          :
         :: total energy             -31.463971548357 Eh    ::
         :: gradient norm              0.000508430326 Eh/a0 ::
         :: HOMO-LUMO gap              2.672493053154 eV    ::
         :: SCC energy               -31.835427777952 Eh    ::
         :: -> Gsolv                  -0.076342175867 Eh    ::
         :: repulsion energy           0.381798147921 Eh    ::

    * Orbital Energies and Occupations

         #    Occupation            Energy/Eh            Energy/eV
      -------------------------------------------------------------
         1        2.0000           -0.7879706             -21.4418
       ...           ...                  ...                  ...
        16        2.0000           -0.4823041             -13.1242
        17        2.0000           -0.4776600             -12.9978
        18        2.0000           -0.4670681             -12.7096
        19        2.0000           -0.4593005             -12.4982
        20        2.0000           -0.4545075             -12.3678
        21        2.0000           -0.4453074             -12.1174
        22        2.0000           -0.4314299             -11.7398
        23        2.0000           -0.4219031             -11.4806
        24        2.0000           -0.4026502             -10.9567
        25        2.0000           -0.3994367             -10.8692
        26        2.0000           -0.3711338             -10.0991
        27        2.0000           -0.3584141              -9.7529
        28        2.0000           -0.2763809              -7.5207 (HOMO)
        29                         -0.1781686              -4.8482 (LUMO)
        30                         -0.1082746              -2.9463
        31                         -0.0845250              -2.3000
        32                         -0.0767827              -2.0894
        33                         -0.0714152              -1.9433
        34                         -0.0632717              -1.7217
        35                         -0.0457990              -1.2463
        36                         -0.0373075              -1.0152
        37                         -0.0246092              -0.6696
        38                         -0.0216172              -0.5882
        39                         -0.0183624              -0.4997
       ...                                ...                  ...
        62                          0.6593212              17.9410
      -------------------------------------------------------------
                  HL-Gap            0.0982123 Eh            2.6725 eV

Wiberg/Mayer (AO) data.
largest (>0.10) Wiberg bond orders for each atom

     #   Z sym  total        # sym  WBO       # sym  WBO       # sym  WBO
 ---------------------------------------------------------------------------
     1   6 C    3.991 --    12 H    0.989    11 H    0.988    13 H    0.985
                             2 C    0.966
     2   6 C    3.992 --     3 C    1.006     8 C    0.997    14 H    0.971
                             1 C    0.966
     3   6 C    3.901 --     4 C    1.585     2 C    1.006    15 H    0.975
                             6 C    0.108
     4   6 C    3.824 --     3 C    1.585     6 C    1.300     5 F    0.852
     5   9 F    0.959 --     4 C    0.852
     6   6 C    3.874 --     4 C    1.300     7 C    1.290    16 H    0.977
                             3 C    0.108     8 C    0.105
     7   6 C    3.994 --     8 C    1.617     6 C    1.290    17 H    0.971
     8   6 C    3.931 --     7 C    1.617     9 C    1.004     2 C    0.997
                             6 C    0.105
     9   6 C    3.968 --     8 C    1.004    19 H    0.980    18 H    0.980
                            10 N    0.964
    10   7 N    2.944 --     9 C    0.964    20 H    0.958    21 H    0.958
    11   1 H    1.016 --     1 C    0.988
    12   1 H    1.022 --     1 C    0.989
    13   1 H    1.014 --     1 C    0.985
    14   1 H    1.020 --     2 C    0.971
    15   1 H    1.004 --     3 C    0.975
    16   1 H    1.005 --     6 C    0.977
    17   1 H    1.007 --     7 C    0.971
    18   1 H    1.018 --     9 C    0.980
    19   1 H    1.017 --     9 C    0.980
    20   1 H    0.977 --    10 N    0.958
    21   1 H    0.982 --    10 N    0.958
 ---------------------------------------------------------------------------

           -------------------------------------------------
          | TOTAL ENERGY              -31.463971548357 Eh   |
          | GRADIENT NORM               0.000508430326 Eh/α |
          | HOMO-LUMO GAP               2.672493053154 eV   |
           -------------------------------------------------

 * finished run on 2023/06/20 at 15:12:59.562
