   * xtb version 6.5.1 (579679a) compiled by 'ehlert@majestix' on 2022-07-11
          program call               : /lustre/hpc/kemi/ree/PhD/git/ReactivityQM/dep/xtb-6.5.1/bin/xtb --gfn 1 /lustre/hpc/kemi/ree/PhD/git/ReactivityQM/calculations/R01/reac01prodE03/conf12/R01_reac01prodE03_conf12_gfn1.xyz --opt --vfukui --chrg -1 --uhf 0 --alpb DMSO

   ID    Z sym.   atoms
    1    6 C      1, 3, 5, 6, 9, 10
    2    8 O      2, 4, 11
    3    7 N      7, 8
    4    1 H      12-20

      * Solvation model:               ALPB
        Solvent                        DMSO
        Solvent mass                       7.8130E+01 g/mol
          :  Hamiltonian                  GFN1-xTB          :
 * total energy  :   -38.3074396 Eh     change       -0.8959944E-11 Eh
 * total energy  :   -38.3191813 Eh     change       -0.1174171E-01 Eh
 * total energy  :   -38.3227817 Eh     change       -0.3600402E-02 Eh
 * total energy  :   -38.3234852 Eh     change       -0.7035509E-03 Eh
 * total energy  :   -38.3241100 Eh     change       -0.6248111E-03 Eh
 * total energy  :   -38.3244834 Eh     change       -0.3733259E-03 Eh
 * total energy  :   -38.3249950 Eh     change       -0.5116131E-03 Eh
 * total energy  :   -38.3256361 Eh     change       -0.6410838E-03 Eh
 * total energy  :   -38.3263505 Eh     change       -0.7144686E-03 Eh
 * total energy  :   -38.3268693 Eh     change       -0.5187857E-03 Eh
 * total energy  :   -38.3286319 Eh     change       -0.2279434E-04 Eh
 * total energy  :   -38.3286458 Eh     change       -0.1394297E-04 Eh
 * total energy  :   -38.3286644 Eh     change       -0.1861471E-04 Eh
 * total energy  :   -38.3286721 Eh     change       -0.7700463E-05 Eh
 * total energy  :   -38.3286866 Eh     change       -0.1449611E-04 Eh
 * total energy  :   -38.3286992 Eh     change       -0.1258918E-04 Eh
 * total energy  :   -38.3287101 Eh     change       -0.1091825E-04 Eh
 * total energy  :   -38.3287176 Eh     change       -0.7473238E-05 Eh
 * total energy  :   -38.3287201 Eh     change       -0.2457636E-05 Eh
   *** GEOMETRY OPTIMIZATION CONVERGED AFTER 31 ITERATIONS ***

 final structure:
================
20
 xtb: 6.5.1 (579679a)
C            3.28860855167866        0.85524148278390       -0.11787494468896
O            2.23822619477703       -0.02719233608094       -0.48957139453112
C            1.05393499701630        0.13150254727171        0.18090167688698
O            0.94574161571272        0.93608916760864        1.09823315973803
C           -0.08803808473274       -0.58761373988059       -0.52736041388833
C            0.26236223935431       -1.96316692247671       -1.09798869100321
N           -0.28905422373702        0.45150081903723       -1.53642994934246
N           -1.49551225347772        1.02705624780306       -1.22072721797660
C           -2.02566394579150        0.42379136141234       -0.22649271955745
C           -3.33830708784449        0.70383027554470        0.41676132765904
O           -1.25635459115332       -0.63474257161031        0.27318561877450
H            3.04240200106711        1.89020684721081       -0.38220083395296
H            4.17973890530549        0.54018929161887       -0.66099248042942
H            3.47721115002271        0.80131583373085        0.95994549355426
H           -0.58690810466707       -2.33798477233541       -1.66649236058626
H            0.49012920367350       -2.66111033797678       -0.29398928136532
H            1.12307969498119       -1.87544884829556       -1.75718527615998
H           -3.98637664141379       -0.17376404084743        0.37304836552930
H           -3.82425803062449        1.52849598120474       -0.10165530562720
H           -3.21096159014617        0.97180271427703        1.46784622696724

          :  Hamiltonian                  GFN1-xTB          :
         :: total energy             -38.328720060518 Eh    ::
         :: gradient norm              0.000792771261 Eh/a0 ::
         :: HOMO-LUMO gap              2.119804801627 eV    ::
         :: SCC energy               -38.635466337845 Eh    ::
         :: -> Gsolv                  -0.105332735305 Eh    ::
         :: repulsion energy           0.315539555241 Eh    ::

    * Orbital Energies and Occupations

         #    Occupation            Energy/Eh            Energy/eV
      -------------------------------------------------------------
         1        2.0000           -0.7912924             -21.5322
       ...           ...                  ...                  ...
        19        2.0000           -0.5037814             -13.7086
        20        2.0000           -0.4977241             -13.5438
        21        2.0000           -0.4939092             -13.4400
        22        2.0000           -0.4893267             -13.3153
        23        2.0000           -0.4811559             -13.0929
        24        2.0000           -0.4642755             -12.6336
        25        2.0000           -0.4605277             -12.5316
        26        2.0000           -0.4577205             -12.4552
        27        2.0000           -0.4187775             -11.3955
        28        2.0000           -0.4131409             -11.2421
        29        2.0000           -0.3889848             -10.5848
        30        2.0000           -0.3631323              -9.8813
        31        2.0000           -0.2899234              -7.8892 (HOMO)
        32                         -0.2120220              -5.7694 (LUMO)
        33                         -0.1703409              -4.6352
        34                         -0.1215568              -3.3077
        35                         -0.1126870              -3.0664
        36                         -0.0980301              -2.6675
        37                         -0.0590661              -1.6073
        38                         -0.0561567              -1.5281
        39                         -0.0465537              -1.2668
        40                         -0.0449467              -1.2231
        41                         -0.0404652              -1.1011
        42                         -0.0350409              -0.9535
       ...                                ...                  ...
        62                          0.6856718              18.6581
      -------------------------------------------------------------
                  HL-Gap            0.0779014 Eh            2.1198 eV

Wiberg/Mayer (AO) data.
largest (>0.10) Wiberg bond orders for each atom

     #   Z sym  total        # sym  WBO       # sym  WBO       # sym  WBO
 ---------------------------------------------------------------------------
     1   6 C    3.903 --    13 H    0.987    12 H    0.981    14 H    0.981
                             2 O    0.925
     2   8 O    2.133 --     3 C    1.018     1 C    0.925     4 O    0.102
     3   6 C    3.815 --     4 O    1.587     2 O    1.018     5 C    0.921
                             7 N    0.187
     4   8 O    1.866 --     3 C    1.587     2 O    0.102
     5   6 C    3.900 --     6 C    0.980     7 N    0.966    11 O    0.927
                             3 C    0.921
     6   6 C    3.996 --    16 H    0.987    17 H    0.986    15 H    0.985
                             5 C    0.980
     7   7 N    2.663 --     8 N    1.157     5 C    0.966     3 C    0.187
                             9 C    0.157
     8   7 N    3.013 --     9 C    1.691     7 N    1.157
     9   6 C    3.880 --     8 N    1.691    10 C    1.018    11 O    0.941
                             7 N    0.157
    10   6 C    3.996 --     9 C    1.018    19 H    0.987    18 H    0.976
                            20 H    0.976
    11   8 O    2.071 --     9 C    0.941     5 C    0.927
    12   1 H    1.012 --     1 C    0.981
    13   1 H    1.016 --     1 C    0.987
    14   1 H    1.016 --     1 C    0.981
    15   1 H    1.017 --     6 C    0.985
    16   1 H    1.010 --     6 C    0.987
    17   1 H    1.019 --     6 C    0.986
    18   1 H    1.008 --    10 C    0.976
    19   1 H    1.009 --    10 C    0.987
    20   1 H    1.008 --    10 C    0.976
 ---------------------------------------------------------------------------

           -------------------------------------------------
          | TOTAL ENERGY              -38.328720060518 Eh   |
          | GRADIENT NORM               0.000792771261 Eh/α |
          | HOMO-LUMO GAP               2.119804801627 eV   |
           -------------------------------------------------

 * finished run on 2023/06/20 at 14:53:22.478
