   * xtb version 6.5.1 (579679a) compiled by 'ehlert@majestix' on 2022-07-11
          program call               : /lustre/hpc/kemi/ree/PhD/git/ReactivityQM/dep/xtb-6.5.1/bin/xtb --gfn 1 /lustre/hpc/kemi/ree/PhD/git/ReactivityQM/calculations/R02deprot/reac01prodE02/conf07/R02deprot_reac01prodE02_conf07_gfn1.xyz --opt --vfukui --chrg -2 --uhf 0 --alpb DMSO

   ID    Z sym.   atoms
    1    6 C      1, 3, 4, 6, 8-11, 13, 15, 18, 19, 22, 24
    2    8 O      2, 5, 14, 20, 23, 25
    3    7 N      7, 12, 16, 17, 21
    4    1 H      26-42

      * Solvation model:               ALPB
        Solvent                        DMSO
        Solvent mass                       7.8130E+01 g/mol
          :  Hamiltonian                  GFN1-xTB          :
 * total energy  :   -83.6039968 Eh     change       -0.3609557E-11 Eh
 * total energy  :   -83.6178548 Eh     change       -0.1385804E-01 Eh
 * total energy  :   -83.6240601 Eh     change       -0.6205330E-02 Eh
 * total energy  :   -83.6256823 Eh     change       -0.1622204E-02 Eh
 * total energy  :   -83.6265780 Eh     change       -0.8956579E-03 Eh
 * total energy  :   -83.6269921 Eh     change       -0.4141524E-03 Eh
 * total energy  :   -83.6272746 Eh     change       -0.2824363E-03 Eh
 * total energy  :   -83.6274620 Eh     change       -0.1874571E-03 Eh
 * total energy  :   -83.6276334 Eh     change       -0.1713611E-03 Eh
 * total energy  :   -83.6278328 Eh     change       -0.1994487E-03 Eh
 * total energy  :   -83.6304017 Eh     change       -0.5843502E-05 Eh
 * total energy  :   -83.6304143 Eh     change       -0.1260878E-04 Eh
 * total energy  :   -83.6304214 Eh     change       -0.7088075E-05 Eh
 * total energy  :   -83.6304354 Eh     change       -0.1395234E-04 Eh
 * total energy  :   -83.6304454 Eh     change       -0.1001275E-04 Eh
 * total energy  :   -83.6304531 Eh     change       -0.7732653E-05 Eh
 * total energy  :   -83.6304600 Eh     change       -0.6909570E-05 Eh
 * total energy  :   -83.6304651 Eh     change       -0.5101606E-05 Eh
 * total energy  :   -83.6304691 Eh     change       -0.4009695E-05 Eh
   *** GEOMETRY OPTIMIZATION CONVERGED AFTER 54 ITERATIONS ***

 final structure:
================
42
 xtb: 6.5.1 (579679a)
C           -3.70184698452071        3.14366621941161        0.51363380553252
O           -3.64067648979292        1.74799986995376        0.54639716336879
C           -2.65139184145066        1.13025310771399       -0.47549502143270
C           -3.54575545690095        0.81554124452922       -1.73407725422561
O           -1.64202479268125        1.89155734756585       -0.73140624623885
C           -2.30773740447751       -0.24654876797422        0.20881608246672
N           -0.97442564587627       -0.50154295276304        0.35491216264598
C           -0.61111746531332       -1.63743764934936        0.90383039270049
C            0.88969648376562       -1.89578411649080        1.04383571829442
C            1.25342675123373       -1.99737914502161        2.53109897637624
C            1.25087273998887       -3.19554627982216        0.31270322960002
N            1.57653183113932       -0.76193856260342        0.42968887970943
C            2.89597761884318       -0.62039721482115        0.33265698528168
O            3.74172906629652       -1.40012690084596        0.75854494662484
C            3.25786275890083        0.63979875567992       -0.38492357016250
N            2.43423314730016        1.51373428526210       -0.87326085430404
N            3.19186106821275        2.49349696917380       -1.44846302815118
C            4.42841316588185        2.15241243475036       -1.27358396834799
C            5.63771041263032        2.88074274530028       -1.71667282508850
O            4.54076882692011        0.99175173258545       -0.60858902053066
N           -1.39536054272088       -2.61028589529245        1.36276841253236
C           -2.74127079971910       -2.43527349477561        1.24226640196231
O           -3.57986829716179       -3.28936244510606        1.62881943539711
C           -3.19327629690327       -1.19692616432869        0.63141850736868
O           -4.56475822924830       -1.08427408199950        0.52130397425853
H           -2.70527006623672        3.60197851468027        0.38630701401642
H           -4.35070345889821        3.52125160831665       -0.29739514380785
H           -4.11726635784059        3.49824201569335        1.46527688030446
H           -2.97198261062944        0.19324870414042       -2.42067619531384
H           -3.78553094392289        1.75535233438535       -2.23040182150650
H           -4.46766296733137        0.30645642523344       -1.46167378370377
H            2.30184024499437       -2.26261804542527        2.65739056181293
H            1.06585332604481       -1.04708718873847        3.03112752005036
H            0.63348018581729       -2.76732210001135        2.99012470200698
H            1.06547841680346       -3.09005486920645       -0.75628147649582
H            2.29784133155787       -3.45189145602472        0.46654951608485
H            0.62491018470604       -3.99888244295021        0.70170832565084
H            0.94801663642546       -0.04772736263665        0.04351929927785
H            5.34801994491358        3.80653359121172       -2.20697994867952
H            6.21077376545949        2.26672169957859       -2.41063959571036
H            6.27442129430009        3.10401984881560       -0.86162499063045
H           -4.92179455051421       -1.91635331780171        0.88533185099957

          :  Hamiltonian                  GFN1-xTB          :
         :: total energy             -83.630469127973 Eh    ::
         :: gradient norm              0.000772772293 Eh/a0 ::
         :: HOMO-LUMO gap              0.746885288998 eV    ::
         :: SCC energy               -84.366270987110 Eh    ::
         :: -> Gsolv                  -0.290770677842 Eh    ::
         :: repulsion energy           0.761310811998 Eh    ::

    * Orbital Energies and Occupations

         #    Occupation            Energy/Eh            Energy/eV
      -------------------------------------------------------------
         1        2.0000           -0.8504260             -23.1413
       ...           ...                  ...                  ...
        56        2.0000           -0.4408373             -11.9958
        57        2.0000           -0.4366162             -11.8809
        58        2.0000           -0.4309469             -11.7267
        59        2.0000           -0.4197503             -11.4220
        60        2.0000           -0.4160569             -11.3215
        61        2.0000           -0.4077188             -11.0946
        62        2.0000           -0.3847125             -10.4686
        63        2.0000           -0.3807777             -10.3615
        64        2.0000           -0.3731420             -10.1537
        65        2.0000           -0.3528568              -9.6017
        66        2.0000           -0.3409376              -9.2774
        67        2.0000           -0.3369295              -9.1683
        68        2.0000           -0.3173054              -8.6343 (HOMO)
        69        0.0000           -0.2898579              -7.8874 (LUMO)
        70                         -0.2448195              -6.6619
        71                         -0.2049707              -5.5775
        72                         -0.1952369              -5.3127
        73                         -0.1782138              -4.8494
        74                         -0.1383511              -3.7647
        75                         -0.1008083              -2.7431
        76                         -0.0989384              -2.6923
        77                         -0.0921247              -2.5068
        78                         -0.0838139              -2.2807
        79                         -0.0710048              -1.9321
       ...                                ...                  ...
       134                          0.7320739              19.9207
      -------------------------------------------------------------
                  HL-Gap            0.0274475 Eh            0.7469 eV

Wiberg/Mayer (AO) data.
largest (>0.10) Wiberg bond orders for each atom

     #   Z sym  total        # sym  WBO       # sym  WBO       # sym  WBO
 ---------------------------------------------------------------------------
     1   6 C    3.945 --     2 O    0.993    28 H    0.983    27 H    0.979
                            26 H    0.971
     2   8 O    1.922 --     1 C    0.993     3 C    0.742
     3   6 C    3.893 --     5 O    1.264     4 C    0.927     6 C    0.902
                             2 O    0.742
     4   6 C    3.987 --    31 H    0.988    29 H    0.988    30 H    0.987
                             3 C    0.927
     5   8 O    1.539 --     3 C    1.264
     6   6 C    3.944 --    24 C    1.532     7 N    1.231     3 C    0.902
     7   7 N    3.044 --     8 C    1.458     6 C    1.231
     8   6 C    3.962 --     7 N    1.458    21 N    1.373     9 C    0.962
     9   6 C    3.923 --    11 C    0.986    10 C    0.985     8 C    0.962
                            12 N    0.919
    10   6 C    3.995 --    33 H    0.987     9 C    0.985    34 H    0.985
                            32 H    0.984
    11   6 C    3.995 --    35 H    0.987     9 C    0.986    36 H    0.985
                            37 H    0.984
    12   7 N    3.400 --    13 C    1.320     9 C    0.919    38 H    0.866
                            14 O    0.191
    13   6 C    3.927 --    14 O    1.549    12 N    1.320    15 C    0.978
    14   8 O    1.870 --    13 C    1.549    12 N    0.191
    15   6 C    3.867 --    16 N    1.625    20 O    1.056    13 C    0.978
    16   7 N    3.010 --    15 C    1.625    17 N    1.188
    17   7 N    2.981 --    18 C    1.620    16 N    1.188
    18   6 C    3.876 --    17 N    1.620    20 O    1.079    19 C    1.029
    19   6 C    3.989 --    18 C    1.029    39 H    0.983    41 H    0.966
                            40 H    0.965
    20   8 O    2.319 --    18 C    1.079    15 C    1.056
    21   7 N    2.969 --     8 C    1.373    22 C    1.232    23 O    0.113
    22   6 C    3.929 --    23 O    1.428    21 N    1.232    24 C    1.127
    23   8 O    1.757 --    22 C    1.428    21 N    0.113
    24   6 C    3.897 --     6 C    1.532    22 C    1.127    25 O    1.004
    25   8 O    1.992 --    24 C    1.004    42 H    0.838
    26   1 H    1.040 --     1 C    0.971
    27   1 H    1.020 --     1 C    0.979
    28   1 H    1.026 --     1 C    0.983
    29   1 H    1.019 --     4 C    0.988
    30   1 H    1.020 --     4 C    0.987
    31   1 H    1.025 --     4 C    0.988
    32   1 H    1.013 --    10 C    0.984
    33   1 H    1.007 --    10 C    0.987
    34   1 H    1.018 --    10 C    0.985
    35   1 H    1.007 --    11 C    0.987
    36   1 H    1.013 --    11 C    0.985
    37   1 H    1.021 --    11 C    0.984
    38   1 H    0.992 --    12 N    0.866
    39   1 H    1.000 --    19 C    0.983
    40   1 H    0.998 --    19 C    0.965
    41   1 H    0.998 --    19 C    0.966
    42   1 H    0.898 --    25 O    0.838
 ---------------------------------------------------------------------------

           -------------------------------------------------
          | TOTAL ENERGY              -83.630469127973 Eh   |
          | GRADIENT NORM               0.000772772293 Eh/α |
          | HOMO-LUMO GAP               0.746885288998 eV   |
           -------------------------------------------------

 * finished run on 2023/06/20 at 17:34:33.521
