   * xtb version 6.5.1 (579679a) compiled by 'ehlert@majestix' on 2022-07-11
          program call               : /lustre/hpc/kemi/ree/PhD/git/ReactivityQM/dep/xtb-6.5.1/bin/xtb --gfn 1 /lustre/hpc/kemi/ree/PhD/git/ReactivityQM/calculations/R02oxygendeprot/reac01prodN13/conf07/R02oxygendeprot_reac01prodN13_conf07_gfn1.xyz --opt --vfukui --chrg 0 --uhf 0 --alpb DMSO

   ID    Z sym.   atoms
    1    6 C      1, 3, 5, 7-10, 12, 14, 17-19, 22, 24
    2    8 O      2, 4, 13, 20, 23, 25
    3    7 N      6, 11, 15, 16, 21
    4    1 H      26-42

      * Solvation model:               ALPB
        Solvent                        DMSO
        Solvent mass                       7.8130E+01 g/mol
          :  Hamiltonian                  GFN1-xTB          :
 * total energy  :   -82.9266758 Eh     change       -0.1746798E-08 Eh
 * total energy  :   -82.9354355 Eh     change       -0.8759717E-02 Eh
 * total energy  :   -82.9386145 Eh     change       -0.3178968E-02 Eh
 * total energy  :   -82.9392281 Eh     change       -0.6136161E-03 Eh
 * total energy  :   -82.9397532 Eh     change       -0.5250673E-03 Eh
 * total energy  :   -82.9400595 Eh     change       -0.3063316E-03 Eh
 * total energy  :   -82.9402549 Eh     change       -0.1953950E-03 Eh
 * total energy  :   -82.9403464 Eh     change       -0.9151480E-04 Eh
 * total energy  :   -82.9403857 Eh     change       -0.3926487E-04 Eh
 * total energy  :   -82.9404132 Eh     change       -0.2755581E-04 Eh
 * total energy  :   -82.9404357 Eh     change       -0.2251405E-04 Eh
 * total energy  :   -82.9404508 Eh     change       -0.1506552E-04 Eh
 * total energy  :   -82.9404645 Eh     change       -0.1371758E-04 Eh
 * total energy  :   -82.9404741 Eh     change       -0.9558103E-05 Eh
 * total energy  :   -82.9404865 Eh     change       -0.1240722E-04 Eh
 * total energy  :   -82.9404954 Eh     change       -0.8963495E-05 Eh
 * total energy  :   -82.9405023 Eh     change       -0.6841643E-05 Eh
 * total energy  :   -82.9405081 Eh     change       -0.5805085E-05 Eh
 * total energy  :   -82.9405123 Eh     change       -0.4228123E-05 Eh
   *** GEOMETRY OPTIMIZATION CONVERGED AFTER 19 ITERATIONS ***

 final structure:
================
42
 xtb: 6.5.1 (579679a)
C            6.28118852707404        1.11911870144139       -0.35086020484352
O            4.97245582786435        0.55354202577706       -0.26618644456087
C            4.72094573908170       -0.47836419421698       -1.08794649679230
O            5.55010695898420       -0.91438743864111       -1.85501589353897
C            3.33646476876720       -0.98752726866205       -0.92990974613858
N            2.57568915833218       -0.34952619586446       -0.01577057367280
C            1.34475190753412       -0.71232492221939        0.19912063835516
C            0.54535357821822       -0.01486492289822        1.27275200986082
C            1.13329526612776        1.37050872904326        1.55908862633864
C            0.57981405665861       -0.90499760635678        2.52733880484959
N           -0.83567635772408        0.12494070936717        0.79656726855962
C           -1.82468152306153        0.64176203794602        1.55737629584579
O           -1.73417091876690        0.97831992681544        2.72475392661138
C           -3.09955095619758        0.76894655255200        0.80665868691545
N           -4.23338074218669        1.29515254643281        1.29626061685936
N           -5.12609275690749        1.26895545996043        0.37660361310035
C           -4.56590703219190        0.68757944963021       -0.81410147989604
C           -4.57365257376686        1.69925093068797       -1.96240352026750
C           -5.30199694829039       -0.60703186913414       -1.16814828656692
O           -3.21570427459988        0.38748389186409       -0.44447852686981
N            0.77637555759428       -1.75980630972975       -0.45426188220578
C            1.42070962306545       -2.51166874176750       -1.42602291277354
O            0.83954142807344       -3.42779564579370       -1.97100276620277
C            2.85068668310077       -2.09645377630155       -1.71210267555274
O            3.49871832781166       -2.70672585146494       -2.55761141102940
H            7.03451805207890        0.37181734318866       -0.08807583639028
H            6.31030406312718        1.94638535667924        0.35520275522833
H            6.47165583772454        1.48089145452415       -1.36475885930764
H            2.17622572061884        1.26373640614079        1.85292468539521
H            1.07904963255390        1.98811788171615        0.66438985705397
H            0.57939639669028        1.85111677125828        2.36282090036425
H            0.07696192255872       -1.84844338871677        2.32440698119127
H            0.08608867691117       -0.40558970899624        3.35789550873647
H            1.61631387750850       -1.10229217138066        2.79640870778006
H           -1.02570262807765       -0.02321342734259       -0.18077882688711
H           -4.04303998010328        2.59822307057151       -1.65601014849092
H           -5.60235187943490        1.94761183703085       -2.21122108518152
H           -4.08015027625407        1.26265161777330       -2.82733846178363
H           -5.24042194226140       -1.29623036362288       -0.32863407509989
H           -6.34354751148224       -0.37769388728566       -1.37941292446333
H           -4.83792574145804       -1.05525065203637       -2.04305097225630
H           -0.17265654529595       -2.02592435796896       -0.24730287227439

          :  Hamiltonian                  GFN1-xTB          :
         :: total energy             -82.940512319466 Eh    ::
         :: gradient norm              0.000597193003 Eh/a0 ::
         :: HOMO-LUMO gap              0.044211689291 eV    ::
         :: SCC energy               -83.707446447266 Eh    ::
         :: -> Gsolv                  -0.073683329349 Eh    ::
         :: repulsion energy           0.792440533581 Eh    ::

    * Orbital Energies and Occupations

         #    Occupation            Energy/Eh            Energy/eV
      -------------------------------------------------------------
         1        2.0000           -0.8816678             -23.9914
       ...           ...                  ...                  ...
        55        2.0000           -0.5128282             -13.9548
        56        2.0000           -0.5097373             -13.8707
        57        2.0000           -0.5080419             -13.8245
        58        2.0000           -0.5039437             -13.7130
        59        2.0000           -0.4920458             -13.3892
        60        2.0000           -0.4862308             -13.2310
        61        2.0000           -0.4822740             -13.1233
        62        2.0000           -0.4751538             -12.9296
        63        2.0000           -0.4680307             -12.7358
        64        2.0000           -0.4668915             -12.7048
        65        2.0000           -0.4607023             -12.5363
        66        2.0000           -0.4225127             -11.4972
        67        1.4033           -0.4072035             -11.0806 (HOMO)
        68        0.5967           -0.4055787             -11.0364 (LUMO)
        69                         -0.3218088              -8.7569
        70                         -0.3102413              -8.4421
        71                         -0.2850977              -7.7579
        72                         -0.2348796              -6.3914
        73                         -0.2222393              -6.0474
        74                         -0.1566956              -4.2639
        75                         -0.1428397              -3.8869
        76                         -0.1373483              -3.7374
        77                         -0.1344641              -3.6590
        78                         -0.1334040              -3.6301
       ...                                ...                  ...
       134                          0.7543640              20.5273
      -------------------------------------------------------------
                  HL-Gap            0.0016247 Eh            0.0442 eV

Wiberg/Mayer (AO) data.
largest (>0.10) Wiberg bond orders for each atom

     #   Z sym  total        # sym  WBO       # sym  WBO       # sym  WBO
 ---------------------------------------------------------------------------
     1   6 C    3.876 --    27 H    0.986    28 H    0.979    26 H    0.979
                             2 O    0.904
     2   8 O    2.176 --     3 C    1.089     1 C    0.904     4 O    0.130
     3   6 C    3.841 --     4 O    1.648     2 O    1.089     5 C    1.026
     4   8 O    1.890 --     3 C    1.648     2 O    0.130
     5   6 C    3.711 --     6 N    1.296    24 C    1.160     3 C    1.026
     6   7 N    2.985 --     7 C    1.477     5 C    1.296
     7   6 C    3.791 --     6 N    1.477    21 N    1.189     8 C    0.988
     8   6 C    3.924 --     7 C    0.988     9 C    0.985    10 C    0.966
                            11 N    0.920
     9   6 C    3.983 --     8 C    0.985    30 H    0.985    31 H    0.982
                            29 H    0.982
    10   6 C    3.973 --    32 H    0.985    34 H    0.984    33 H    0.976
                             8 C    0.966
    11   7 N    3.329 --    12 C    1.249     8 C    0.920    35 H    0.889
                            13 O    0.187
    12   6 C    3.909 --    13 O    1.585    11 N    1.249    14 C    0.992
    13   8 O    1.891 --    12 C    1.585    11 N    0.187
    14   6 C    3.624 --    15 N    1.315    20 O    1.174    12 C    0.992
    15   7 N    2.998 --    16 N    1.542    14 C    1.315
    16   7 N    2.687 --    15 N    1.542    17 C    1.024
    17   6 C    3.833 --    16 N    1.024    18 C    0.939    19 C    0.938
                            20 O    0.869
    18   6 C    3.938 --    36 H    0.982    37 H    0.982    38 H    0.980
                            17 C    0.939
    19   6 C    3.937 --    39 H    0.982    40 H    0.982    41 H    0.980
                            17 C    0.938
    20   8 O    2.198 --    14 C    1.174    17 C    0.869
    21   7 N    3.421 --     7 C    1.189    22 C    1.101    42 H    0.882
                            23 O    0.112
    22   6 C    3.837 --    23 O    1.658    21 N    1.101    24 C    0.948
    23   8 O    1.879 --    22 C    1.658    21 N    0.112
    24   6 C    3.866 --    25 O    1.620     5 C    1.160    22 C    0.948
    25   8 O    1.797 --    24 C    1.620
    26   1 H    1.007 --     1 C    0.979
    27   1 H    1.012 --     1 C    0.986
    28   1 H    1.007 --     1 C    0.979
    29   1 H    1.010 --     9 C    0.982
    30   1 H    1.002 --     9 C    0.985
    31   1 H    1.005 --     9 C    0.982
    32   1 H    1.000 --    10 C    0.985
    33   1 H    1.007 --    10 C    0.976
    34   1 H    1.000 --    10 C    0.984
    35   1 H    0.932 --    11 N    0.889
    36   1 H    0.996 --    18 C    0.982
    37   1 H    0.997 --    18 C    0.982
    38   1 H    0.996 --    18 C    0.980
    39   1 H    0.996 --    19 C    0.982
    40   1 H    0.997 --    19 C    0.982
    41   1 H    0.996 --    19 C    0.980
    42   1 H    0.927 --    21 N    0.882
 ---------------------------------------------------------------------------

           -------------------------------------------------
          | TOTAL ENERGY              -82.940512319466 Eh   |
          | GRADIENT NORM               0.000597193003 Eh/α |
          | HOMO-LUMO GAP               0.044211689291 eV   |
           -------------------------------------------------

 * finished run on 2023/06/21 at 17:29:06.693
