   * xtb version 6.5.1 (579679a) compiled by 'ehlert@majestix' on 2022-07-11
          program call               : /lustre/hpc/kemi/ree/PhD/git/ReactivityQM/dep/xtb-6.5.1/bin/xtb --gfn 1 /lustre/hpc/kemi/ree/PhD/git/ReactivityQM/calculations/R02/reac01prodE07/conf17/R02_reac01prodE07_conf17_gfn1.xyz --opt --vfukui --chrg -1 --uhf 0 --alpb DMSO

   ID    Z sym.   atoms
    1    6 C      1, 3, 5, 7-10, 12, 14, 15, 18, 19, 22, 24
    2    8 O      2, 4, 13, 20, 23, 25
    3    7 N      6, 11, 16, 17, 21
    4    1 H      26-43

      * Solvation model:               ALPB
        Solvent                        DMSO
        Solvent mass                       7.8130E+01 g/mol
          :  Hamiltonian                  GFN1-xTB          :
 * total energy  :   -83.8213952 Eh     change       -0.1378027E-09 Eh
 * total energy  :   -83.8338672 Eh     change       -0.1247199E-01 Eh
 * total energy  :   -83.8393081 Eh     change       -0.5440900E-02 Eh
 * total energy  :   -83.8402103 Eh     change       -0.9021283E-03 Eh
 * total energy  :   -83.8406983 Eh     change       -0.4880188E-03 Eh
 * total energy  :   -83.8408965 Eh     change       -0.1982695E-03 Eh
 * total energy  :   -83.8410598 Eh     change       -0.1632891E-03 Eh
 * total energy  :   -83.8411915 Eh     change       -0.1316990E-03 Eh
 * total energy  :   -83.8413145 Eh     change       -0.1230074E-03 Eh
 * total energy  :   -83.8414266 Eh     change       -0.1120592E-03 Eh
 * total energy  :   -83.8443223 Eh     change       -0.1038250E-04 Eh
 * total energy  :   -83.8443311 Eh     change       -0.8828799E-05 Eh
 * total energy  :   -83.8443378 Eh     change       -0.6655709E-05 Eh
 * total energy  :   -83.8443462 Eh     change       -0.8446011E-05 Eh
 * total energy  :   -83.8443578 Eh     change       -0.1164153E-04 Eh
 * total energy  :   -83.8443696 Eh     change       -0.1176501E-04 Eh
 * total energy  :   -83.8443777 Eh     change       -0.8128708E-05 Eh
 * total energy  :   -83.8443832 Eh     change       -0.5469642E-05 Eh
 * total energy  :   -83.8443878 Eh     change       -0.4641860E-05 Eh
   *** GEOMETRY OPTIMIZATION CONVERGED AFTER 63 ITERATIONS ***

 final structure:
================
43
 xtb: 6.5.1 (579679a)
C           -5.60735189258502        2.20937843012733       -1.02763302411592
O           -4.49219143011425        1.40467657077427       -0.65902088157543
C           -4.72487376876206        0.48279295976581        0.30342926546907
O           -5.83873164339113        0.36793915022563        0.82519279648471
C           -3.57610974703231       -0.32985647882719        0.64762674187666
N           -2.39153799358380       -0.08297950930713       -0.01571258858030
C           -1.36272961442572       -0.80764097538784        0.26324528087041
C           -0.05054780849139       -0.60901205885204       -0.46327782816094
C           -0.00317004820802       -1.59909230718961       -1.63512227439935
C            0.06566502750676        0.83699312390473       -0.96322736983067
N            1.01629330874082       -0.92600178209934        0.51436845505435
C            2.35143552461358       -0.75987513672543        0.04743543539872
O            2.82751122579218       -1.79284442915023       -0.75173313244858
C            3.76107359598325       -1.44155229941856       -1.75970055151502
C            3.08041938916354        0.28511720564560        0.54704270675646
N            2.56960097019741        1.24898916893001        1.34824058186278
N            3.60824459272501        2.10776612194292        1.61422245314420
C            4.65098758374332        1.67148968147472        0.99891712066532
C            6.00987779713167        2.27030335515497        0.98168905050674
O            4.41697585990040        0.51928163314028        0.29583165784564
N           -1.39827691365734       -1.81190193211104        1.18803608137746
C           -2.52422766120374       -2.14444872151621        1.94156338174595
O           -2.45979929688081       -3.05398285517341        2.77260063798720
C           -3.66675448056031       -1.33286733375485        1.61800447195414
O           -4.81631396283566       -1.59089282061664        2.28784457281520
H           -5.26443697909106        2.88757569501665       -1.80757141459686
H           -6.42139689910624        1.58497631022613       -1.40719394451573
H           -5.96952992060490        2.78086216607997       -0.16795914960027
H           -0.90771443410363       -1.50101377870177       -2.23487525308222
H            0.06728514706276       -2.61886253939436       -1.25819723513316
H            0.85740510006375       -1.39928782421659       -2.26990632502461
H            0.12248304143048        1.52184184601488       -0.11644986648808
H            0.96377439362907        0.95211658185942       -1.56831930305643
H           -0.80643335629370        1.08834318638768       -1.56551805270093
H            0.90355669246652       -0.28675704659966        1.30537012589555
H            3.82196546626500       -2.28779082344301       -2.44689314644117
H            4.75410416939935       -1.25256053117950       -1.33606462257626
H            3.43500825900544       -0.55085836510585       -2.31052779782466
H            6.74122487147604        1.57255291921400        1.39131652499638
H            6.30894411483685        2.50784377786081       -0.03959734300747
H            6.01174931580195        3.18098397242191        1.57638107727625
H           -0.54655909921951       -2.32661362253295        1.36854009836131
H           -5.51689849679382       -0.97512968486773        1.96760158633317

          :  Hamiltonian                  GFN1-xTB          :
         :: total energy             -83.844387845188 Eh    ::
         :: gradient norm              0.000438855604 Eh/a0 ::
         :: HOMO-LUMO gap              0.083150864885 eV    ::
         :: SCC energy               -84.591255213094 Eh    ::
         :: -> Gsolv                  -0.103123086995 Eh    ::
         :: repulsion energy           0.773399353572 Eh    ::

    * Orbital Energies and Occupations

         #    Occupation            Energy/Eh            Energy/eV
      -------------------------------------------------------------
         1        2.0000           -0.8121425             -22.0995
       ...           ...                  ...                  ...
        56        2.0000           -0.4744685             -12.9109
        57        2.0000           -0.4604452             -12.5294
        58        2.0000           -0.4570410             -12.4367
        59        2.0000           -0.4526280             -12.3166
        60        2.0000           -0.4441080             -12.0848
        61        2.0000           -0.4287394             -11.6666
        62        2.0000           -0.4207715             -11.4498
        63        2.0000           -0.4196016             -11.4179
        64        2.0000           -0.4146557             -11.2834
        65        2.0000           -0.4000788             -10.8867
        66        2.0000           -0.3978969             -10.8273
        67        2.0000           -0.3958304             -10.7711
        68        1.6663           -0.3044900              -8.2856 (HOMO)
        69        0.3337           -0.3014343              -8.2024 (LUMO)
        70                         -0.2510065              -6.8302
        71                         -0.2107121              -5.7338
        72                         -0.2060211              -5.6061
        73                         -0.1598400              -4.3495
        74                         -0.1269468              -3.4544
        75                         -0.1267455              -3.4489
        76                         -0.1227061              -3.3390
        77                         -0.1193658              -3.2481
        78                         -0.1078818              -2.9356
        79                         -0.1059788              -2.8838
       ...                                ...                  ...
       136                          0.7079714              19.2649
      -------------------------------------------------------------
                  HL-Gap            0.0030557 Eh            0.0832 eV

Wiberg/Mayer (AO) data.
largest (>0.10) Wiberg bond orders for each atom

     #   Z sym  total        # sym  WBO       # sym  WBO       # sym  WBO
 ---------------------------------------------------------------------------
     1   6 C    3.888 --    26 H    0.987    27 H    0.980    28 H    0.980
                             2 O    0.915
     2   8 O    2.142 --     3 C    1.059     1 C    0.915     4 O    0.105
     3   6 C    3.756 --     4 O    1.519     5 C    1.109     2 O    1.059
     4   8 O    1.833 --     3 C    1.519     2 O    0.105
     5   6 C    3.862 --    24 C    1.358     6 N    1.157     3 C    1.109
     6   7 N    3.004 --     7 C    1.594     5 C    1.157
     7   6 C    3.914 --     6 N    1.594    21 N    1.159     8 C    0.982
     8   6 C    3.952 --    10 C    0.990     7 C    0.982     9 C    0.982
                            11 N    0.938
     9   6 C    3.993 --    29 H    0.987    30 H    0.985    31 H    0.982
                             8 C    0.982
    10   6 C    3.993 --     8 C    0.990    33 H    0.985    32 H    0.984
                            34 H    0.983
    11   7 N    3.044 --    12 C    1.007     8 C    0.938    35 H    0.931
    12   6 C    3.588 --    15 C    1.431    11 N    1.007    13 O    0.961
    13   8 O    2.032 --    12 C    0.961    14 C    0.935
    14   6 C    3.907 --    36 H    0.985    38 H    0.981    37 H    0.980
                            13 O    0.935
    15   6 C    3.857 --    12 C    1.431    16 N    1.292    20 O    0.973
    16   7 N    2.710 --    15 C    1.292    17 N    1.166
    17   7 N    2.983 --    18 C    1.657    16 N    1.166
    18   6 C    3.821 --    17 N    1.657    19 C    1.023    20 O    1.007
    19   6 C    3.994 --    18 C    1.023    41 H    0.986    40 H    0.972
                            39 H    0.972
    20   8 O    2.187 --    18 C    1.007    15 C    0.973
    21   7 N    3.380 --     7 C    1.159    22 C    1.072    42 H    0.887
                            23 O    0.112
    22   6 C    3.851 --    23 O    1.521    24 C    1.145    21 N    1.072
    23   8 O    1.788 --    22 C    1.521    21 N    0.112
    24   6 C    3.773 --     5 C    1.358    22 C    1.145    25 O    1.072
    25   8 O    2.010 --    24 C    1.072    43 H    0.788
    26   1 H    1.014 --     1 C    0.987
    27   1 H    1.010 --     1 C    0.980
    28   1 H    1.010 --     1 C    0.980
    29   1 H    1.006 --     9 C    0.987
    30   1 H    1.010 --     9 C    0.985
    31   1 H    1.008 --     9 C    0.982
    32   1 H    1.014 --    10 C    0.984
    33   1 H    1.009 --    10 C    0.985
    34   1 H    1.015 --    10 C    0.983
    35   1 H    0.986 --    11 N    0.931
    36   1 H    1.017 --    14 C    0.985
    37   1 H    1.021 --    14 C    0.980
    38   1 H    1.010 --    14 C    0.981
    39   1 H    1.002 --    19 C    0.972
    40   1 H    1.002 --    19 C    0.972
    41   1 H    1.005 --    19 C    0.986
    42   1 H    0.957 --    21 N    0.887
    43   1 H    0.871 --    25 O    0.788
 ---------------------------------------------------------------------------

           -------------------------------------------------
          | TOTAL ENERGY              -83.844387845188 Eh   |
          | GRADIENT NORM               0.000438855604 Eh/α |
          | HOMO-LUMO GAP               0.083150864885 eV   |
           -------------------------------------------------

 * finished run on 2023/06/20 at 15:03:43.118
