   * xtb version 6.5.1 (579679a) compiled by 'ehlert@majestix' on 2022-07-11
          program call               : /lustre/hpc/kemi/ree/PhD/git/ReactivityQM/dep/xtb-6.5.1/bin/xtb --gfn 1 /lustre/hpc/kemi/ree/PhD/git/ReactivityQM/calculations/R02methylcation/reac01prodN02/conf18/R02methylcation_reac01prodN02_conf18_gfn1.xyz --opt --vfukui --chrg 0 --uhf 0 --alpb DMSO

   ID    Z sym.   atoms
    1    6 C      1, 3, 5, 7-10, 12, 14, 15, 18, 19, 22, 24
    2    8 O      2, 4, 13, 20, 23, 25
    3    7 N      6, 11, 16, 17, 21
    4    1 H      26-42

      * Solvation model:               ALPB
        Solvent                        DMSO
        Solvent mass                       7.8130E+01 g/mol
          :  Hamiltonian                  GFN1-xTB          :
 * total energy  :   -82.9445387 Eh     change       -0.3775114E-09 Eh
 * total energy  :   -82.9631915 Eh     change       -0.1865287E-01 Eh
 * total energy  :   -82.9711143 Eh     change       -0.7922723E-02 Eh
 * total energy  :   -82.9722871 Eh     change       -0.1172872E-02 Eh
 * total energy  :   -82.9730320 Eh     change       -0.7448204E-03 Eh
 * total energy  :   -82.9733172 Eh     change       -0.2852634E-03 Eh
 * total energy  :   -82.9735829 Eh     change       -0.2656466E-03 Eh
 * total energy  :   -82.9738342 Eh     change       -0.2513316E-03 Eh
 * total energy  :   -82.9740649 Eh     change       -0.2307313E-03 Eh
 * total energy  :   -82.9742878 Eh     change       -0.2229059E-03 Eh
 * total energy  :   -82.9760611 Eh     change       -0.3580369E-04 Eh
 * total energy  :   -82.9760774 Eh     change       -0.1628965E-04 Eh
 * total energy  :   -82.9760897 Eh     change       -0.1231874E-04 Eh
 * total energy  :   -82.9761186 Eh     change       -0.2893021E-04 Eh
 * total energy  :   -82.9761348 Eh     change       -0.1624441E-04 Eh
 * total energy  :   -82.9761553 Eh     change       -0.2043095E-04 Eh
 * total energy  :   -82.9761735 Eh     change       -0.1820611E-04 Eh
 * total energy  :   -82.9761805 Eh     change       -0.6970897E-05 Eh
 * total energy  :   -82.9761848 Eh     change       -0.4370072E-05 Eh
   *** GEOMETRY OPTIMIZATION CONVERGED AFTER 33 ITERATIONS ***

 final structure:
================
42
 xtb: 6.5.1 (579679a)
C            2.98095875619029        4.47961959540493       -1.04098218196634
O            3.24700524859827        3.28253620060705       -0.31977531220017
C            2.23416792520851        2.38993264532710       -0.26575194655359
O            1.16073062885717        2.61431413564876       -0.81272165878743
C            2.52963077697148        1.17384491434134        0.47850887605507
N            1.45829379100829        0.30165877895162        0.49388989051143
C            1.52972050930027       -0.82686251875971        1.09534621159589
C            0.32359936283911       -1.74893699230136        1.06406110872528
C           -0.20524159138476       -2.02249760240262        2.47572859693755
C            0.64816977242999       -3.04682353182076        0.31672890553123
N           -0.67212911769465       -0.97604025415674        0.30928954601747
C           -1.88268218530814       -1.31460510360616       -0.01274533117478
O           -2.33637047181587       -2.48697679945555        0.33947250201159
C           -3.65640878560572       -2.94153156063718        0.00837140595412
C           -2.67353630835627       -0.35481705691103       -0.75329505821029
N           -3.89350202794547       -0.45098814124734       -1.20736080887413
N           -4.17523932111067        0.71374228650037       -1.82290063893988
C           -3.11388332295110        1.46886621385975       -1.71620045514209
C           -2.93258138185144        2.84054442464339       -2.22826727968505
O           -2.13635443603280        0.84496880047622       -1.05174853404008
N            2.66076325216259       -1.23447562617638        1.75707070237159
C            3.80479957132125       -0.46792747477006        1.83291261339912
O            4.77448431064353       -0.89264939199433        2.44823156393918
C            3.75692383553266        0.87200305745614        1.12433630720611
O            4.76625028541786        1.59332288334405        1.15681838139931
H            2.15298109239547        5.02802537226909       -0.58241984300459
H            2.72161184481103        4.25318163776256       -2.07925928510794
H            3.88838930878119        5.08163334946690       -1.00765834981012
H           -1.07663656011721       -2.67157086227668        2.43645183044032
H           -0.47833137709144       -1.08585640567941        2.95901735180592
H            0.57002140438236       -2.51340385584648        3.06061980816967
H            1.45217582475709       -3.56540362083504        0.83530316951742
H           -0.22232827648761       -3.69701392295984        0.28369288105115
H            0.96582202873049       -2.82182111626372       -0.69995462644006
H           -0.29258782163461       -0.05199524303119        0.02317883749188
H           -3.73645782800789       -3.93863251610063        0.43692728262970
H           -3.77890710639341       -2.97719230373533       -1.07524696940420
H           -4.40317839962924       -2.27471866023158        0.44186985291724
H           -3.84138342223649        3.16613846009515       -2.72846721332460
H           -2.09657762652088        2.86823377771691       -2.92822565942981
H           -2.70325879152318        3.51649159899550       -1.40396065361687
H            2.68107762934712       -2.12631657167772        2.22224318000381

          :  Hamiltonian                  GFN1-xTB          :
         :: total energy             -82.976184823602 Eh    ::
         :: gradient norm              0.000626240260 Eh/a0 ::
         :: HOMO-LUMO gap              0.354534592399 eV    ::
         :: SCC energy               -83.750963808114 Eh    ::
         :: -> Gsolv                  -0.087724870702 Eh    ::
         :: repulsion energy           0.800691494805 Eh    ::

    * Orbital Energies and Occupations

         #    Occupation            Energy/Eh            Energy/eV
      -------------------------------------------------------------
         1        2.0000           -0.8951019             -24.3570
       ...           ...                  ...                  ...
        55        2.0000           -0.5056617             -13.7598
        56        2.0000           -0.5000291             -13.6065
        57        2.0000           -0.4984595             -13.5638
        58        2.0000           -0.4920533             -13.3895
        59        2.0000           -0.4818710             -13.1124
        60        2.0000           -0.4773196             -12.9885
        61        2.0000           -0.4700521             -12.7908
        62        2.0000           -0.4678356             -12.7305
        63        2.0000           -0.4539502             -12.3526
        64        2.0000           -0.4448912             -12.1061
        65        2.0000           -0.4349689             -11.8361
        66        2.0000           -0.3901945             -10.6177
        67        1.9979           -0.3770526             -10.2601 (HOMO)
        68        0.0021           -0.3640237              -9.9056 (LUMO)
        69                         -0.2822227              -7.6797
        70                         -0.2797555              -7.6125
        71                         -0.2554628              -6.9515
        72                         -0.2463504              -6.7035
        73                         -0.2061614              -5.6099
        74                         -0.1573798              -4.2825
        75                         -0.1506371              -4.0990
        76                         -0.1415297              -3.8512
        77                         -0.1336613              -3.6371
        78                         -0.1233915              -3.3577
       ...                                ...                  ...
       134                          0.7545447              20.5322
      -------------------------------------------------------------
                  HL-Gap            0.0130289 Eh            0.3545 eV

Wiberg/Mayer (AO) data.
largest (>0.10) Wiberg bond orders for each atom

     #   Z sym  total        # sym  WBO       # sym  WBO       # sym  WBO
 ---------------------------------------------------------------------------
     1   6 C    3.894 --    28 H    0.987    26 H    0.980    27 H    0.980
                             2 O    0.920
     2   8 O    2.169 --     3 C    1.062     1 C    0.920     4 O    0.112
     3   6 C    3.853 --     4 O    1.577     5 C    1.105     2 O    1.062
     4   8 O    1.855 --     3 C    1.577     2 O    0.112
     5   6 C    3.907 --    24 C    1.266     6 N    1.148     3 C    1.105
                            25 O    0.129
     6   7 N    3.094 --     7 C    1.616     5 C    1.148
     7   6 C    3.936 --     6 N    1.616    21 N    1.113     8 C    0.974
     8   6 C    3.904 --     9 C    0.980    10 C    0.979     7 C    0.974
                            11 N    0.900
     9   6 C    3.982 --    30 H    0.984    29 H    0.982    31 H    0.981
                             8 C    0.980
    10   6 C    3.982 --    34 H    0.984    33 H    0.982    32 H    0.981
                             8 C    0.979
    11   7 N    3.508 --    12 C    1.498     8 C    0.900    35 H    0.815
                            13 O    0.113
    12   6 C    3.899 --    11 N    1.498    13 O    1.177    15 C    1.077
    13   8 O    2.265 --    12 C    1.177    14 C    0.866    11 N    0.113
    14   6 C    3.834 --    36 H    0.980    37 H    0.975    38 H    0.975
                            13 O    0.866
    15   6 C    3.888 --    16 N    1.553    12 C    1.077    20 O    1.054
    16   7 N    3.028 --    15 C    1.553    17 N    1.246
    17   7 N    2.985 --    18 C    1.552    16 N    1.246
    18   6 C    3.853 --    17 N    1.552    20 O    1.093    19 C    1.039
    19   6 C    3.980 --    18 C    1.039    39 H    0.981    41 H    0.956
                            40 H    0.955
    20   8 O    2.342 --    18 C    1.093    15 C    1.054
    21   7 N    3.424 --    22 C    1.139     7 C    1.113    42 H    0.894
                            23 O    0.132
    22   6 C    3.873 --    23 O    1.600    21 N    1.139    24 C    0.962
    23   8 O    1.879 --    22 C    1.600    21 N    0.132
    24   6 C    3.943 --    25 O    1.534     5 C    1.266    22 C    0.962
    25   8 O    1.840 --    24 C    1.534     5 C    0.129
    26   1 H    1.012 --     1 C    0.980
    27   1 H    1.013 --     1 C    0.980
    28   1 H    1.015 --     1 C    0.987
    29   1 H    1.003 --     9 C    0.982
    30   1 H    1.000 --     9 C    0.984
    31   1 H    0.998 --     9 C    0.981
    32   1 H    0.998 --    10 C    0.981
    33   1 H    1.003 --    10 C    0.982
    34   1 H    1.000 --    10 C    0.984
    35   1 H    0.950 --    11 N    0.815
    36   1 H    1.003 --    14 C    0.980
    37   1 H    1.009 --    14 C    0.975
    38   1 H    1.010 --    14 C    0.975
    39   1 H    0.996 --    19 C    0.981
    40   1 H    0.993 --    19 C    0.955
    41   1 H    0.993 --    19 C    0.956
    42   1 H    0.941 --    21 N    0.894
 ---------------------------------------------------------------------------

           -------------------------------------------------
          | TOTAL ENERGY              -82.976184823602 Eh   |
          | GRADIENT NORM               0.000626240260 Eh/α |
          | HOMO-LUMO GAP               0.354534592399 eV   |
           -------------------------------------------------

 * finished run on 2023/06/21 at 17:31:06.934
