   * xtb version 6.5.1 (579679a) compiled by 'ehlert@majestix' on 2022-07-11
          program call               : /lustre/hpc/kemi/ree/PhD/git/ReactivityQM/dep/xtb-6.5.1/bin/xtb --gfn 1 /lustre/hpc/kemi/ree/PhD/git/ReactivityQM/calculations/R02oxygendeprot/reac01prodN07/conf06/R02oxygendeprot_reac01prodN07_conf06_gfn1.xyz --opt --vfukui --chrg 0 --uhf 0 --alpb DMSO

   ID    Z sym.   atoms
    1    6 C      1, 3, 5, 7-10, 12, 14, 17-19, 22, 24
    2    8 O      2, 4, 13, 20, 23, 25
    3    7 N      6, 11, 15, 16, 21
    4    1 H      26-42

      * Solvation model:               ALPB
        Solvent                        DMSO
        Solvent mass                       7.8130E+01 g/mol
          :  Hamiltonian                  GFN1-xTB          :
 * total energy  :   -82.9456256 Eh     change       -0.5937011E-09 Eh
 * total energy  :   -82.9633704 Eh     change       -0.1774476E-01 Eh
 * total energy  :   -82.9708617 Eh     change       -0.7491357E-02 Eh
 * total energy  :   -82.9724559 Eh     change       -0.1594129E-02 Eh
 * total energy  :   -82.9734587 Eh     change       -0.1002801E-02 Eh
 * total energy  :   -82.9738990 Eh     change       -0.4403785E-03 Eh
 * total energy  :   -82.9743631 Eh     change       -0.4641042E-03 Eh
 * total energy  :   -82.9747361 Eh     change       -0.3729225E-03 Eh
 * total energy  :   -82.9750108 Eh     change       -0.2747414E-03 Eh
 * total energy  :   -82.9753152 Eh     change       -0.3044180E-03 Eh
 * total energy  :   -82.9836746 Eh     change       -0.1522047E-04 Eh
 * total energy  :   -82.9836934 Eh     change       -0.1874403E-04 Eh
 * total energy  :   -82.9837161 Eh     change       -0.2266371E-04 Eh
 * total energy  :   -82.9837420 Eh     change       -0.2593260E-04 Eh
 * total energy  :   -82.9837698 Eh     change       -0.2778710E-04 Eh
 * total energy  :   -82.9837868 Eh     change       -0.1700880E-04 Eh
 * total energy  :   -82.9837941 Eh     change       -0.7352798E-05 Eh
 * total energy  :   -82.9838012 Eh     change       -0.7086025E-05 Eh
 * total energy  :   -82.9838062 Eh     change       -0.4955812E-05 Eh
   *** GEOMETRY OPTIMIZATION CONVERGED AFTER 62 ITERATIONS ***

 final structure:
================
42
 xtb: 6.5.1 (579679a)
C           -6.93771705108855        0.72113651334860       -1.20187848538430
O           -5.70273769540734        1.07995213061243       -0.59799785513265
C           -4.77740860237772        0.09308844485227       -0.51100463693994
O           -5.01727895662571       -1.02814704782369       -0.94339024090462
C           -3.52662286602137        0.48534535798357        0.12329267199269
N           -2.60812826172497       -0.54812095839640        0.17319224110102
C           -1.46427022343434       -0.37322052513477        0.71524956198030
C           -0.46968171306399       -1.51030346700599        0.80868746178073
C           -0.46143962814377       -2.08252013899758        2.22871960174115
C           -0.80212365114492       -2.59306090552605       -0.21995897378789
N            0.88476495051824       -0.98213584596491        0.55056951105720
C            1.19245775069675       -0.29127174729102       -0.55166898624992
O            0.44634786544091        0.00922465922497       -1.46043997373026
C            2.63525092528736        0.13902111499596       -0.57187224179525
N            3.23087423424387        0.84804594955105       -1.48221467460633
N            4.49999809526928        0.97185167657415       -1.04957014376351
C            5.46562829274155        1.71659054073542       -1.82971518709969
C            4.64935325308464        0.34863836088578        0.09913735352604
C            5.85124743236870        0.21895898001389        0.93754801137954
O            3.48820255774893       -0.18490896895568        0.42231289649530
N           -1.09389062169968        0.82922799699691        1.28392364684479
C           -1.88961736527365        1.94719696235698        1.27820416367862
O           -1.47650475435951        2.99080924232115        1.77670654996778
C           -3.25307041930852        1.77895915333619        0.64135673665467
O           -4.01940422892909        2.75850215836373        0.61820705622750
H           -7.55478598845439        1.61840460591278       -1.22463975752639
H           -7.43959098817400       -0.05884113626045       -0.62103825752078
H           -6.77980410951452        0.35396838557234       -2.22068701298217
H           -1.45077496212940       -2.46712923511376        2.47349562363285
H           -0.19668918054807       -1.30666685333782        2.94479888846303
H            0.26086616668015       -2.89286445541303        2.30381083731071
H           -1.79674177937671       -2.98629831346098       -0.01214611976813
H           -0.07347287994458       -3.39802895744537       -0.16040068886779
H           -0.79386878361648       -2.17300667458612       -1.22493717829485
H            1.61081335530553       -1.20693091413416        1.20498591910628
H            6.43069500076524        1.22261791000540       -1.75228224861934
H            5.12312955767692        1.73607159835087       -2.86163638471190
H            5.53521087242571        2.72987968116476       -1.43517677636104
H            5.63132980667727       -0.41805409808039        1.79161589652877
H            6.66757396863484       -0.20955316752108        0.35501828190135
H            6.17030260348797        1.20242293220035        1.28621944382106
H           -0.18842397875707        0.91114805503189        1.71021946887901

          :  Hamiltonian                  GFN1-xTB          :
         :: total energy             -82.983806177225 Eh    ::
         :: gradient norm              0.000612318122 Eh/a0 ::
         :: HOMO-LUMO gap              0.429641457139 eV    ::
         :: SCC energy               -83.774117183945 Eh    ::
         :: -> Gsolv                  -0.147508794740 Eh    ::
         :: repulsion energy           0.815682962001 Eh    ::

    * Orbital Energies and Occupations

         #    Occupation            Energy/Eh            Energy/eV
      -------------------------------------------------------------
         1        2.0000           -0.9353474             -25.4521
       ...           ...                  ...                  ...
        55        2.0000           -0.5059090             -13.7665
        56        2.0000           -0.5029790             -13.6868
        57        2.0000           -0.4943812             -13.4528
        58        2.0000           -0.4896602             -13.3243
        59        2.0000           -0.4820955             -13.1185
        60        2.0000           -0.4675272             -12.7221
        61        2.0000           -0.4672668             -12.7150
        62        2.0000           -0.4605451             -12.5321
        63        2.0000           -0.4441148             -12.0850
        64        2.0000           -0.4393551             -11.9555
        65        2.0000           -0.4212845             -11.4637
        66        2.0000           -0.3829931             -10.4218
        67        1.9995           -0.3700618             -10.0699 (HOMO)
        68        0.0005           -0.3542727              -9.6403 (LUMO)
        69                         -0.3410245              -9.2797
        70                         -0.2738422              -7.4516
        71                         -0.2438989              -6.6368
        72                         -0.2353030              -6.4029
        73                         -0.2006490              -5.4599
        74                         -0.1832792              -4.9873
        75                         -0.1705693              -4.6414
        76                         -0.1337429              -3.6393
        77                         -0.1232959              -3.3551
        78                         -0.1219693              -3.3190
       ...                                ...                  ...
       134                          0.7524841              20.4761
      -------------------------------------------------------------
                  HL-Gap            0.0157890 Eh            0.4296 eV

Wiberg/Mayer (AO) data.
largest (>0.10) Wiberg bond orders for each atom

     #   Z sym  total        # sym  WBO       # sym  WBO       # sym  WBO
 ---------------------------------------------------------------------------
     1   6 C    3.898 --    26 H    0.987    27 H    0.980    28 H    0.980
                             2 O    0.924
     2   8 O    2.162 --     3 C    1.051     1 C    0.924     4 O    0.111
     3   6 C    3.850 --     4 O    1.577     5 C    1.110     2 O    1.051
     4   8 O    1.851 --     3 C    1.577     2 O    0.111
     5   6 C    3.912 --    24 C    1.271     6 N    1.154     3 C    1.110
                            25 O    0.129
     6   7 N    3.032 --     7 C    1.638     5 C    1.154
     7   6 C    3.932 --     6 N    1.638    21 N    1.090     8 C    0.972
     8   6 C    3.916 --    10 C    0.991     9 C    0.989     7 C    0.972
                            11 N    0.899
     9   6 C    3.989 --     8 C    0.989    30 H    0.984    31 H    0.983
                            29 H    0.983
    10   6 C    3.989 --     8 C    0.991    33 H    0.987    32 H    0.982
                            34 H    0.982
    11   7 N    3.388 --    12 C    1.300     8 C    0.899    35 H    0.891
                            13 O    0.201
    12   6 C    3.927 --    13 O    1.599    11 N    1.300    14 C    0.954
    13   8 O    1.918 --    12 C    1.599    11 N    0.201
    14   6 C    3.833 --    15 N    1.614    20 O    1.051    12 C    0.954
    15   7 N    2.977 --    14 C    1.614    16 N    1.148
    16   7 N    3.632 --    18 C    1.428    15 N    1.148    17 C    0.911
    17   6 C    3.887 --    37 H    0.976    36 H    0.976    38 H    0.964
                            16 N    0.911
    18   6 C    3.841 --    16 N    1.428    20 O    1.146    19 C    1.041
    19   6 C    3.961 --    18 C    1.041    39 H    0.972    40 H    0.947
                            41 H    0.944
    20   8 O    2.373 --    18 C    1.146    14 C    1.051
    21   7 N    3.421 --    22 C    1.158     7 C    1.090    42 H    0.899
                            23 O    0.135
    22   6 C    3.876 --    23 O    1.581    21 N    1.158    24 C    0.966
    23   8 O    1.861 --    22 C    1.581    21 N    0.135
    24   6 C    3.942 --    25 O    1.523     5 C    1.271    22 C    0.966
    25   8 O    1.827 --    24 C    1.523     5 C    0.129
    26   1 H    1.015 --     1 C    0.987
    27   1 H    1.013 --     1 C    0.980
    28   1 H    1.014 --     1 C    0.980
    29   1 H    1.001 --     9 C    0.983
    30   1 H    0.999 --     9 C    0.984
    31   1 H    0.997 --     9 C    0.983
    32   1 H    1.012 --    10 C    0.982
    33   1 H    1.002 --    10 C    0.987
    34   1 H    1.011 --    10 C    0.982
    35   1 H    0.929 --    11 N    0.891
    36   1 H    0.990 --    17 C    0.976
    37   1 H    0.992 --    17 C    0.976
    38   1 H    0.990 --    17 C    0.964
    39   1 H    0.986 --    19 C    0.972
    40   1 H    0.986 --    19 C    0.947
    41   1 H    0.986 --    19 C    0.944
    42   1 H    0.948 --    21 N    0.899
 ---------------------------------------------------------------------------

           -------------------------------------------------
          | TOTAL ENERGY              -82.983806177225 Eh   |
          | GRADIENT NORM               0.000612318122 Eh/α |
          | HOMO-LUMO GAP               0.429641457139 eV   |
           -------------------------------------------------

 * finished run on 2023/06/21 at 17:23:08.299
