   * xtb version 6.5.1 (579679a) compiled by 'ehlert@majestix' on 2022-07-11
          program call               : /lustre/hpc/kemi/ree/PhD/git/ReactivityQM/dep/xtb-6.5.1/bin/xtb --gfn 1 /lustre/hpc/kemi/ree/PhD/git/ReactivityQM/calculations/R01/reac02prodE07/conf16/R01_reac02prodE07_conf16_gfn1.xyz --opt --vfukui --chrg -1 --uhf 0 --alpb DMSO

   ID    Z sym.   atoms
    1    6 C      1, 3, 5, 6, 8, 10, 12-15
    2    8 O      2, 4, 7, 9
    3    7 N      11, 16, 17
    4    1 H      18-33

      * Solvation model:               ALPB
        Solvent                        DMSO
        Solvent mass                       7.8130E+01 g/mol
          :  Hamiltonian                  GFN1-xTB          :
 * total energy  :   -58.4988352 Eh     change       -0.1679723E-10 Eh
 * total energy  :   -58.5140829 Eh     change       -0.1524767E-01 Eh
 * total energy  :   -58.5181236 Eh     change       -0.4040785E-02 Eh
 * total energy  :   -58.5185991 Eh     change       -0.4754622E-03 Eh
 * total energy  :   -58.5188695 Eh     change       -0.2704342E-03 Eh
 * total energy  :   -58.5189642 Eh     change       -0.9463883E-04 Eh
 * total energy  :   -58.5190787 Eh     change       -0.1145284E-03 Eh
 * total energy  :   -58.5191551 Eh     change       -0.7640244E-04 Eh
 * total energy  :   -58.5192209 Eh     change       -0.6574936E-04 Eh
 * total energy  :   -58.5192961 Eh     change       -0.7522327E-04 Eh
 * total energy  :   -58.5252847 Eh     change       -0.1527390E-04 Eh
 * total energy  :   -58.5252974 Eh     change       -0.1275962E-04 Eh
 * total energy  :   -58.5252891 Eh     change        0.8283649E-05 Eh
 * total energy  :   -58.5253104 Eh     change       -0.2131530E-04 Eh
 * total energy  :   -58.5253166 Eh     change       -0.6158235E-05 Eh
 * total energy  :   -58.5253227 Eh     change       -0.6070940E-05 Eh
 * total energy  :   -58.5253304 Eh     change       -0.7743341E-05 Eh
 * total energy  :   -58.5253349 Eh     change       -0.4495140E-05 Eh
 * total energy  :   -58.5253387 Eh     change       -0.3758811E-05 Eh
   *** GEOMETRY OPTIMIZATION CONVERGED AFTER 66 ITERATIONS ***

 final structure:
================
33
 xtb: 6.5.1 (579679a)
C            4.57743386737497       -1.56807087309429        0.04045532077174
O            3.19217551774025       -1.30739673994685        0.13462249468394
C            2.84297676633622        0.05112505200294        0.10541004552056
O            3.77678332998199        0.91081230711546        0.02193382793896
C            1.49631425586133        0.33708114359336        0.18908925204715
C            1.02632154246941        1.71965437069446        0.09955187756538
O            1.94496106202124        2.69379370113652       -0.17127209258347
C           -0.28243213271718        1.98924957058968        0.24321331927487
O           -0.88160357939519        3.23618222290795        0.14782003273974
C           -1.32562358234349        3.60395210622830       -1.15325334516610
N           -1.19725954533636        0.91974464738702        0.57967703769275
C           -0.71246846668186       -0.38172252931990        0.33141286043139
C           -1.75893136063589       -1.48729841594557        0.30022927451879
C           -2.65420551243501       -1.33216071059021       -0.93834293183680
C           -2.60893045240347       -1.46003379748891        1.57709713129555
N           -1.09554573524172       -2.78773757700606        0.21692418547664
N            0.51720111003954       -0.68210040721310        0.20702619079795
H            5.12726945408838       -1.13006616467703        0.88383935136742
H            4.99823395811294       -1.16884527266823       -0.89142652025734
H            4.70498802005070       -2.65232932714180        0.05527451052042
H            2.83801431047341        2.21151483918320       -0.15671748660026
H           -1.78373298273227        4.59070374789838       -1.06861281363132
H           -2.07008837176513        2.89519504799663       -1.53190532479022
H           -0.48703933509872        3.65193623296857       -1.86028312217931
H           -2.12858467040741        1.09353724374824        0.22724541046709
H           -2.04435557768509       -1.31237681107436       -1.84151404104252
H           -3.34556118471800       -2.17237788962305       -1.00127459715399
H           -3.22984139489701       -0.40915209342237       -0.88551865904819
H           -1.97258102499096       -1.56611624219287        2.45627918758019
H           -3.32515681208581       -2.28142258836264        1.56236265853645
H           -3.15392795923296       -0.52019365595077        1.65360226014980
H           -0.52231341101903       -2.91314300574896        1.04538349069885
H           -0.46249310272830       -2.77193913198361       -0.57832978578486

          :  Hamiltonian                  GFN1-xTB          :
         :: total energy             -58.525338674374 Eh    ::
         :: gradient norm              0.000997285851 Eh/a0 ::
         :: HOMO-LUMO gap              2.267395210917 eV    ::
         :: SCC energy               -59.058044324389 Eh    ::
         :: -> Gsolv                  -0.098991084593 Eh    ::
         :: repulsion energy           0.550884693187 Eh    ::

    * Orbital Energies and Occupations

         #    Occupation            Energy/Eh            Energy/eV
      -------------------------------------------------------------
         1        2.0000           -0.7643949             -20.8002
       ...           ...                  ...                  ...
        36        2.0000           -0.4724875             -12.8570
        37        2.0000           -0.4693328             -12.7712
        38        2.0000           -0.4637860             -12.6203
        39        2.0000           -0.4543994             -12.3648
        40        2.0000           -0.4527160             -12.3190
        41        2.0000           -0.4326781             -11.7738
        42        2.0000           -0.4325724             -11.7709
        43        2.0000           -0.4121352             -11.2148
        44        2.0000           -0.3977506             -10.8233
        45        2.0000           -0.3861552             -10.5078
        46        2.0000           -0.3785309             -10.3004
        47        2.0000           -0.3689124             -10.0386
        48        2.0000           -0.2944385              -8.0121 (HOMO)
        49                         -0.2111132              -5.7447 (LUMO)
        50                         -0.1824597              -4.9650
        51                         -0.1208818              -3.2894
        52                         -0.1112377              -3.0269
        53                         -0.1072878              -2.9194
        54                         -0.1071370              -2.9153
        55                         -0.0873071              -2.3757
        56                         -0.0849237              -2.3109
        57                         -0.0715774              -1.9477
        58                         -0.0537790              -1.4634
        59                         -0.0531518              -1.4463
       ...                                ...                  ...
       100                          0.7085058              19.2794
      -------------------------------------------------------------
                  HL-Gap            0.0833252 Eh            2.2674 eV

Wiberg/Mayer (AO) data.
largest (>0.10) Wiberg bond orders for each atom

     #   Z sym  total        # sym  WBO       # sym  WBO       # sym  WBO
 ---------------------------------------------------------------------------
     1   6 C    3.919 --    20 H    0.987    18 H    0.981    19 H    0.981
                             2 O    0.950
     2   8 O    2.066 --     1 C    0.950     3 C    0.940
     3   6 C    3.871 --     5 C    1.425     4 O    1.338     2 O    0.940
     4   8 O    1.796 --     3 C    1.338    21 H    0.130     5 C    0.121
     5   6 C    3.861 --     3 C    1.425     6 C    1.073    17 N    1.053
                             4 O    0.121
     6   6 C    3.916 --     8 C    1.647     5 C    1.073     7 O    1.043
     7   8 O    1.972 --     6 C    1.043    21 H    0.746
     8   6 C    3.817 --     6 C    1.647     9 O    0.956    11 N    0.950
     9   8 O    2.017 --     8 C    0.956    10 C    0.933
    10   6 C    3.918 --    22 H    0.986    23 H    0.983    24 H    0.983
                             9 O    0.933
    11   7 N    3.185 --    12 C    1.042     8 C    0.950    25 H    0.924
                            17 N    0.111
    12   6 C    3.944 --    17 N    1.730    11 N    1.042    13 C    0.968
    13   6 C    3.968 --    15 C    0.991    14 C    0.988    16 N    0.986
                            12 C    0.968
    14   6 C    3.994 --    13 C    0.988    26 H    0.986    27 H    0.986
                            28 H    0.984
    15   6 C    3.995 --    13 C    0.991    30 H    0.986    29 H    0.986
                            31 H    0.986
    16   7 N    2.951 --    13 C    0.986    32 H    0.950    33 H    0.946
    17   7 N    3.035 --    12 C    1.730     5 C    1.053    11 N    0.111
    18   1 H    1.020 --     1 C    0.981
    19   1 H    1.020 --     1 C    0.981
    20   1 H    1.020 --     1 C    0.987
    21   1 H    0.890 --     7 O    0.746     4 O    0.130
    22   1 H    1.019 --    10 C    0.986
    23   1 H    1.014 --    10 C    0.983
    24   1 H    1.017 --    10 C    0.983
    25   1 H    0.968 --    11 N    0.924
    26   1 H    1.006 --    14 C    0.986
    27   1 H    1.008 --    14 C    0.986
    28   1 H    1.005 --    14 C    0.984
    29   1 H    1.005 --    15 C    0.986
    30   1 H    1.007 --    15 C    0.986
    31   1 H    1.008 --    15 C    0.986
    32   1 H    0.977 --    16 N    0.950
    33   1 H    0.982 --    16 N    0.946
 ---------------------------------------------------------------------------

           -------------------------------------------------
          | TOTAL ENERGY              -58.525338674374 Eh   |
          | GRADIENT NORM               0.000997285851 Eh/α |
          | HOMO-LUMO GAP               2.267395210917 eV   |
           -------------------------------------------------

 * finished run on 2023/06/20 at 15:02:03.440
