   * xtb version 6.5.1 (579679a) compiled by 'ehlert@majestix' on 2022-07-11
          program call               : /lustre/hpc/kemi/ree/PhD/git/ReactivityQM/dep/xtb-6.5.1/bin/xtb --gfn 1 /lustre/hpc/kemi/ree/PhD/git/ReactivityQM/calculations/R01/reac01prodN06/conf04/R01_reac01prodN06_conf04_gfn1.xyz --opt --vfukui --chrg 1 --uhf 0 --alpb DMSO

   ID    Z sym.   atoms
    1    6 C      1, 3, 5, 6, 9, 10
    2    8 O      2, 4, 11
    3    7 N      7, 8
    4    1 H      12-20

      * Solvation model:               ALPB
        Solvent                        DMSO
        Solvent mass                       7.8130E+01 g/mol
          :  Hamiltonian                  GFN1-xTB          :
 * total energy  :   -37.5805363 Eh     change       -0.1179501E-11 Eh
 * total energy  :   -37.5914952 Eh     change       -0.1095891E-01 Eh
 * total energy  :   -37.5958304 Eh     change       -0.4335176E-02 Eh
 * total energy  :   -37.5964920 Eh     change       -0.6616200E-03 Eh
 * total energy  :   -37.5969385 Eh     change       -0.4464563E-03 Eh
 * total energy  :   -37.5970961 Eh     change       -0.1576089E-03 Eh
 * total energy  :   -37.5972525 Eh     change       -0.1563866E-03 Eh
 * total energy  :   -37.5973790 Eh     change       -0.1265263E-03 Eh
 * total energy  :   -37.5974742 Eh     change       -0.9523351E-04 Eh
 * total energy  :   -37.5975660 Eh     change       -0.9179244E-04 Eh
 * total energy  :   -37.5982431 Eh     change       -0.5890778E-05 Eh
 * total energy  :   -37.5982505 Eh     change       -0.7386482E-05 Eh
 * total energy  :   -37.5982582 Eh     change       -0.7696731E-05 Eh
 * total energy  :   -37.5982712 Eh     change       -0.1305798E-04 Eh
 * total energy  :   -37.5982748 Eh     change       -0.3576504E-05 Eh
 * total energy  :   -37.5982832 Eh     change       -0.8348806E-05 Eh
 * total energy  :   -37.5982873 Eh     change       -0.4180200E-05 Eh
 * total energy  :   -37.5982926 Eh     change       -0.5277334E-05 Eh
 * total energy  :   -37.5982960 Eh     change       -0.3390392E-05 Eh
   *** GEOMETRY OPTIMIZATION CONVERGED AFTER 44 ITERATIONS ***

 final structure:
================
20
 xtb: 6.5.1 (579679a)
C           -2.65744901169545        1.49193917825728       -0.38539314635797
O           -1.39667601260369        0.79098540221379       -0.24957762825107
C           -1.38803180834930       -0.49549141647366       -0.25302370556175
O           -2.27986940461608       -1.27895538181826       -0.30973100588147
C            0.12359745279559       -1.03758457347692       -0.12018549203188
C            0.25032759959333       -2.37278807051763       -0.83889914229587
N            0.35064847001436       -1.05175085745247        1.27726631377328
N            1.19598998397911       -0.16967172119556        1.58197243641932
C            1.61007117884813        0.43831013748078        0.41599437394257
C            2.59264942833471        1.50849091190999        0.33159145830585
O            1.01813164529829       -0.06607599596024       -0.59962775791180
H           -2.56843150785864        2.39164881173746        0.21916009656523
H           -2.78876546319853        1.74734474593519       -1.43651910257690
H           -3.47301435217360        0.85855057265733       -0.03718513923263
H            1.25192112667194       -2.76717933031541       -0.68491508265424
H           -0.49186375050244       -3.05655859332564       -0.43177809151777
H            0.07224577653750       -2.22310326266810       -1.90148506386638
H            2.58389373269839        1.96995183969542       -0.65348689701667
H            3.58230896435533        1.08015758875584        0.52076622552353
H            2.41231595187094        2.24178001456131        1.11870935062621

          :  Hamiltonian                  GFN1-xTB          :
         :: total energy             -37.598296014331 Eh    ::
         :: gradient norm              0.000421583500 Eh/a0 ::
         :: HOMO-LUMO gap              2.226966040092 eV    ::
         :: SCC energy               -37.939422665492 Eh    ::
         :: -> Gsolv                  -0.080730895045 Eh    ::
         :: repulsion energy           0.349970801332 Eh    ::

    * Orbital Energies and Occupations

         #    Occupation            Energy/Eh            Energy/eV
      -------------------------------------------------------------
         1        2.0000           -0.9434758             -25.6733
       ...           ...                  ...                  ...
        18        2.0000           -0.6166013             -16.7786
        19        2.0000           -0.6119475             -16.6519
        20        2.0000           -0.6012151             -16.3599
        21        2.0000           -0.6007517             -16.3473
        22        2.0000           -0.5853766             -15.9289
        23        2.0000           -0.5803044             -15.7909
        24        2.0000           -0.5722596             -15.5720
        25        2.0000           -0.5668823             -15.4257
        26        2.0000           -0.5645595             -15.3624
        27        2.0000           -0.5501850             -14.9713
        28        2.0000           -0.5393209             -14.6757
        29        2.0000           -0.5356958             -14.5770
        30        2.0000           -0.5164572             -14.0535 (HOMO)
        31                         -0.4346177             -11.8265 (LUMO)
        32                         -0.3412126              -9.2849
        33                         -0.3158821              -8.5956
        34                         -0.1809833              -4.9248
        35                         -0.1648378              -4.4855
        36                         -0.1602683              -4.3611
        37                         -0.1130221              -3.0755
        38                         -0.1096354              -2.9833
        39                         -0.1026873              -2.7943
        40                         -0.0988349              -2.6894
        41                         -0.0976065              -2.6560
       ...                                ...                  ...
        62                          0.7503107              20.4170
      -------------------------------------------------------------
                  HL-Gap            0.0818395 Eh            2.2270 eV

Wiberg/Mayer (AO) data.
largest (>0.10) Wiberg bond orders for each atom

     #   Z sym  total        # sym  WBO       # sym  WBO       # sym  WBO
 ---------------------------------------------------------------------------
     1   6 C    3.812 --    14 H    0.980    12 H    0.978    13 H    0.974
                             2 O    0.835
     2   8 O    2.268 --     3 C    1.234     1 C    0.835     4 O    0.154
     3   6 C    3.864 --     4 O    1.738     2 O    1.234     5 C    0.744
     4   8 O    2.072 --     3 C    1.738     2 O    0.154
     5   6 C    3.837 --     7 N    1.077     6 C    0.932    11 O    0.907
                             3 C    0.744
     6   6 C    3.949 --    17 H    0.976    15 H    0.975    16 H    0.973
                             5 C    0.932
     7   7 N    3.010 --     8 N    1.679     5 C    1.077
     8   7 N    3.022 --     7 N    1.679     9 C    1.178
     9   6 C    3.801 --    11 O    1.305     8 N    1.178    10 C    1.086
    10   6 C    3.962 --     9 C    1.086    18 H    0.967    20 H    0.936
                            19 H    0.901
    11   8 O    2.395 --     9 C    1.305     5 C    0.907
    12   1 H    1.002 --     1 C    0.978
    13   1 H    0.998 --     1 C    0.974
    14   1 H    0.998 --     1 C    0.980
    15   1 H    0.989 --     6 C    0.975
    16   1 H    0.995 --     6 C    0.973
    17   1 H    0.990 --     6 C    0.976
    18   1 H    0.984 --    10 C    0.967
    19   1 H    0.976 --    10 C    0.901
    20   1 H    0.981 --    10 C    0.936
 ---------------------------------------------------------------------------

           -------------------------------------------------
          | TOTAL ENERGY              -37.598296014331 Eh   |
          | GRADIENT NORM               0.000421583500 Eh/α |
          | HOMO-LUMO GAP               2.226966040092 eV   |
           -------------------------------------------------

 * finished run on 2023/06/20 at 14:56:11.077
