   * xtb version 6.5.1 (579679a) compiled by 'ehlert@majestix' on 2022-07-11
          program call               : /lustre/hpc/kemi/ree/PhD/git/ReactivityQM/dep/xtb-6.5.1/bin/xtb --gfn 1 /lustre/hpc/kemi/ree/PhD/git/ReactivityQM/calculations/R02deprot/reac01prodN01/conf18/R02deprot_reac01prodN01_conf18_gfn1.xyz --opt --vfukui --chrg 0 --uhf 0 --alpb DMSO

   ID    Z sym.   atoms
    1    6 C      1, 3, 5, 7-10, 12, 14, 17, 18, 20, 22, 24
    2    8 O      2, 4, 13, 19, 23, 25
    3    7 N      6, 11, 15, 16, 21
    4    1 H      26-42

      * Solvation model:               ALPB
        Solvent                        DMSO
        Solvent mass                       7.8130E+01 g/mol
          :  Hamiltonian                  GFN1-xTB          :
 * total energy  :   -82.8720474 Eh     change       -0.2771117E-11 Eh
 * total energy  :   -82.8905394 Eh     change       -0.1849200E-01 Eh
 * total energy  :   -82.8998723 Eh     change       -0.9332850E-02 Eh
 * total energy  :   -82.9027068 Eh     change       -0.2834489E-02 Eh
 * total energy  :   -82.9044615 Eh     change       -0.1754687E-02 Eh
 * total energy  :   -82.9052862 Eh     change       -0.8247088E-03 Eh
 * total energy  :   -82.9058342 Eh     change       -0.5480151E-03 Eh
 * total energy  :   -82.9062228 Eh     change       -0.3885837E-03 Eh
 * total energy  :   -82.9065099 Eh     change       -0.2870784E-03 Eh
 * total energy  :   -82.9067597 Eh     change       -0.2498117E-03 Eh
 * total energy  :   -82.9087034 Eh     change       -0.2402029E-04 Eh
 * total energy  :   -82.9087547 Eh     change       -0.5125248E-04 Eh
 * total energy  :   -82.9087865 Eh     change       -0.3187664E-04 Eh
 * total energy  :   -82.9088108 Eh     change       -0.2422884E-04 Eh
 * total energy  :   -82.9088291 Eh     change       -0.1831967E-04 Eh
 * total energy  :   -82.9088531 Eh     change       -0.2403349E-04 Eh
 * total energy  :   -82.9088634 Eh     change       -0.1027789E-04 Eh
 * total energy  :   -82.9088705 Eh     change       -0.7102744E-05 Eh
 * total energy  :   -82.9088754 Eh     change       -0.4924629E-05 Eh
   *** GEOMETRY OPTIMIZATION CONVERGED AFTER 44 ITERATIONS ***

 final structure:
================
42
 xtb: 6.5.1 (579679a)
C            4.68683232806740        0.22224639338718       -3.42903760032893
O            4.50814503438112        0.40420483505285       -2.02128076247490
C            3.24526959190200        0.25984281947998       -1.56647761741032
O            2.32614239460124       -0.00352973904476       -2.31558666543228
C            3.10451405631746        0.44448218302599       -0.10816008264012
N            1.81942400657590        0.24568776425568        0.32936242490852
C            1.59250355732797        0.37403653525168        1.61697754738316
C            0.16270142545168        0.13025163561321        2.08605012922882
C           -0.38254163684226        1.38377464732855        2.77794823429324
C            0.12569224883086       -1.07999988849321        3.02609516346157
N           -0.61566027617107       -0.15505994301033        0.87590032218685
C           -1.91397467897562       -0.39284275185601        0.83273733027209
O           -2.70362739196869       -0.43467520941370        1.76493440969719
C           -2.36894126831180       -0.62584734719758       -0.57995170249591
N           -1.68421627144240       -0.66537400574711       -1.65813850351642
N           -2.52755592473480       -0.90286279819978       -2.71051919265479
C           -3.72127365695889       -1.00656240118799       -2.27127422305635
C           -4.96845821225584       -1.25212709047054       -3.01175845517908
O           -3.71703084431831       -0.83828966724634       -0.88052267310343
C           -4.82386156413301       -0.89130528033764        0.07310022513573
N            2.46254636503794        0.68594716681941        2.56359990424314
C            3.76541676920832        0.91536223045087        2.22379835064644
O            4.62177072823349        1.22051790955181        3.06435587149158
C            4.09231356518458        0.77326731350860        0.78913990130059
O            5.38967198818503        0.99045564552729        0.47284253606240
H            4.41029807687459       -0.79608891447028       -3.71374224529335
H            4.06612188276766        0.93191560942032       -3.98163432793455
H            5.73899169653360        0.39883336990722       -3.64045111905899
H            0.29054991294584        1.65285760211907        3.59200193049051
H           -1.37725720758538        1.20041464516550        3.17926115567338
H           -0.43277995973470        2.20952862696340        2.06939529505425
H           -0.88034049162666       -1.23546008357229        3.41098975678220
H            0.44464933774529       -1.97566364464761        2.49425068614993
H            0.80619085200866       -0.89796580141271        3.85799854442615
H           -0.05497241170937       -0.14637036332621        0.01785872210387
H           -4.72700183327369       -1.36965822174902       -4.06664348355015
H           -5.45939676195250       -2.15479572129688       -2.64842515003819
H           -5.65620292491259       -0.41519944005112       -2.88827883530896
H           -5.72701706408544       -1.05468301082474       -0.50523216910602
H           -4.84835784542504        0.06161396972214        0.59752862257205
H           -4.62723204002571       -1.71454047075252        0.75700559166114
H            5.55795744826399        0.88752089176663       -0.47601784665482

          :  Hamiltonian                  GFN1-xTB          :
         :: total energy             -82.908875434303 Eh    ::
         :: gradient norm              0.000557540537 Eh/a0 ::
         :: HOMO-LUMO gap              0.669953572414 eV    ::
         :: SCC energy               -83.685783973978 Eh    ::
         :: -> Gsolv                  -0.104740275136 Eh    ::
         :: repulsion energy           0.802757349067 Eh    ::

    * Orbital Energies and Occupations

         #    Occupation            Energy/Eh            Energy/eV
      -------------------------------------------------------------
         1        2.0000           -0.9608010             -26.1447
       ...           ...                  ...                  ...
        55        2.0000           -0.4980810             -13.5535
        56        2.0000           -0.4962084             -13.5025
        57        2.0000           -0.4892404             -13.3129
        58        2.0000           -0.4870634             -13.2537
        59        2.0000           -0.4838071             -13.1651
        60        2.0000           -0.4717638             -12.8373
        61        2.0000           -0.4596045             -12.5065
        62        2.0000           -0.4581948             -12.4681
        63        2.0000           -0.4418081             -12.0222
        64        2.0000           -0.4267511             -11.6125
        65        2.0000           -0.4105059             -11.1704
        66        2.0000           -0.3803261             -10.3492
        67        2.0000           -0.3774723             -10.2715 (HOMO)
        68        0.0000           -0.3528519              -9.6016 (LUMO)
        69                         -0.3060314              -8.3275
        70                         -0.2856254              -7.7723
        71                         -0.2356116              -6.4113
        72                         -0.2298536              -6.2546
        73                         -0.1976207              -5.3775
        74                         -0.1857059              -5.0533
        75                         -0.1722035              -4.6859
        76                         -0.1311871              -3.5698
        77                         -0.1178470              -3.2068
        78                         -0.1178217              -3.2061
       ...                                ...                  ...
       134                          0.7337159              19.9654
      -------------------------------------------------------------
                  HL-Gap            0.0246203 Eh            0.6700 eV

Wiberg/Mayer (AO) data.
largest (>0.10) Wiberg bond orders for each atom

     #   Z sym  total        # sym  WBO       # sym  WBO       # sym  WBO
 ---------------------------------------------------------------------------
     1   6 C    3.876 --    28 H    0.986    26 H    0.981    27 H    0.980
                             2 O    0.898
     2   8 O    2.188 --     3 C    1.065     1 C    0.898     4 O    0.120
     3   6 C    3.835 --     4 O    1.641     2 O    1.065     5 C    1.035
     4   8 O    1.904 --     3 C    1.641     2 O    0.120
     5   6 C    3.959 --    24 C    1.480     6 N    1.186     3 C    1.035
     6   7 N    3.037 --     7 C    1.453     5 C    1.186
     7   6 C    3.960 --     6 N    1.453    21 N    1.388     8 C    0.967
     8   6 C    3.911 --     9 C    0.984    10 C    0.983     7 C    0.967
                            11 N    0.905
     9   6 C    3.992 --    31 H    0.986     8 C    0.984    30 H    0.984
                            29 H    0.983
    10   6 C    3.992 --    33 H    0.986    32 H    0.984    34 H    0.983
                             8 C    0.983
    11   7 N    3.429 --    12 C    1.353     8 C    0.905    35 H    0.854
                            13 O    0.204
    12   6 C    3.933 --    13 O    1.547    11 N    1.353    14 C    0.960
    13   8 O    1.912 --    12 C    1.547    11 N    0.204
    14   6 C    3.791 --    15 N    1.711    12 C    0.960    19 O    0.879
    15   7 N    3.041 --    14 C    1.711    16 N    1.141
    16   7 N    3.025 --    17 C    1.705    15 N    1.141
    17   6 C    3.806 --    16 N    1.705    18 C    1.042    19 O    0.874
    18   6 C    3.971 --    17 C    1.042    36 H    0.970    37 H    0.953
                            38 H    0.952
    19   8 O    2.652 --    14 C    0.879    17 C    0.874    20 C    0.751
    20   6 C    3.730 --    39 H    0.975    41 H    0.968    40 H    0.968
                            19 O    0.751
    21   7 N    2.981 --     7 C    1.388    22 C    1.218    23 O    0.123
    22   6 C    3.928 --    23 O    1.517    21 N    1.218    24 C    1.060
    23   8 O    1.804 --    22 C    1.517    21 N    0.123
    24   6 C    3.902 --     5 C    1.480    25 O    1.069    22 C    1.060
    25   8 O    2.055 --    24 C    1.069    42 H    0.822
    26   1 H    1.009 --     1 C    0.981
    27   1 H    1.010 --     1 C    0.980
    28   1 H    1.011 --     1 C    0.986
    29   1 H    1.013 --     9 C    0.983
    30   1 H    1.008 --     9 C    0.984
    31   1 H    1.004 --     9 C    0.986
    32   1 H    1.007 --    10 C    0.984
    33   1 H    1.004 --    10 C    0.986
    34   1 H    1.012 --    10 C    0.983
    35   1 H    0.972 --    11 N    0.854
    36   1 H    0.990 --    18 C    0.970
    37   1 H    0.989 --    18 C    0.953
    38   1 H    0.989 --    18 C    0.952
    39   1 H    0.991 --    20 C    0.975
    40   1 H    1.002 --    20 C    0.968
    41   1 H    1.001 --    20 C    0.968
    42   1 H    0.872 --    25 O    0.822
 ---------------------------------------------------------------------------

           -------------------------------------------------
          | TOTAL ENERGY              -82.908875434303 Eh   |
          | GRADIENT NORM               0.000557540537 Eh/α |
          | HOMO-LUMO GAP               0.669953572414 eV   |
           -------------------------------------------------

 * finished run on 2023/06/20 at 18:04:25.614
