   * xtb version 6.5.1 (579679a) compiled by 'ehlert@majestix' on 2022-07-11
          program call               : /lustre/hpc/kemi/ree/PhD/git/ReactivityQM/dep/xtb-6.5.1/bin/xtb --gfn 1 /lustre/hpc/kemi/ree/PhD/git/ReactivityQM/calculations/R02oxygendeprot/reac01prodN17/conf01/R02oxygendeprot_reac01prodN17_conf01_gfn1.xyz --opt --vfukui --chrg 0 --uhf 0 --alpb DMSO

   ID    Z sym.   atoms
    1    6 C      1, 3, 5, 7-10, 12, 13, 15, 18, 19, 22, 24
    2    8 O      2, 4, 14, 20, 23, 25
    3    7 N      6, 11, 16, 17, 21
    4    1 H      26-42

      * Solvation model:               ALPB
        Solvent                        DMSO
        Solvent mass                       7.8130E+01 g/mol
          :  Hamiltonian                  GFN1-xTB          :
 * total energy  :   -82.9327522 Eh     change       -0.1154206E-09 Eh
 * total energy  :   -82.9448850 Eh     change       -0.1213281E-01 Eh
 * total energy  :   -82.9489423 Eh     change       -0.4057235E-02 Eh
 * total energy  :   -82.9498969 Eh     change       -0.9546006E-03 Eh
 * total energy  :   -82.9505972 Eh     change       -0.7003146E-03 Eh
 * total energy  :   -82.9510211 Eh     change       -0.4238643E-03 Eh
 * total energy  :   -82.9514031 Eh     change       -0.3820349E-03 Eh
 * total energy  :   -82.9517212 Eh     change       -0.3180857E-03 Eh
 * total energy  :   -82.9519726 Eh     change       -0.2514091E-03 Eh
 * total energy  :   -82.9521698 Eh     change       -0.1972025E-03 Eh
 * total energy  :   -82.9579776 Eh     change       -0.8680546E-05 Eh
 * total energy  :   -82.9579925 Eh     change       -0.1485975E-04 Eh
 * total energy  :   -82.9580054 Eh     change       -0.1297193E-04 Eh
 * total energy  :   -82.9580134 Eh     change       -0.7950765E-05 Eh
 * total energy  :   -82.9580214 Eh     change       -0.8043134E-05 Eh
 * total energy  :   -82.9580313 Eh     change       -0.9898671E-05 Eh
 * total energy  :   -82.9580398 Eh     change       -0.8520939E-05 Eh
 * total energy  :   -82.9580454 Eh     change       -0.5550232E-05 Eh
 * total energy  :   -82.9580497 Eh     change       -0.4297384E-05 Eh
   *** GEOMETRY OPTIMIZATION CONVERGED AFTER 106 ITERATIONS ***

 final structure:
================
42
 xtb: 6.5.1 (579679a)
C            4.89428986253311       -1.54417308100068        2.08792585475563
O            3.87114566468668       -0.82669099222692        1.40467340157771
C            4.01751777012410        0.52665861507214        1.37198619758351
O            4.96055058577606        1.06860582119541        1.91722475719310
C            2.93910781862526        1.17826933386716        0.63168908611215
N            2.00348352812026        0.32845165173847        0.10173266379857
C            0.99140644173455        0.77729417284586       -0.55607227689777
C           -0.00433540241279       -0.21384262411287       -1.09362695376080
C            0.72337917082427       -1.38192326963057       -1.75559490743818
C           -1.03909823338473        0.37324787269023       -2.04467977189396
N           -0.81965326329491       -0.80008384609057        0.09784627687500
C           -0.02837641019541       -1.64441242315184        1.03537888163147
C           -1.45648900181399        0.30730119568915        0.88039929790354
O           -0.76924574035454        0.99737875960184        1.57468984683865
C           -2.87823612343461        0.39182154025127        0.67472990517923
N           -3.72224350864068        1.22825243401757        1.22197314524132
N           -4.93820819470272        0.92953639672798        0.73701199943050
C           -4.79213959755684       -0.07441428708386       -0.08512632526793
C           -5.83571850111204       -0.75844922165761       -0.86990944374914
O           -3.51255490730476       -0.45968118245487       -0.16700788408285
N            0.81221118139802        2.12383492914256       -0.77775857357379
C            1.67600831645396        3.09301135701679       -0.31725966174052
O            1.45219539978371        4.26988860118164       -0.56673860003512
C            2.86182679874952        2.59360290194475        0.48280097576695
O            3.66316313640266        3.41754914424308        0.94074031936037
H            4.94390628431793       -1.23897509637639        3.13775712494487
H            5.86684434663163       -1.36794069052733        1.61768937772665
H            4.63669127198756       -2.59957284612051        2.02082145260867
H            1.12558608499882       -1.04013075320287       -2.70840878771882
H            1.55054604766456       -1.72041919246424       -1.13308940777409
H            0.03890897504045       -2.20620341308550       -1.94179652445578
H           -1.72397805757525       -0.40835481360591       -2.36826936754303
H           -1.62034468162502        1.16172624738434       -1.57071107476580
H           -0.53669539031668        0.77709997852510       -2.92216789153206
H           -1.55357596366697       -1.37682947734688       -0.31003991920508
H            0.89122666661353       -1.11882498378175        1.29425043558088
H           -0.63896249360050       -1.82017115774157        1.91710722448408
H            0.18861859941846       -2.58481596648374        0.54045191738234
H           -6.81018842358081       -0.33458405675319       -0.63899166641954
H           -5.62832903522207       -0.64585282283872       -1.93429685973754
H           -5.83024361277821       -1.82417597723840       -0.64236342896771
H            0.03000259069451        2.44699122184549       -1.31920181541372

          :  Hamiltonian                  GFN1-xTB          :
         :: total energy             -82.958049691801 Eh    ::
         :: gradient norm              0.000341218397 Eh/a0 ::
         :: HOMO-LUMO gap              0.354321694238 eV    ::
         :: SCC energy               -83.733180976575 Eh    ::
         :: -> Gsolv                  -0.116451513032 Eh    ::
         :: repulsion energy           0.803757490774 Eh    ::

    * Orbital Energies and Occupations

         #    Occupation            Energy/Eh            Energy/eV
      -------------------------------------------------------------
         1        2.0000           -0.8960068             -24.3816
       ...           ...                  ...                  ...
        55        2.0000           -0.5133933             -13.9701
        56        2.0000           -0.5099637             -13.8768
        57        2.0000           -0.5053331             -13.7508
        58        2.0000           -0.4967023             -13.5160
        59        2.0000           -0.4843785             -13.1806
        60        2.0000           -0.4797872             -13.0557
        61        2.0000           -0.4763331             -12.9617
        62        2.0000           -0.4751205             -12.9287
        63        2.0000           -0.4600188             -12.5177
        64        2.0000           -0.4527031             -12.3187
        65        2.0000           -0.4388076             -11.9406
        66        2.0000           -0.3958462             -10.7715
        67        1.9979           -0.3852365             -10.4828 (HOMO)
        68        0.0021           -0.3722154             -10.1285 (LUMO)
        69                         -0.2859367              -7.7807
        70                         -0.2836097              -7.7174
        71                         -0.2687970              -7.3143
        72                         -0.2462234              -6.7001
        73                         -0.2119899              -5.7685
        74                         -0.1585869              -4.3154
        75                         -0.1522760              -4.1436
        76                         -0.1461600              -3.9772
        77                         -0.1432463              -3.8979
        78                         -0.1346217              -3.6632
       ...                                ...                  ...
       134                          0.7613942              20.7186
      -------------------------------------------------------------
                  HL-Gap            0.0130211 Eh            0.3543 eV

Wiberg/Mayer (AO) data.
largest (>0.10) Wiberg bond orders for each atom

     #   Z sym  total        # sym  WBO       # sym  WBO       # sym  WBO
 ---------------------------------------------------------------------------
     1   6 C    3.890 --    28 H    0.987    26 H    0.980    27 H    0.980
                             2 O    0.917
     2   8 O    2.149 --     3 C    1.043     1 C    0.917     4 O    0.115
     3   6 C    3.849 --     4 O    1.615     5 C    1.088     2 O    1.043
     4   8 O    1.879 --     3 C    1.615     2 O    0.115
     5   6 C    3.903 --    24 C    1.236     6 N    1.198     3 C    1.088
                            25 O    0.113
     6   7 N    3.056 --     7 C    1.574     5 C    1.198
     7   6 C    3.933 --     6 N    1.574    21 N    1.107     8 C    0.997
     8   6 C    3.882 --    10 C    1.008     7 C    0.997     9 C    0.997
                            11 N    0.804
     9   6 C    3.984 --     8 C    0.997    31 H    0.982    30 H    0.977
                            29 H    0.975
    10   6 C    3.987 --     8 C    1.008    32 H    0.978    33 H    0.978
                            34 H    0.976
    11   7 N    3.596 --    12 C    0.896    35 H    0.886    13 C    0.877
                             8 C    0.804
    12   6 C    3.882 --    38 H    0.982    37 H    0.981    36 H    0.967
                            11 N    0.896
    13   6 C    3.876 --    14 O    1.747    15 C    1.092    11 N    0.877
    14   8 O    2.028 --    13 C    1.747
    15   6 C    3.877 --    16 N    1.530    13 C    1.092    20 O    1.030
    16   7 N    2.988 --    15 C    1.530    17 N    1.263
    17   7 N    2.988 --    18 C    1.544    16 N    1.263
    18   6 C    3.842 --    17 N    1.544    20 O    1.086    19 C    1.040
    19   6 C    3.979 --    18 C    1.040    39 H    0.980    41 H    0.956
                            40 H    0.953
    20   8 O    2.321 --    18 C    1.086    15 C    1.030
    21   7 N    3.426 --    22 C    1.144     7 C    1.107    42 H    0.892
                            23 O    0.134
    22   6 C    3.872 --    23 O    1.603    21 N    1.144    24 C    0.960
    23   8 O    1.878 --    22 C    1.603    21 N    0.134
    24   6 C    3.934 --    25 O    1.558     5 C    1.236    22 C    0.960
    25   8 O    1.839 --    24 C    1.558     5 C    0.113
    26   1 H    1.011 --     1 C    0.980
    27   1 H    1.011 --     1 C    0.980
    28   1 H    1.014 --     1 C    0.987
    29   1 H    0.997 --     9 C    0.975
    30   1 H    1.010 --     9 C    0.977
    31   1 H    0.994 --     9 C    0.982
    32   1 H    0.997 --    10 C    0.978
    33   1 H    0.998 --    10 C    0.978
    34   1 H    0.994 --    10 C    0.976
    35   1 H    0.935 --    11 N    0.886
    36   1 H    1.020 --    12 C    0.967
    37   1 H    0.993 --    12 C    0.981
    38   1 H    0.995 --    12 C    0.982
    39   1 H    0.995 --    19 C    0.980
    40   1 H    0.991 --    19 C    0.953
    41   1 H    0.991 --    19 C    0.956
    42   1 H    0.941 --    21 N    0.892
 ---------------------------------------------------------------------------

           -------------------------------------------------
          | TOTAL ENERGY              -82.958049691801 Eh   |
          | GRADIENT NORM               0.000341218397 Eh/α |
          | HOMO-LUMO GAP               0.354321694238 eV   |
           -------------------------------------------------

 * finished run on 2023/06/21 at 17:38:00.354
