   * xtb version 6.5.1 (579679a) compiled by 'ehlert@majestix' on 2022-07-11
          program call               : /lustre/hpc/kemi/ree/PhD/git/ReactivityQM/dep/xtb-6.5.1/bin/xtb --gfn 1 /lustre/hpc/kemi/ree/PhD/git/ReactivityQM/calculations/R03/reac01prodN01/conf04/R03_reac01prodN01_conf04_gfn1.xyz --opt --vfukui --chrg 1 --uhf 0 --alpb DMSO

   ID    Z sym.   atoms
    1    6 C      1, 3-7, 9, 10
    2    7 N      2
    3    9 F      8
    4    1 H      11-21

      * Solvation model:               ALPB
        Solvent                        DMSO
        Solvent mass                       7.8130E+01 g/mol
          :  Hamiltonian                  GFN1-xTB          :
 * total energy  :   -30.8260668 Eh     change       -0.2597034E-11 Eh
 * total energy  :   -30.8298383 Eh     change       -0.3771482E-02 Eh
 * total energy  :   -30.8304555 Eh     change       -0.6171500E-03 Eh
 * total energy  :   -30.8305275 Eh     change       -0.7202767E-04 Eh
 * total energy  :   -30.8305592 Eh     change       -0.3173603E-04 Eh
 * total energy  :   -30.8305738 Eh     change       -0.1452027E-04 Eh
 * total energy  :   -30.8305871 Eh     change       -0.1339134E-04 Eh
 * total energy  :   -30.8305984 Eh     change       -0.1122673E-04 Eh
 * total energy  :   -30.8306047 Eh     change       -0.6341381E-05 Eh
 * total energy  :   -30.8306089 Eh     change       -0.4181156E-05 Eh
   *** GEOMETRY OPTIMIZATION CONVERGED AFTER 10 ITERATIONS ***

 final structure:
================
21
 xtb: 6.5.1 (579679a)
C            2.30542866206350        0.05987202897778        0.93617555411371
N            2.07479665160248        0.30181176900382       -0.50781304192546
C            1.00191313965655       -0.56719425403456       -1.09205844866630
C           -0.32777671367595       -0.26618671814636       -0.45264303243401
C           -0.96873212172414        0.94274829091742       -0.72294175619443
C           -2.19324554638998        1.23391354478859       -0.14187820454536
C           -2.75997067156703        0.29372619312037        0.70210460397399
F           -3.94057098732447        0.56599369506614        1.26419176534805
C           -2.15160235792667       -0.91635000292883        0.98676747825298
C           -0.92344379978367       -1.19105345127484        0.40287216034350
H            2.62068577665950       -0.97198208844825        1.06795816260426
H            1.37723779809514        0.24661036459825        1.47058757002380
H            3.08233663095507        0.74297771255587        1.26921665251977
H            2.93765013724027        0.12682445720165       -1.01326668099046
H            1.82807700642466        1.27864580842164       -0.64855556319955
H            0.98975298561878       -0.35070425881234       -2.16194605791955
H            1.30583255440688       -1.60188715946528       -0.92988338655918
H           -0.50731499939415        1.65764037251650       -1.39272087008025
H           -2.69873333124504        2.17025170047314       -0.33985787048687
H           -2.62596964464334       -1.62526197615447        1.65316887039303
H           -0.42635016904833       -2.13039602837633        0.61214809542843

          :  Hamiltonian                  GFN1-xTB          :
         :: total energy             -30.830608892699 Eh    ::
         :: gradient norm              0.000390713927 Eh/a0 ::
         :: HOMO-LUMO gap              4.519591079450 eV    ::
         :: SCC energy               -31.241823948951 Eh    ::
         :: -> Gsolv                  -0.102420235321 Eh    ::
         :: repulsion energy           0.421480308547 Eh    ::

    * Orbital Energies and Occupations

         #    Occupation            Energy/Eh            Energy/eV
      -------------------------------------------------------------
         1        2.0000           -0.8854793             -24.0951
       ...           ...                  ...                  ...
        15        2.0000           -0.5960603             -16.2196
        16        2.0000           -0.5817387             -15.8299
        17        2.0000           -0.5664403             -15.4136
        18        2.0000           -0.5644294             -15.3589
        19        2.0000           -0.5615470             -15.2805
        20        2.0000           -0.5581670             -15.1885
        21        2.0000           -0.5544093             -15.0862
        22        2.0000           -0.5357094             -14.5774
        23        2.0000           -0.5309516             -14.4479
        24        2.0000           -0.5183081             -14.1039
        25        2.0000           -0.4925278             -13.4024
        26        2.0000           -0.4715079             -12.8304
        27        2.0000           -0.4595873             -12.5060 (HOMO)
        28                         -0.2934954              -7.9864 (LUMO)
        29                         -0.2915415              -7.9332
        30                         -0.1833441              -4.9890
        31                         -0.1730656              -4.7094
        32                         -0.1688599              -4.5949
        33                         -0.1615669              -4.3965
        34                         -0.1387866              -3.7766
        35                         -0.1211127              -3.2956
        36                         -0.1124059              -3.0587
        37                         -0.1053432              -2.8665
        38                         -0.0992996              -2.7021
       ...                                ...                  ...
        62                          0.6265181              17.0484
      -------------------------------------------------------------
                  HL-Gap            0.1660919 Eh            4.5196 eV

Wiberg/Mayer (AO) data.
largest (>0.10) Wiberg bond orders for each atom

     #   Z sym  total        # sym  WBO       # sym  WBO       # sym  WBO
 ---------------------------------------------------------------------------
     1   6 C    3.897 --    11 H    0.984    12 H    0.984    13 H    0.981
                             2 N    0.922
     2   7 N    3.605 --     1 C    0.922     3 C    0.895    15 H    0.893
                            14 H    0.888
     3   6 C    3.902 --     4 C    1.008    17 H    0.975    16 H    0.967
                             2 N    0.895
     4   6 C    3.984 --    10 C    1.415     5 C    1.410     3 C    1.008
     5   6 C    3.994 --     6 C    1.451     4 C    1.410    18 H    0.969
                             9 C    0.110
     6   6 C    3.991 --     5 C    1.451     7 C    1.393    19 H    0.967
                            10 C    0.108
     7   6 C    3.866 --     9 C    1.398     6 C    1.393     8 F    0.941
     8   9 F    1.074 --     7 C    0.941
     9   6 C    3.991 --    10 C    1.444     7 C    1.398    20 H    0.967
                             5 C    0.110
    10   6 C    3.993 --     9 C    1.444     4 C    1.415    21 H    0.969
                             6 C    0.108
    11   1 H    0.991 --     1 C    0.984
    12   1 H    0.999 --     1 C    0.984
    13   1 H    0.989 --     1 C    0.981
    14   1 H    0.909 --     2 N    0.888
    15   1 H    0.922 --     2 N    0.893
    16   1 H    0.993 --     3 C    0.967
    17   1 H    0.994 --     3 C    0.975
    18   1 H    0.995 --     5 C    0.969
    19   1 H    0.995 --     6 C    0.967
    20   1 H    0.995 --     9 C    0.967
    21   1 H    0.997 --    10 C    0.969
 ---------------------------------------------------------------------------

           -------------------------------------------------
          | TOTAL ENERGY              -30.830608892699 Eh   |
          | GRADIENT NORM               0.000390713927 Eh/α |
          | HOMO-LUMO GAP               4.519591079450 eV   |
           -------------------------------------------------

 * finished run on 2023/06/20 at 15:13:50.902
