   * xtb version 6.5.1 (579679a) compiled by 'ehlert@majestix' on 2022-07-11
          program call               : /lustre/hpc/kemi/ree/PhD/git/ReactivityQM/dep/xtb-6.5.1/bin/xtb --gfn 1 /lustre/hpc/kemi/ree/PhD/git/ReactivityQM/calculations/R03/reac02prodN14/conf08/R03_reac02prodN14_conf08_gfn1.xyz --opt --vfukui --chrg 1 --uhf 0 --alpb DMSO

   ID    Z sym.   atoms
    1    6 C      1, 3, 5, 6, 8, 9, 12-16, 18, 20, 23, 24
    2    8 O      2, 4, 7, 10, 19, 25
    3    7 N      11, 17, 21, 22, 26
    4    1 H      27-46

      * Solvation model:               ALPB
        Solvent                        DMSO
        Solvent mass                       7.8130E+01 g/mol
          :  Hamiltonian                  GFN1-xTB          :
 * total energy  :   -86.2040591 Eh     change       -0.1573426E-09 Eh
 * total energy  :   -86.2256710 Eh     change       -0.2161189E-01 Eh
 * total energy  :   -86.2387325 Eh     change       -0.1306151E-01 Eh
 * total energy  :   -86.2436076 Eh     change       -0.4875142E-02 Eh
 * total energy  :   -86.2473719 Eh     change       -0.3764220E-02 Eh
 * total energy  :   -86.2492085 Eh     change       -0.1836593E-02 Eh
 * total energy  :   -86.2505083 Eh     change       -0.1299801E-02 Eh
 * total energy  :   -86.2516462 Eh     change       -0.1137897E-02 Eh
 * total energy  :   -86.2525199 Eh     change       -0.8737513E-03 Eh
 * total energy  :   -86.2532928 Eh     change       -0.7728795E-03 Eh
 * total energy  :   -86.3050720 Eh     change       -0.2034519E-04 Eh
 * total energy  :   -86.3050833 Eh     change       -0.1133629E-04 Eh
 * total energy  :   -86.3050993 Eh     change       -0.1596882E-04 Eh
 * total energy  :   -86.3051115 Eh     change       -0.1227582E-04 Eh
 * total energy  :   -86.3051204 Eh     change       -0.8906906E-05 Eh
 * total energy  :   -86.3051269 Eh     change       -0.6404697E-05 Eh
 * total energy  :   -86.3051337 Eh     change       -0.6879181E-05 Eh
 * total energy  :   -86.3051466 Eh     change       -0.1286375E-04 Eh
 * total energy  :   -86.3051515 Eh     change       -0.4951002E-05 Eh
   *** GEOMETRY OPTIMIZATION CONVERGED AFTER 72 ITERATIONS ***

 final structure:
================
46
 xtb: 6.5.1 (579679a)
C           -2.36048328361051        4.28066812875105        1.20081006178571
O           -2.40282158382962        2.87653758435700        0.88210057785923
C           -1.37836819128989        2.37049711626083        0.24794984178190
O           -0.38607932922461        2.94948363245959       -0.09966640582155
C           -1.54829500956300        0.88095974468369       -0.03767940450469
C           -2.68891933231856        0.30211504826734       -0.80144342428128
O           -3.79075086887201        1.13764883682446       -0.78248039790716
C           -3.00198623332461       -1.06750829544989       -0.20283361179986
C           -2.24449611854825       -0.00413364572555       -2.26436395752816
O           -4.08324443607769       -1.56875633579193       -0.22645944998331
N           -1.85947419284227       -1.81793706833633        0.24002538544410
C           -2.20328610795732       -3.19385344594611        0.61172527145190
C           -0.65941431437984       -1.24929651078327        0.26810347879842
C            0.66634270049478       -1.95863066531854        0.35353615108453
C            0.92506023106576       -2.40090107034597        1.81098378005957
C            0.76040931375458       -3.12332207905950       -0.64341544949041
N            1.67457001376868       -0.96675103742017       -0.00390880550132
C            3.01040238449761       -1.20318186674914        0.03007066090940
O            3.52666377339581       -2.28091078329995        0.25891879507947
C            3.79132754474156        0.02021925552027       -0.25792317393277
N            5.07959836046600        0.15170136461170       -0.31904482360808
N            5.32915132197980        1.46404227895012       -0.57613472806420
C            4.17782976649195        2.05755105333566       -0.65398328463990
C            3.90736722186112        3.48695704558940       -0.91636786589006
O            3.16268990228739        1.19913302690120       -0.46189212176612
N           -0.59502810213378        0.10056429997256        0.32539583327873
H           -2.03587668386979        4.84676388476675        0.32627065435281
H           -3.37224959860339        4.55644371514180        1.49022316488371
H           -1.66614637960164        4.44354109185304        2.02671105310860
H           -4.59170073498002        0.66864281292802       -1.05753942758394
H           -3.03666634055468       -0.56139535030969       -2.75938952507243
H           -1.32396271173012       -0.58199705096668       -2.27247804948528
H           -2.09632984087316        0.94503430919397       -2.77552561083475
H           -2.49293724342202       -3.73124087129658       -0.29041244341274
H           -3.05513119251972       -3.14414252224591        1.28966459489495
H           -1.36873210017659       -3.67830643970357        1.10037671524025
H            0.16846170488035       -3.10043789375257        2.15288161888327
H            0.92589692627352       -1.52624096209096        2.45866429920560
H            1.89918868841634       -2.88581762814665        1.85312285451210
H            0.06589889019917       -3.91930943729901       -0.39554647744793
H            0.54827093661266       -2.75989619548372       -1.64715976990075
H            1.77272297616733       -3.52420262189183       -0.61336156483885
H            1.35591326668015       -0.01849751536004       -0.14693793376343
H            3.29800475281101        3.58903433485154       -1.81411080911499
H            3.35145949533911        3.91701428312998       -0.08333479577420
H            4.84514775810504        4.02211344441608       -1.04660648068185

          :  Hamiltonian                  GFN1-xTB          :
         :: total energy             -86.305151544220 Eh    ::
         :: gradient norm              0.000912450529 Eh/a0 ::
         :: HOMO-LUMO gap              0.986953707529 eV    ::
         :: SCC energy               -87.135625480331 Eh    ::
         :: -> Gsolv                  -0.115102223295 Eh    ::
         :: repulsion energy           0.860598775508 Eh    ::

    * Orbital Energies and Occupations

         #    Occupation            Energy/Eh            Energy/eV
      -------------------------------------------------------------
         1        2.0000           -0.8978998             -24.4331
       ...           ...                  ...                  ...
        58        2.0000           -0.5348032             -14.5527
        59        2.0000           -0.5319121             -14.4741
        60        2.0000           -0.5300103             -14.4223
        61        2.0000           -0.5256808             -14.3045
        62        2.0000           -0.5222869             -14.2122
        63        2.0000           -0.5137028             -13.9786
        64        2.0000           -0.5040420             -13.7157
        65        2.0000           -0.4952074             -13.4753
        66        2.0000           -0.4892809             -13.3140
        67        2.0000           -0.4799369             -13.0597
        68        2.0000           -0.4762232             -12.9587
        69        2.0000           -0.4616012             -12.5608
        70        2.0000           -0.4607965             -12.5389 (HOMO)
        71                         -0.4245266             -11.5520 (LUMO)
        72                         -0.3486188              -9.4864
        73                         -0.3237348              -8.8093
        74                         -0.3156530              -8.5894
        75                         -0.2855107              -7.7691
        76                         -0.2642019              -7.1893
        77                         -0.2108071              -5.7364
        78                         -0.1766946              -4.8081
        79                         -0.1595023              -4.3403
        80                         -0.1524113              -4.1473
        81                         -0.1491377              -4.0582
       ...                                ...                  ...
       144                          0.7219047              19.6440
      -------------------------------------------------------------
                  HL-Gap            0.0362699 Eh            0.9870 eV

Wiberg/Mayer (AO) data.
largest (>0.10) Wiberg bond orders for each atom

     #   Z sym  total        # sym  WBO       # sym  WBO       # sym  WBO
 ---------------------------------------------------------------------------
     1   6 C    3.840 --    28 H    0.983    27 H    0.979    29 H    0.977
                             2 O    0.866
     2   8 O    2.249 --     3 C    1.183     1 C    0.866     4 O    0.158
     3   6 C    3.866 --     4 O    1.697     2 O    1.183     5 C    0.919
     4   8 O    1.978 --     3 C    1.697     2 O    0.158
     5   6 C    3.896 --    26 N    1.662     6 C    1.003     3 C    0.919
     6   6 C    3.939 --     7 O    1.004     5 C    1.003     8 C    0.920
                             9 C    0.885
     7   8 O    1.919 --     6 C    1.004    30 H    0.817
     8   6 C    3.854 --    10 O    1.795    11 N    0.986     6 C    0.920
     9   6 C    3.965 --    32 H    0.984    31 H    0.977    33 H    0.973
                             6 C    0.885
    10   8 O    2.053 --     8 C    1.795
    11   7 N    3.547 --    13 C    1.385     8 C    0.986    12 C    0.901
    12   6 C    3.883 --    36 H    0.975    34 H    0.964    35 H    0.963
                            11 N    0.901
    13   6 C    3.884 --    11 N    1.385    26 N    1.243    14 C    1.010
    14   6 C    3.934 --    13 C    1.010    16 C    0.965    17 N    0.948
                            15 C    0.934
    15   6 C    3.969 --    38 H    0.983    37 H    0.977    39 H    0.968
                            14 C    0.934
    16   6 C    3.977 --    41 H    0.983    40 H    0.980    42 H    0.970
                            14 C    0.965
    17   7 N    3.325 --    18 C    1.222    14 C    0.948    43 H    0.870
                            19 O    0.166
    18   6 C    3.910 --    19 O    1.601    17 N    1.222    20 C    1.000
    19   8 O    1.919 --    18 C    1.601    17 N    0.166
    20   6 C    3.875 --    21 N    1.617    25 O    1.046    18 C    1.000
    21   7 N    3.003 --    20 C    1.617    22 N    1.205
    22   7 N    2.982 --    23 C    1.603    21 N    1.205
    23   6 C    3.865 --    22 N    1.603    25 O    1.073    24 C    1.033
    24   6 C    3.985 --    23 C    1.033    46 H    0.982    44 H    0.962
                            45 H    0.962
    25   8 O    2.318 --    23 C    1.073    20 C    1.046
    26   7 N    3.166 --     5 C    1.662    13 C    1.243
    27   1 H    1.001 --     1 C    0.979
    28   1 H    1.005 --     1 C    0.983
    29   1 H    1.001 --     1 C    0.977
    30   1 H    0.836 --     7 O    0.817
    31   1 H    0.992 --     9 C    0.977
    32   1 H    0.995 --     9 C    0.984
    33   1 H    0.993 --     9 C    0.973
    34   1 H    0.991 --    12 C    0.964
    35   1 H    0.993 --    12 C    0.963
    36   1 H    1.002 --    12 C    0.975
    37   1 H    0.998 --    15 C    0.977
    38   1 H    0.997 --    15 C    0.983
    39   1 H    1.001 --    15 C    0.968
    40   1 H    0.997 --    16 C    0.980
    41   1 H    0.998 --    16 C    0.983
    42   1 H    1.003 --    16 C    0.970
    43   1 H    0.942 --    17 N    0.870
    44   1 H    0.996 --    24 C    0.962
    45   1 H    0.996 --    24 C    0.962
    46   1 H    0.998 --    24 C    0.982
 ---------------------------------------------------------------------------

           -------------------------------------------------
          | TOTAL ENERGY              -86.305151544220 Eh   |
          | GRADIENT NORM               0.000912450529 Eh/α |
          | HOMO-LUMO GAP               0.986953707529 eV   |
           -------------------------------------------------

 * finished run on 2023/06/20 at 15:50:23.737
