                         Program Version 5.0.1 -  RELEASE  -
|  1> # ORCA input file
|  2> ! SP r2SCAN-3c CPCM
|  3>
|  4> %maxcore 1875.0
|  5> %pal nprocs 4 end
|  6> %cpcm smd true SMDsolvent "DMSO" end
|  7>
|  8> *xyz -1 1
|  9> C      -4.612658    2.994168   -0.293405
| 10> O      -3.640486    2.019891    0.058410
| 11> C      -3.901618    0.747073   -0.370795
| 12> O      -4.934067    0.503171   -1.013096
| 13> C      -2.932975   -0.223754    0.016830
| 14> C      -2.991106   -1.552525   -0.400439
| 15> O      -4.015380   -2.016114   -1.171403
| 16> C      -1.875039   -2.436281   -0.185885
| 17> O      -1.892095   -3.689251   -0.307395
| 18> N      -0.698867   -1.752573    0.081625
| 19> C       0.546934   -2.511724   -0.000520
| 20> C      -0.634263   -0.420092    0.471063
| 21> C       0.232146    0.541272   -0.336922
| 22> C      -0.026445    1.984057    0.118795
| 23> C      -0.011417    0.431513   -1.853300
| 24> N       1.666759    0.242805   -0.126244
| 25> C       2.248302    0.227441    1.083862
| 26> O       1.677905    0.359755    2.158598
| 27> C       3.720090    0.006824    1.012432
| 28> N       4.555496   -0.071992    2.002838
| 29> N       5.791740   -0.280088    1.460695
| 30> C       5.633320   -0.316949    0.175675
| 31> C       6.670442   -0.519370   -0.859804
| 32> O       4.347864   -0.143170   -0.176305
| 33> N      -1.878792    0.139502    0.930144
| 34> C      -2.179951   -0.267593    2.319068
| 35> H      -4.694002    3.085772   -1.381466
| 36> H      -4.284464    3.942468    0.131399
| 37> H      -5.594083    2.727318    0.111943
| 38> H      -4.653290   -1.279907   -1.311859
| 39> H       1.109787   -2.399101    0.927670
| 40> H       1.160377   -2.155566   -0.829274
| 41> H       0.312012   -3.565773   -0.157296
| 42> H       0.652906    2.664487   -0.393164
| 43> H      -1.053467    2.262819   -0.114092
| 44> H       0.122228    2.073389    1.194396
| 45> H       0.611337    1.145436   -2.391132
| 46> H      -1.057668    0.646472   -2.067534
| 47> H       0.221062   -0.570782   -2.209542
| 48> H       2.259505    0.211292   -0.937780
| 49> H       7.649041   -0.580355   -0.390361
| 50> H       6.473346   -1.438797   -1.410741
| 51> H       6.654659    0.307342   -1.569046
| 52> H      -2.355223   -1.348110    2.403785
| 53> H      -1.329780    0.009963    2.943670
| 54> H      -3.070118    0.265634    2.655902
| 55> **                         ****END OF INPUT****

CARTESIAN COORDINATES (ANGSTROEM)
---------------------------------
  C     -4.612658    2.994168   -0.293405
  O     -3.640486    2.019891    0.058410
  C     -3.901618    0.747073   -0.370795
  O     -4.934067    0.503171   -1.013096
  C     -2.932975   -0.223754    0.016830
  C     -2.991106   -1.552525   -0.400439
  O     -4.015380   -2.016114   -1.171403
  C     -1.875039   -2.436281   -0.185885
  O     -1.892095   -3.689251   -0.307395
  N     -0.698867   -1.752573    0.081625
  C      0.546934   -2.511724   -0.000520
  C     -0.634263   -0.420092    0.471063
  C      0.232146    0.541272   -0.336922
  C     -0.026445    1.984057    0.118795
  C     -0.011417    0.431513   -1.853300
  N      1.666759    0.242805   -0.126244
  C      2.248302    0.227441    1.083862
  O      1.677905    0.359755    2.158598
  C      3.720090    0.006824    1.012432
  N      4.555496   -0.071992    2.002838
  N      5.791740   -0.280088    1.460695
  C      5.633320   -0.316949    0.175675
  C      6.670442   -0.519370   -0.859804
  O      4.347864   -0.143170   -0.176305
  N     -1.878792    0.139502    0.930144
  C     -2.179951   -0.267593    2.319068
  H     -4.694002    3.085772   -1.381466
  H     -4.284464    3.942468    0.131399
  H     -5.594083    2.727318    0.111943
  H     -4.653290   -1.279907   -1.311859
  H      1.109787   -2.399101    0.927670
  H      1.160377   -2.155566   -0.829274
  H      0.312012   -3.565773   -0.157296
  H      0.652906    2.664487   -0.393164
  H     -1.053467    2.262819   -0.114092
  H      0.122228    2.073389    1.194396
  H      0.611337    1.145436   -2.391132
  H     -1.057668    0.646472   -2.067534
  H      0.221062   -0.570782   -2.209542
  H      2.259505    0.211292   -0.937780
  H      7.649041   -0.580355   -0.390361
  H      6.473346   -1.438797   -1.410741
  H      6.654659    0.307342   -1.569046
  H     -2.355223   -1.348110    2.403785
  H     -1.329780    0.009963    2.943670
  H     -3.070118    0.265634    2.655902

 Total Charge           Charge          ....   -1
 Multiplicity           Mult            ....    1
 Number of Electrons    NEL             ....  194
 Basis Dimension        Dim             ....  649

ORBITAL ENERGIES
----------------

  NO   OCC          E(Eh)            E(eV)
   0   2.0000     -19.059245      -518.6284
   1   2.0000     -18.974100      -516.3115
   2   2.0000     -18.954538      -515.7792
   3   2.0000     -18.918738      -514.8050
   4   2.0000     -18.914960      -514.7022
   5   2.0000     -18.861799      -513.2556
   6   2.0000     -14.197256      -386.3270
   7   2.0000     -14.192117      -386.1871
   8   2.0000     -14.184651      -385.9840
   9   2.0000     -14.183581      -385.9549
  10   2.0000     -14.139467      -384.7544
  11   2.0000     -10.141525      -275.9649
  12   2.0000     -10.140456      -275.9358
  13   2.0000     -10.135135      -275.7910
  14   2.0000     -10.128089      -275.5993
  15   2.0000     -10.077451      -274.2214
  16   2.0000     -10.073351      -274.1098
  17   2.0000     -10.068349      -273.9737
  18   2.0000     -10.063839      -273.8510
  19   2.0000     -10.042650      -273.2744
  20   2.0000     -10.035970      -273.0926
  21   2.0000     -10.033464      -273.0244
  22   2.0000     -10.031358      -272.9671
  23   2.0000     -10.024620      -272.7838
  24   2.0000     -10.010352      -272.3955
  25   2.0000     -10.000440      -272.1258
  26   2.0000      -1.148017       -31.2391
  27   2.0000      -1.042216       -28.3601
  28   2.0000      -1.004768       -27.3411
  29   2.0000      -0.999362       -27.1940
  30   2.0000      -0.968344       -26.3500
  31   2.0000      -0.953263       -25.9396
  32   2.0000      -0.948490       -25.8097
  33   2.0000      -0.903164       -24.5764
  34   2.0000      -0.888628       -24.1808
  35   2.0000      -0.843267       -22.9465
  36   2.0000      -0.824011       -22.4225
  37   2.0000      -0.749538       -20.3960
  38   2.0000      -0.714515       -19.4430
  39   2.0000      -0.708656       -19.2835
  40   2.0000      -0.685575       -18.6554
  41   2.0000      -0.656672       -17.8690
  42   2.0000      -0.651855       -17.7379
  43   2.0000      -0.644635       -17.5414
  44   2.0000      -0.638067       -17.3627
  45   2.0000      -0.595360       -16.2006
  46   2.0000      -0.590527       -16.0690
  47   2.0000      -0.585245       -15.9253
  48   2.0000      -0.568961       -15.4822
  49   2.0000      -0.532065       -14.4782
  50   2.0000      -0.522952       -14.2303
  51   2.0000      -0.516333       -14.0501
  52   2.0000      -0.488314       -13.2877
  53   2.0000      -0.483279       -13.1507
  54   2.0000      -0.475126       -12.9288
  55   2.0000      -0.457293       -12.4436
  56   2.0000      -0.452029       -12.3003
  57   2.0000      -0.441778       -12.0214
  58   2.0000      -0.427549       -11.6342
  59   2.0000      -0.419828       -11.4241
  60   2.0000      -0.417975       -11.3737
  61   2.0000      -0.409847       -11.1525
  62   2.0000      -0.404034       -10.9943
  63   2.0000      -0.402044       -10.9402
  64   2.0000      -0.392623       -10.6838
  65   2.0000      -0.387811       -10.5529
  66   2.0000      -0.386104       -10.5064
  67   2.0000      -0.378202       -10.2914
  68   2.0000      -0.377614       -10.2754
  69   2.0000      -0.376050       -10.2329
  70   2.0000      -0.369768       -10.0619
  71   2.0000      -0.357668        -9.7326
  72   2.0000      -0.351985        -9.5780
  73   2.0000      -0.350232        -9.5303
  74   2.0000      -0.343181        -9.3384
  75   2.0000      -0.341024        -9.2797
  76   2.0000      -0.338649        -9.2151
  77   2.0000      -0.337012        -9.1706
  78   2.0000      -0.332246        -9.0409
  79   2.0000      -0.324738        -8.8366
  80   2.0000      -0.317529        -8.6404
  81   2.0000      -0.311042        -8.4639
  82   2.0000      -0.307960        -8.3800
  83   2.0000      -0.302924        -8.2430
  84   2.0000      -0.299391        -8.1468
  85   2.0000      -0.294396        -8.0109
  86   2.0000      -0.262493        -7.1428
  87   2.0000      -0.255751        -6.9593
  88   2.0000      -0.253639        -6.9019
  89   2.0000      -0.238928        -6.5016
  90   2.0000      -0.236045        -6.4231
  91   2.0000      -0.231819        -6.3081
  92   2.0000      -0.215025        -5.8511
  93   2.0000      -0.196155        -5.3376
  94   2.0000      -0.184882        -5.0309
  95   2.0000      -0.170745        -4.6462
  96   2.0000      -0.098045        -2.6679
  97   0.0000      -0.076047        -2.0693
  98   0.0000      -0.055324        -1.5054
  99   0.0000      -0.014928        -0.4062
 100   0.0000       0.036879         1.0035
 101   0.0000       0.056548         1.5388

MULLIKEN ATOMIC CHARGES
-----------------------
   0 C :   -0.337237
   1 O :   -0.193352
   2 C :    0.195671
   3 O :   -0.504241
   4 C :   -0.115864
   5 C :    0.016443
   6 O :   -0.378632
   7 C :   -0.115913
   8 O :   -0.497896
   9 N :    0.317618
  10 C :   -0.493428
  11 C :   -0.239014
  12 C :    0.164583
  13 C :   -0.663655
  14 C :   -0.599303
  15 N :   -0.087148
  16 C :   -0.230613
  17 O :   -0.401468
  18 C :    0.443924
  19 N :   -0.183301
  20 N :   -0.290829
  21 C :    0.389072
  22 C :   -0.636472
  23 O :   -0.060593
  24 N :    0.046637
  25 C :   -0.425527
  26 H :    0.164706
  27 H :    0.165640
  28 H :    0.165679
  29 H :    0.354976
  30 H :    0.173498
  31 H :    0.176760
  32 H :    0.194383
  33 H :    0.168541
  34 H :    0.192335
  35 H :    0.193654
  36 H :    0.172565
  37 H :    0.185140
  38 H :    0.181687
  39 H :    0.312804
  40 H :    0.203463
  41 H :    0.200430
  42 H :    0.198016
  43 H :    0.154938
  44 H :    0.165828
  45 H :    0.155495
Sum of atomic charges:   -1.0000000

LOEWDIN ATOMIC CHARGES
----------------------
   0 C :   -0.053945
   1 O :   -0.617720
   2 C :    0.376296
   3 O :   -0.544327
   4 C :    0.125990
   5 C :    0.244931
   6 O :   -0.496355
   7 C :    0.307743
   8 O :   -0.614449
   9 N :   -0.731178
  10 C :   -0.106338
  11 C :    0.268469
  12 C :    0.109624
  13 C :   -0.355135
  14 C :   -0.360149
  15 N :   -0.592573
  16 C :    0.360988
  17 O :   -0.460832
  18 C :    0.413910
  19 N :   -0.345811
  20 N :   -0.369117
  21 C :    0.372674
  22 C :   -0.319169
  23 O :   -0.396707
  24 N :   -0.869353
  25 C :   -0.140646
  26 H :    0.173343
  27 H :    0.178776
  28 H :    0.174514
  29 H :    0.302253
  30 H :    0.184806
  31 H :    0.185216
  32 H :    0.201262
  33 H :    0.157863
  34 H :    0.179767
  35 H :    0.176413
  36 H :    0.162882
  37 H :    0.172339
  38 H :    0.169110
  39 H :    0.294944
  40 H :    0.190033
  41 H :    0.190890
  42 H :    0.189922
  43 H :    0.160089
  44 H :    0.177578
  45 H :    0.171180

  Mayer bond orders larger than 0.100000
B(  0-C ,  1-O ) :   0.8421 B(  0-C , 26-H ) :   0.9625 B(  0-C , 27-H ) :   0.9659
B(  0-C , 28-H ) :   0.9628 B(  1-O ,  2-C ) :   1.0905 B(  2-C ,  3-O ) :   1.6582
B(  2-C ,  4-C ) :   1.2750 B(  3-O , 29-H ) :   0.1017 B(  4-C ,  5-C ) :   1.2089
B(  4-C , 11-C ) :   0.1228 B(  4-C , 24-N ) :   0.7353 B(  5-C ,  6-O ) :   1.1036
B(  5-C ,  7-C ) :   1.1503 B(  5-C , 11-C ) :   0.1369 B(  6-O , 29-H ) :   0.7734
B(  7-C ,  8-O ) :   1.8912 B(  7-C ,  9-N ) :   1.0398 B(  7-C , 11-C ) :   0.1005
B(  9-N , 10-C ) :   0.8620 B(  9-N , 11-C ) :   1.1138 B( 10-C , 30-H ) :   0.9520
B( 10-C , 31-H ) :   0.9377 B( 10-C , 32-H ) :   0.9532 B( 11-C , 12-C ) :   0.8510
B( 11-C , 24-N ) :   1.1130 B( 12-C , 13-C ) :   0.8443 B( 12-C , 14-C ) :   0.8699
B( 12-C , 15-N ) :   0.8211 B( 12-C , 24-N ) :  -0.1124 B( 13-C , 33-H ) :   0.9745
B( 13-C , 34-H ) :   0.9575 B( 13-C , 35-H ) :   0.9861 B( 14-C , 36-H ) :   0.9729
B( 14-C , 37-H ) :   0.9732 B( 14-C , 38-H ) :   0.9676 B( 15-N , 16-C ) :   1.1683
B( 15-N , 39-H ) :   0.8924 B( 16-C , 17-O ) :   1.9717 B( 16-C , 18-C ) :   0.7302
B( 17-O , 18-C ) :  -0.1303 B( 18-C , 19-N ) :   1.7307 B( 18-C , 21-C ) :   0.1142
B( 18-C , 23-O ) :   1.0764 B( 19-N , 20-N ) :   1.2712 B( 20-N , 21-C ) :   1.6410
B( 21-C , 22-C ) :   0.8248 B( 21-C , 23-O ) :   1.0643 B( 22-C , 40-H ) :   0.9914
B( 22-C , 41-H ) :   0.9406 B( 22-C , 42-H ) :   0.9471 B( 24-N , 25-C ) :   0.8722
B( 25-C , 43-H ) :   0.9637 B( 25-C , 44-H ) :   0.9736 B( 25-C , 45-H ) :   0.9654

Dispersion correction           -0.022785618
FINAL SINGLE POINT ENERGY     -1308.584632067311

DIPOLE MOMENT
-------------
                                X             Y             Z
Electronic contribution:      5.13829      -6.48649       4.60646
Nuclear contribution   :     -0.60909       9.77060      -7.55411
                        -----------------------------------------
Total Dipole Moment    :      4.52920       3.28411      -2.94765
                        -----------------------------------------
Magnitude (a.u.)       :      6.32358
Magnitude (Debye)      :     16.07326

Rotational constants in cm-1:     0.014364     0.003597     0.003272
Rotational constants in MHz :   430.609656   107.833010    98.095594

                             ****ORCA TERMINATED NORMALLY****
TOTAL RUN TIME: 0 days 0 hours 2 minutes 13 seconds 882 msec
