   * xtb version 6.5.1 (579679a) compiled by 'ehlert@majestix' on 2022-07-11
          program call               : /lustre/hpc/kemi/ree/PhD/git/ReactivityQM/dep/xtb-6.5.1/bin/xtb --gfn 1 /lustre/hpc/kemi/ree/PhD/git/ReactivityQM/calculations/R03/reac02prodE05/conf09/R03_reac02prodE05_conf09_gfn1.xyz --opt --vfukui --chrg -1 --uhf 0 --alpb DMSO

   ID    Z sym.   atoms
    1    6 C      1, 3, 5, 6, 8, 11-15, 17, 19, 22, 23, 26
    2    8 O      2, 4, 7, 9, 18, 24
    3    7 N      10, 16, 20, 21, 25
    4    1 H      27-46

      * Solvation model:               ALPB
        Solvent                        DMSO
        Solvent mass                       7.8130E+01 g/mol
          :  Hamiltonian                  GFN1-xTB          :
 * total energy  :   -86.9826780 Eh     change       -0.5169909E-10 Eh
 * total energy  :   -86.9942581 Eh     change       -0.1158010E-01 Eh
 * total energy  :   -86.9992194 Eh     change       -0.4961278E-02 Eh
 * total energy  :   -87.0006236 Eh     change       -0.1404229E-02 Eh
 * total energy  :   -87.0020885 Eh     change       -0.1464884E-02 Eh
 * total energy  :   -87.0029197 Eh     change       -0.8311996E-03 Eh
 * total energy  :   -87.0037773 Eh     change       -0.8575504E-03 Eh
 * total energy  :   -87.0046709 Eh     change       -0.8936834E-03 Eh
 * total energy  :   -87.0054683 Eh     change       -0.7973500E-03 Eh
 * total energy  :   -87.0061851 Eh     change       -0.7168368E-03 Eh
 * total energy  :   -87.0162729 Eh     change       -0.1339712E-04 Eh
 * total energy  :   -87.0162858 Eh     change       -0.1283820E-04 Eh
 * total energy  :   -87.0162967 Eh     change       -0.1090689E-04 Eh
 * total energy  :   -87.0163110 Eh     change       -0.1438168E-04 Eh
 * total energy  :   -87.0163277 Eh     change       -0.1668841E-04 Eh
 * total energy  :   -87.0163374 Eh     change       -0.9649850E-05 Eh
 * total energy  :   -87.0163456 Eh     change       -0.8224937E-05 Eh
 * total energy  :   -87.0163511 Eh     change       -0.5473031E-05 Eh
 * total energy  :   -87.0163540 Eh     change       -0.2901859E-05 Eh
   *** GEOMETRY OPTIMIZATION CONVERGED AFTER 64 ITERATIONS ***

 final structure:
================
46
 xtb: 6.5.1 (579679a)
C           -4.61265809646458        2.99416755256092       -0.29340534998170
O           -3.64048601646047        2.01989122126333        0.05841006601721
C           -3.90161839508787        0.74707324846561       -0.37079503096905
O           -4.93406712624848        0.50317118199665       -1.01309623566492
C           -2.93297548594651       -0.22375415440075        0.01682978450283
C           -2.99110557489572       -1.55252541548732       -0.40043852125599
O           -4.01537968605823       -2.01611400606481       -1.17140349437660
C           -1.87503930732654       -2.43628106622402       -0.18588522133111
O           -1.89209499891826       -3.68925138135251       -0.30739480328298
N           -0.69886745489342       -1.75257274967338        0.08162511746861
C            0.54693446398337       -2.51172441156840       -0.00052008420206
C           -0.63426315777432       -0.42009174074395        0.47106286584807
C            0.23214617557502        0.54127175576885       -0.33692154036041
C           -0.02644517824769        1.98405692866415        0.11879540859897
C           -0.01141651793161        0.43151319844734       -1.85329953291766
N            1.66675932977995        0.24280531328341       -0.12624447702914
C            2.24830167457339        0.22744057005295        1.08386249598818
O            1.67790536679260        0.35975525106094        2.15859785885816
C            3.72009023736015        0.00682422022505        1.01243163517032
N            4.55549640126246       -0.07199190209653        2.00283832006416
N            5.79174006897020       -0.28008758460137        1.46069490407486
C            5.63331997008469       -0.31694926273846        0.17567535714444
C            6.67044176647278       -0.51937022183845       -0.85980407389957
O            4.34786374136726       -0.14316981108422       -0.17630548529044
N           -1.87879198113446        0.13950242047221        0.93014360387733
C           -2.17995109340838       -0.26759285929704        2.31906825078157
H           -4.69400232300217        3.08577212289234       -1.38146571652982
H           -4.28446438833607        3.94246812297482        0.13139870792206
H           -5.59408318488277        2.72731825857548        0.11194328739447
H           -4.65328996284954       -1.27990743031937       -1.31185925273947
H            1.10978688438824       -2.39910103052775        0.92766956097883
H            1.16037708153206       -2.15556605685725       -0.82927434466976
H            0.31201223330953       -3.56577341043429       -0.15729617836744
H            0.65290566667043        2.66448726728266       -0.39316447005397
H           -1.05346713099481        2.26281885870211       -0.11409212699050
H            0.12222788521771        2.07338856084300        1.19439615479055
H            0.61133669738923        1.14543592323494       -2.39113209261000
H           -1.05766751002214        0.64647219902940       -2.06753355366079
H            0.22106218556156       -0.57078178905848       -2.20954243845736
H            2.25950494736379        0.21129194992323       -0.93777959028412
H            7.64904125686318       -0.58035471621453       -0.39036061494237
H            6.47334613227134       -1.43879683316091       -1.41074130395046
H            6.65465863032718        0.30734201747216       -1.56904623113091
H           -2.35522311593817       -1.34811047335658        2.40378491938854
H           -1.32977952200914        0.00996320558222        2.94366997187216
H           -3.07011758828884        0.26563395831960        2.65590249422553

          :  Hamiltonian                  GFN1-xTB          :
         :: total energy             -87.016353986131 Eh    ::
         :: gradient norm              0.000526507085 Eh/a0 ::
         :: HOMO-LUMO gap              0.259903442310 eV    ::
         :: SCC energy               -87.795861884401 Eh    ::
         :: -> Gsolv                  -0.116872631218 Eh    ::
         :: repulsion energy           0.811056684577 Eh    ::

    * Orbital Energies and Occupations

         #    Occupation            Energy/Eh            Energy/eV
      -------------------------------------------------------------
         1        2.0000           -0.8556023             -23.2821
       ...           ...                  ...                  ...
        59        2.0000           -0.4705748             -12.8050
        60        2.0000           -0.4625604             -12.5869
        61        2.0000           -0.4596985             -12.5090
        62        2.0000           -0.4523273             -12.3085
        63        2.0000           -0.4482461             -12.1974
        64        2.0000           -0.4403299             -11.9820
        65        2.0000           -0.4331607             -11.7869
        66        2.0000           -0.4304596             -11.7134
        67        2.0000           -0.4090278             -11.1302
        68        2.0000           -0.3966186             -10.7925
        69        2.0000           -0.3836816             -10.4405
        70        2.0000           -0.3653555              -9.9418
        71        1.9870           -0.3058732              -8.3232 (HOMO)
        72        0.0130           -0.2963220              -8.0633 (LUMO)
        73                         -0.2704134              -7.3583
        74                         -0.2485371              -6.7630
        75                         -0.1885454              -5.1306
        76                         -0.1841221              -5.0102
        77                         -0.1385536              -3.7702
        78                         -0.1319052              -3.5893
        79                         -0.1196946              -3.2571
        80                         -0.1180291              -3.2117
        81                         -0.1079151              -2.9365
        82                         -0.0995776              -2.7096
       ...                                ...                  ...
       144                          0.7367265              20.0473
      -------------------------------------------------------------
                  HL-Gap            0.0095513 Eh            0.2599 eV

Wiberg/Mayer (AO) data.
largest (>0.10) Wiberg bond orders for each atom

     #   Z sym  total        # sym  WBO       # sym  WBO       # sym  WBO
 ---------------------------------------------------------------------------
     1   6 C    3.899 --    28 H    0.987    27 H    0.981    29 H    0.981
                             2 O    0.926
     2   8 O    2.143 --     3 C    1.019     1 C    0.926
     3   6 C    3.859 --     4 O    1.490     5 C    1.196     2 O    1.019
     4   8 O    1.865 --     3 C    1.490
     5   6 C    3.923 --     6 C    1.388     3 C    1.196    25 N    0.974
     6   6 C    3.904 --     5 C    1.388     8 C    1.152     7 O    1.051
                            12 C    0.137
     7   8 O    2.025 --     6 C    1.051    30 H    0.803
     8   6 C    3.924 --     9 O    1.401     6 C    1.152    10 N    1.140
                            12 C    0.120
     9   8 O    1.738 --     8 C    1.401    10 N    0.138
    10   7 N    3.473 --     8 C    1.140    12 C    1.114    11 C    0.951
                             9 O    0.138
    11   6 C    3.957 --    31 H    0.985    32 H    0.980    33 H    0.978
                            10 N    0.951
    12   6 C    3.700 --    10 N    1.114    25 N    0.975    13 C    0.969
                             6 C    0.137     8 C    0.120
    13   6 C    3.916 --    14 C    0.993    15 C    0.984    12 C    0.969
                            16 N    0.896
    14   6 C    3.993 --    13 C    0.993    34 H    0.988    36 H    0.983
                            35 H    0.982
    15   6 C    3.995 --    37 H    0.985    13 C    0.984    38 H    0.984
                            39 H    0.983
    16   7 N    3.366 --    17 C    1.283    40 H    0.903    13 C    0.896
                            18 O    0.182
    17   6 C    3.918 --    18 O    1.563    16 N    1.283    19 C    0.986
    18   8 O    1.870 --    17 C    1.563    16 N    0.182
    19   6 C    3.859 --    20 N    1.621    24 O    1.044    17 C    0.986
    20   7 N    2.984 --    19 C    1.621    21 N    1.190
    21   7 N    2.980 --    22 C    1.620    20 N    1.190
    22   6 C    3.869 --    21 N    1.620    24 O    1.070    23 C    1.030
    23   6 C    3.988 --    22 C    1.030    41 H    0.983    43 H    0.966
                            42 H    0.963
    24   8 O    2.309 --    22 C    1.070    19 C    1.044
    25   7 N    3.054 --    12 C    0.975     5 C    0.974    26 C    0.960
    26   6 C    3.982 --    46 H    0.988    45 H    0.988    44 H    0.983
                            25 N    0.960
    27   1 H    1.013 --     1 C    0.981
    28   1 H    1.016 --     1 C    0.987
    29   1 H    1.014 --     1 C    0.981
    30   1 H    0.884 --     7 O    0.803
    31   1 H    1.014 --    11 C    0.985
    32   1 H    1.014 --    11 C    0.980
    33   1 H    1.021 --    11 C    0.978
    34   1 H    1.005 --    14 C    0.988
    35   1 H    1.026 --    14 C    0.982
    36   1 H    1.018 --    14 C    0.983
    37   1 H    1.001 --    15 C    0.985
    38   1 H    1.012 --    15 C    0.984
    39   1 H    1.004 --    15 C    0.983
    40   1 H    0.948 --    16 N    0.903
    41   1 H    0.999 --    23 C    0.983
    42   1 H    0.998 --    23 C    0.963
    43   1 H    0.998 --    23 C    0.966
    44   1 H    1.009 --    26 C    0.983
    45   1 H    1.028 --    26 C    0.988
    46   1 H    1.019 --    26 C    0.988
 ---------------------------------------------------------------------------

           -------------------------------------------------
          | TOTAL ENERGY              -87.016353986131 Eh   |
          | GRADIENT NORM               0.000526507085 Eh/α |
          | HOMO-LUMO GAP               0.259903442310 eV   |
           -------------------------------------------------

 * finished run on 2023/06/20 at 15:19:56.163
