   * xtb version 6.5.1 (579679a) compiled by 'ehlert@majestix' on 2022-07-11
          program call               : /lustre/hpc/kemi/ree/PhD/git/ReactivityQM/dep/xtb-6.5.1/bin/xtb --gfn 1 /lustre/hpc/kemi/ree/PhD/git/ReactivityQM/calculations/R02methylcation/reac01prodN06/conf10/R02methylcation_reac01prodN06_conf10_gfn1.xyz --opt --vfukui --chrg 0 --uhf 0 --alpb DMSO

   ID    Z sym.   atoms
    1    6 C      1, 3, 5, 7-10, 12, 14, 16, 17, 20, 22, 24
    2    8 O      2, 4, 13, 15, 23, 25
    3    7 N      6, 11, 18, 19, 21
    4    1 H      26-42

      * Solvation model:               ALPB
        Solvent                        DMSO
        Solvent mass                       7.8130E+01 g/mol
          :  Hamiltonian                  GFN1-xTB          :
 * total energy  :   -82.9549012 Eh     change       -0.3209209E-08 Eh
 * total energy  :   -82.9699636 Eh     change       -0.1506235E-01 Eh
 * total energy  :   -82.9774535 Eh     change       -0.7489892E-02 Eh
 * total energy  :   -82.9789039 Eh     change       -0.1450367E-02 Eh
 * total energy  :   -82.9801213 Eh     change       -0.1217417E-02 Eh
 * total energy  :   -82.9807373 Eh     change       -0.6160114E-03 Eh
 * total energy  :   -82.9812484 Eh     change       -0.5111312E-03 Eh
 * total energy  :   -82.9816260 Eh     change       -0.3775962E-03 Eh
 * total energy  :   -82.9818622 Eh     change       -0.2362243E-03 Eh
 * total energy  :   -82.9820026 Eh     change       -0.1403242E-03 Eh
 * total energy  :   -82.9826406 Eh     change       -0.7940874E-05 Eh
 * total energy  :   -82.9826567 Eh     change       -0.1611948E-04 Eh
 * total energy  :   -82.9826749 Eh     change       -0.1821204E-04 Eh
 * total energy  :   -82.9826926 Eh     change       -0.1771868E-04 Eh
 * total energy  :   -82.9827055 Eh     change       -0.1284995E-04 Eh
 * total energy  :   -82.9827166 Eh     change       -0.1107034E-04 Eh
 * total energy  :   -82.9827248 Eh     change       -0.8278854E-05 Eh
 * total energy  :   -82.9827305 Eh     change       -0.5672396E-05 Eh
 * total energy  :   -82.9827355 Eh     change       -0.4933233E-05 Eh
   *** GEOMETRY OPTIMIZATION CONVERGED AFTER 36 ITERATIONS ***

 final structure:
================
42
 xtb: 6.5.1 (579679a)
C           -6.33652781546543       -1.19654725291622       -2.29052360573795
O           -5.30455409992964       -1.35241890249626       -1.32411044551185
C           -4.33201312954310       -0.41324203267587       -1.34177175577934
O           -4.35695273287591        0.50414683669639       -2.15132526968414
C           -3.29337000618802       -0.59445907167764       -0.33120390068255
N           -2.33622837540268        0.39577234712535       -0.36680557127385
C           -1.36236360646831        0.40357228472881        0.46760843852003
C           -0.34034530370123        1.52510404438510        0.41318244510939
C           -0.69415829001289        2.47779609835407       -0.72963211875183
C           -0.26435208084899        2.29217333858605        1.73625430087149
N            0.98392302585859        0.94747843116342        0.07504431305550
C            1.78710681104268        0.29607500783767        0.91388807092414
O            1.59298181725061        0.03104479442020        2.09023335345621
C            3.05895178970817       -0.14211575469070        0.26066203127483
O            3.34859512587052        0.07933835204037       -1.01733119154212
C            4.57379491059663       -0.44012588679275       -1.21700374276871
C            5.21406144096563       -0.36176277935731       -2.54067000876234
N            5.04306909875370       -0.96818958505150       -0.12626087518233
N            4.08329097224755       -0.77311028772582        0.79979708275373
C            4.29396770932814       -1.24770287503280        2.15128624737914
N           -1.21640503285107       -0.57661603695295        1.42344419208394
C           -2.07173186737692       -1.64281733063592        1.55484411679650
O           -1.86157755592113       -2.49156574979487        2.41540227694234
C           -3.24390504630639       -1.67063989069839        0.59730775657481
O           -4.05565327300124       -2.60686348353959        0.67847719828114
H           -6.83814422585543       -0.23196069196427       -2.16671431974199
H           -5.92705814431466       -1.25430587122580       -3.30343768889078
H           -7.04715436163174       -2.00671462330815       -2.13174601504475
H            0.04697184566781        3.27100575930451       -0.79734971594931
H           -0.73086835007788        1.93586061516101       -1.67380759999585
H           -1.67389993895929        2.91654425966906       -0.54531439898420
H            0.54487666275286        3.01855950470232        1.69432394218577
H           -0.09439443508189        1.62457452804554        2.57741691416002
H           -1.20515497800469        2.81892309941923        1.89196721376860
H            1.30655602865830        1.08791420980120       -0.86859634360276
H            6.20359080395204       -0.81050189862197       -2.50099614127359
H            5.29138936658101        0.68198668027872       -2.84713512825272
H            4.59987896272425       -0.88028805544882       -3.27816777632469
H            4.03667327638390       -2.30607833155455        2.19526877094297
H            5.34517330453173       -1.11245904636628        2.39416311930944
H            3.65785521401562       -0.68035819998843        2.82674359161889
H           -0.42589651707452       -0.54702455319845        2.05028423773229

          :  Hamiltonian                  GFN1-xTB          :
         :: total energy             -82.982735453031 Eh    ::
         :: gradient norm              0.000728990527 Eh/a0 ::
         :: HOMO-LUMO gap              0.209335865916 eV    ::
         :: SCC energy               -83.769032940786 Eh    ::
         :: -> Gsolv                  -0.110405483643 Eh    ::
         :: repulsion energy           0.811643557167 Eh    ::

    * Orbital Energies and Occupations

         #    Occupation            Energy/Eh            Energy/eV
      -------------------------------------------------------------
         1        2.0000           -0.9275797             -25.2407
       ...           ...                  ...                  ...
        55        2.0000           -0.5092203             -13.8566
        56        2.0000           -0.5039438             -13.7130
        57        2.0000           -0.5005922             -13.6218
        58        2.0000           -0.4923562             -13.3977
        59        2.0000           -0.4860378             -13.2258
        60        2.0000           -0.4730362             -12.8720
        61        2.0000           -0.4700593             -12.7910
        62        2.0000           -0.4638681             -12.6225
        63        2.0000           -0.4479336             -12.1889
        64        2.0000           -0.4435494             -12.0696
        65        2.0000           -0.4257456             -11.5851
        66        2.0000           -0.3871403             -10.5346
        67        1.9657           -0.3749179             -10.2020 (HOMO)
        68        0.0343           -0.3672250              -9.9927 (LUMO)
        69                         -0.3156120              -8.5882
        70                         -0.2771322              -7.5412
        71                         -0.2516575              -6.8479
        72                         -0.2438268              -6.6349
        73                         -0.2039693              -5.5503
        74                         -0.1651121              -4.4929
        75                         -0.1634012              -4.4464
        76                         -0.1310081              -3.5649
        77                         -0.1255128              -3.4154
        78                         -0.1239443              -3.3727
       ...                                ...                  ...
       134                          0.7527026              20.4821
      -------------------------------------------------------------
                  HL-Gap            0.0076930 Eh            0.2093 eV

Wiberg/Mayer (AO) data.
largest (>0.10) Wiberg bond orders for each atom

     #   Z sym  total        # sym  WBO       # sym  WBO       # sym  WBO
 ---------------------------------------------------------------------------
     1   6 C    3.894 --    28 H    0.987    27 H    0.980    26 H    0.980
                             2 O    0.920
     2   8 O    2.167 --     3 C    1.060     1 C    0.920     4 O    0.114
     3   6 C    3.847 --     4 O    1.586     5 C    1.096     2 O    1.060
     4   8 O    1.854 --     3 C    1.586     2 O    0.114
     5   6 C    3.876 --    24 C    1.255     6 N    1.172     3 C    1.096
                            25 O    0.118
     6   7 N    3.029 --     7 C    1.612     5 C    1.172
     7   6 C    3.919 --     6 N    1.612    21 N    1.108     8 C    0.965
     8   6 C    3.910 --     9 C    1.001    10 C    0.990     7 C    0.965
                            11 N    0.887
     9   6 C    3.990 --     8 C    1.001    29 H    0.986    30 H    0.982
                            31 H    0.981
    10   6 C    3.987 --     8 C    0.990    32 H    0.984    34 H    0.983
                            33 H    0.979
    11   7 N    3.397 --    12 C    1.319    35 H    0.889     8 C    0.887
                            13 O    0.197
    12   6 C    3.918 --    13 O    1.547    11 N    1.319    14 C    0.972
    13   8 O    1.921 --    12 C    1.547    11 N    0.197
    14   6 C    3.798 --    19 N    1.424    15 O    1.110    12 C    0.972
    15   8 O    2.348 --    14 C    1.110    16 C    1.065
    16   6 C    3.839 --    18 N    1.585    15 O    1.065    17 C    1.042
    17   6 C    3.972 --    16 C    1.042    36 H    0.978    37 H    0.951
                            38 H    0.950
    18   7 N    2.960 --    16 C    1.585    19 N    1.147
    19   7 N    3.613 --    14 C    1.424    18 N    1.147    20 C    0.911
    20   6 C    3.882 --    40 H    0.974    41 H    0.971    39 H    0.961
                            19 N    0.911
    21   7 N    3.427 --    22 C    1.157     7 C    1.108    42 H    0.880
                            23 O    0.134
    22   6 C    3.875 --    23 O    1.588    21 N    1.157    24 C    0.964
    23   8 O    1.861 --    22 C    1.588    21 N    0.134
    24   6 C    3.931 --    25 O    1.535     5 C    1.255    22 C    0.964
    25   8 O    1.817 --    24 C    1.535     5 C    0.118
    26   1 H    1.013 --     1 C    0.980
    27   1 H    1.012 --     1 C    0.980
    28   1 H    1.015 --     1 C    0.987
    29   1 H    0.999 --     9 C    0.986
    30   1 H    1.008 --     9 C    0.982
    31   1 H    1.009 --     9 C    0.981
    32   1 H    0.999 --    10 C    0.984
    33   1 H    1.008 --    10 C    0.979
    34   1 H    1.001 --    10 C    0.983
    35   1 H    0.930 --    11 N    0.889
    36   1 H    0.991 --    17 C    0.978
    37   1 H    0.990 --    17 C    0.951
    38   1 H    0.989 --    17 C    0.950
    39   1 H    0.990 --    20 C    0.961
    40   1 H    0.993 --    20 C    0.974
    41   1 H    1.005 --    20 C    0.971
    42   1 H    0.947 --    21 N    0.880
 ---------------------------------------------------------------------------

           -------------------------------------------------
          | TOTAL ENERGY              -82.982735453031 Eh   |
          | GRADIENT NORM               0.000728990527 Eh/α |
          | HOMO-LUMO GAP               0.209335865916 eV   |
           -------------------------------------------------

 * finished run on 2023/06/21 at 17:36:38.045
