   * xtb version 6.5.1 (579679a) compiled by 'ehlert@majestix' on 2022-07-11
          program call               : /lustre/hpc/kemi/ree/PhD/git/ReactivityQM/dep/xtb-6.5.1/bin/xtb --gfn 1 /lustre/hpc/kemi/ree/PhD/git/ReactivityQM/calculations/R03/reac01prodN05/conf01/R03_reac01prodN05_conf01_gfn1.xyz --opt --vfukui --chrg 1 --uhf 0 --alpb DMSO

   ID    Z sym.   atoms
    1    6 C      1, 2, 4-7, 9, 10
    2    9 F      3
    3    7 N      8
    4    1 H      11-21

      * Solvation model:               ALPB
        Solvent                        DMSO
        Solvent mass                       7.8130E+01 g/mol
          :  Hamiltonian                  GFN1-xTB          :
 * total energy  :   -30.7527912 Eh     change       -0.2096101E-11 Eh
 * total energy  :   -30.7556915 Eh     change       -0.2900256E-02 Eh
 * total energy  :   -30.7572799 Eh     change       -0.1588475E-02 Eh
 * total energy  :   -30.7578043 Eh     change       -0.5243422E-03 Eh
 * total energy  :   -30.7584779 Eh     change       -0.6735663E-03 Eh
 * total energy  :   -30.7589129 Eh     change       -0.4350203E-03 Eh
 * total energy  :   -30.7592374 Eh     change       -0.3245547E-03 Eh
 * total energy  :   -30.7595295 Eh     change       -0.2920936E-03 Eh
 * total energy  :   -30.7598419 Eh     change       -0.3123704E-03 Eh
 * total energy  :   -30.7601520 Eh     change       -0.3101284E-03 Eh
 * total energy  :   -30.7612086 Eh     change       -0.2500538E-04 Eh
 * total energy  :   -30.7612366 Eh     change       -0.2793698E-04 Eh
 * total energy  :   -30.7612524 Eh     change       -0.1589322E-04 Eh
 * total energy  :   -30.7612864 Eh     change       -0.3391836E-04 Eh
 * total energy  :   -30.7613215 Eh     change       -0.3515993E-04 Eh
 * total energy  :   -30.7613342 Eh     change       -0.1269735E-04 Eh
 * total energy  :   -30.7613676 Eh     change       -0.3337636E-04 Eh
 * total energy  :   -30.7613797 Eh     change       -0.1213811E-04 Eh
 * total energy  :   -30.7613828 Eh     change       -0.3076737E-05 Eh
   *** GEOMETRY OPTIMIZATION CONVERGED AFTER 30 ITERATIONS ***

 final structure:
================
21
 xtb: 6.5.1 (579679a)
C           -2.58509810016522        0.26298344511376        0.69353995312242
C           -1.78018721250029       -0.17751198645270       -0.57274472237613
F           -2.71050027674056       -0.37974927616952       -1.55216825887035
C           -1.09211775426059       -1.43117093830134       -0.19930387583798
C            0.19952539810797       -1.40452611533993        0.21578011217532
C            0.97247963251129       -0.21513320614591        0.13583052780567
C            2.39270675261781       -0.22659473268960        0.56862386861169
N            3.23261043872793        0.59311305311994       -0.27635813948429
C            0.40889878346672        0.94010022956408       -0.46634696721096
C           -0.88189165921139        0.95547941567579       -0.88421830539761
H           -3.13670408078377        1.16613353092150        0.44301654566639
H           -3.27936494344454       -0.53518082798343        0.94566514183891
H           -1.91575793969313        0.45306449664082        1.52723408843037
H           -1.68158379766770       -2.34030023815824       -0.18791754349186
H            0.67614177286262       -2.30991243703943        0.57404319238130
H            2.45974472152012        0.14868622904532        1.59470981332820
H            2.76699517221640       -1.25585775279666        0.58532273451708
H            2.92256633090409        0.58467943735511       -1.23586891317632
H            3.31117440530608        1.54031841834454        0.05767049889509
H            1.04022287446874        1.80748055932613       -0.61467734088936
H           -1.31985951824246        1.82389769596980       -1.36142941003766

          :  Hamiltonian                  GFN1-xTB          :
         :: total energy             -30.761382815031 Eh    ::
         :: gradient norm              0.000863532021 Eh/a0 ::
         :: HOMO-LUMO gap              0.834176088578 eV    ::
         :: SCC energy               -31.152855603845 Eh    ::
         :: -> Gsolv                  -0.087254706418 Eh    ::
         :: repulsion energy           0.401633361293 Eh    ::

    * Orbital Energies and Occupations

         #    Occupation            Energy/Eh            Energy/eV
      -------------------------------------------------------------
         1        2.0000           -0.8943132             -24.3355
       ...           ...                  ...                  ...
        15        2.0000           -0.5975163             -16.2592
        16        2.0000           -0.5917123             -16.1013
        17        2.0000           -0.5742067             -15.6250
        18        2.0000           -0.5679571             -15.4549
        19        2.0000           -0.5663971             -15.4124
        20        2.0000           -0.5644338             -15.3590
        21        2.0000           -0.5555307             -15.1168
        22        2.0000           -0.5493893             -14.9496
        23        2.0000           -0.5316405             -14.4667
        24        2.0000           -0.5222115             -14.2101
        25        2.0000           -0.5181234             -14.0989
        26        2.0000           -0.5097144             -13.8700
        27        2.0000           -0.4509792             -12.2718 (HOMO)
        28        0.0000           -0.4203238             -11.4376 (LUMO)
        29                         -0.3251342              -8.8474
        30                         -0.2526873              -6.8760
        31                         -0.1583658              -4.3094
        32                         -0.1552120              -4.2235
        33                         -0.1428455              -3.8870
        34                         -0.1392448              -3.7890
        35                         -0.1344702              -3.6591
        36                         -0.1213468              -3.3020
        37                         -0.0983569              -2.6764
        38                         -0.0949189              -2.5829
       ...                                ...                  ...
        62                          0.5425340              14.7631
      -------------------------------------------------------------
                  HL-Gap            0.0306554 Eh            0.8342 eV

Wiberg/Mayer (AO) data.
largest (>0.10) Wiberg bond orders for each atom

     #   Z sym  total        # sym  WBO       # sym  WBO       # sym  WBO
 ---------------------------------------------------------------------------
     1   6 C    3.944 --    13 H    0.982    11 H    0.974    12 H    0.974
                             2 C    0.854
     2   6 C    3.887 --     4 C    1.040    10 C    1.037     3 F    0.901
                             1 C    0.854
     3   9 F    1.010 --     2 C    0.901
     4   6 C    3.952 --     5 C    1.653     2 C    1.040    14 H    0.960
     5   6 C    3.987 --     4 C    1.653     6 C    1.268    15 H    0.960
     6   6 C    3.921 --     9 C    1.270     5 C    1.268     7 C    1.059
     7   6 C    3.974 --     6 C    1.059     8 N    0.995    17 H    0.943
                            16 H    0.914
     8   7 N    3.078 --     7 C    0.995    18 H    0.929    19 H    0.923
     9   6 C    3.987 --    10 C    1.650     6 C    1.270    20 H    0.959
    10   6 C    3.954 --     9 C    1.650     2 C    1.037    21 H    0.960
    11   1 H    0.993 --     1 C    0.974
    12   1 H    0.993 --     1 C    0.974
    13   1 H    0.994 --     1 C    0.982
    14   1 H    0.988 --     4 C    0.960
    15   1 H    0.990 --     5 C    0.960
    16   1 H    0.992 --     7 C    0.914
    17   1 H    0.998 --     7 C    0.943
    18   1 H    0.942 --     8 N    0.929
    19   1 H    0.936 --     8 N    0.923
    20   1 H    0.993 --     9 C    0.959
    21   1 H    0.988 --    10 C    0.960
 ---------------------------------------------------------------------------

           -------------------------------------------------
          | TOTAL ENERGY              -30.761382815031 Eh   |
          | GRADIENT NORM               0.000863532021 Eh/α |
          | HOMO-LUMO GAP               0.834176088578 eV   |
           -------------------------------------------------

 * finished run on 2023/06/20 at 15:14:34.548
