   * xtb version 6.5.1 (579679a) compiled by 'ehlert@majestix' on 2022-07-11
          program call               : /lustre/hpc/kemi/ree/PhD/git/ReactivityQM/dep/xtb-6.5.1/bin/xtb --gfn 1 /lustre/hpc/kemi/ree/PhD/git/ReactivityQM/calculations/R02deprot/reac01prodE06/conf12/R02deprot_reac01prodE06_conf12_gfn1.xyz --opt --vfukui --chrg -2 --uhf 0 --alpb DMSO

   ID    Z sym.   atoms
    1    6 C      1, 3, 5, 6, 8, 11-15, 17, 19, 22, 23
    2    8 O      2, 4, 7, 9, 18, 24
    3    7 N      10, 16, 20, 21, 25
    4    1 H      26-42

      * Solvation model:               ALPB
        Solvent                        DMSO
        Solvent mass                       7.8130E+01 g/mol
          :  Hamiltonian                  GFN1-xTB          :
 * total energy  :   -83.5800531 Eh     change       -0.2043905E-08 Eh
 * total energy  :   -83.5905772 Eh     change       -0.1052411E-01 Eh
 * total energy  :   -83.5944241 Eh     change       -0.3846979E-02 Eh
 * total energy  :   -83.5950875 Eh     change       -0.6633712E-03 Eh
 * total energy  :   -83.5957535 Eh     change       -0.6659558E-03 Eh
 * total energy  :   -83.5962066 Eh     change       -0.4531347E-03 Eh
 * total energy  :   -83.5966960 Eh     change       -0.4893650E-03 Eh
 * total energy  :   -83.5971892 Eh     change       -0.4931993E-03 Eh
 * total energy  :   -83.5975765 Eh     change       -0.3873500E-03 Eh
 * total energy  :   -83.5978592 Eh     change       -0.2827028E-03 Eh
 * total energy  :   -83.5997984 Eh     change       -0.1519368E-04 Eh
 * total energy  :   -83.5998171 Eh     change       -0.1869069E-04 Eh
 * total energy  :   -83.5998289 Eh     change       -0.1186480E-04 Eh
 * total energy  :   -83.5998405 Eh     change       -0.1158421E-04 Eh
 * total energy  :   -83.5998463 Eh     change       -0.5749875E-05 Eh
 * total energy  :   -83.5998616 Eh     change       -0.1532696E-04 Eh
 * total energy  :   -83.5998693 Eh     change       -0.7672266E-05 Eh
 * total energy  :   -83.5998789 Eh     change       -0.9646756E-05 Eh
 * total energy  :   -83.5998839 Eh     change       -0.4955558E-05 Eh
   *** GEOMETRY OPTIMIZATION CONVERGED AFTER 74 ITERATIONS ***

 final structure:
================
42
 xtb: 6.5.1 (579679a)
C           -6.47856848945633        0.60226054036698       -0.06941767628212
O           -5.12660484986950        1.03170924197811        0.03755523749726
C           -4.18600127194825        0.04126254678618       -0.04944273908976
O           -4.54628596188073       -1.11486365914894       -0.21085660590122
C           -2.78739097965911        0.48947645330885        0.06355285874661
C           -2.36833658455544        1.81167633286664        0.13240510414919
O           -3.20713666680305        2.91335246913824        0.19926394686230
C           -0.92206380328737        2.13009007816338       -0.03128762665164
O           -0.55714777195760        3.32460543779894       -0.22449781791460
N           -0.06399656525765        1.11794025922716       -0.00959509106527
C           -0.53280042908395       -0.21407393252489        0.30031771258901
C           -0.23845471227953       -0.48249636038591        1.80864042008165
C            0.33282698728090       -1.19426156730688       -0.58560347987648
C            0.07856143481271       -2.65711481211781       -0.21784883957825
C           -0.03966964194733       -0.94981112236718       -2.05577182670683
N            1.72360496895515       -0.80001425714208       -0.38152220462074
C            2.82072703873601       -1.54837880314751       -0.58960717756030
O            2.82464752249801       -2.73058136154703       -0.96866202397867
C            4.07894073291301       -0.84441135577550       -0.30390300004936
N            5.29973246274672       -1.29963282349019       -0.48057964827587
N            6.15087274956639       -0.29733475503413       -0.10244421128064
C            5.41640000128297        0.69889430395082        0.27670733422975
C            5.87858321731807        2.01517177207666        0.77705177588601
O            4.09858543985014        0.43302259267223        0.17721919054798
N           -1.91762562151862       -0.54315199972083        0.04855507632973
H           -6.64599703819742        0.08636929290091       -1.02015710249734
H           -7.10515997276292        1.49075408434593       -0.01740117953273
H           -6.73177720565659       -0.07693224065070        0.75048226086832
H           -4.13290444422636        2.64907673428874        0.27224628159392
H           -0.71997938575344        0.29334250916640        2.40304332195357
H            0.83451763348280       -0.45290361148352        1.99736449853727
H           -0.63684710602852       -1.44924475416889        2.11327491419190
H           -0.99714244765073       -2.79710619128039       -0.09552423594758
H            0.42928384380073       -3.33080417369736       -0.99927677691039
H            0.57767065896309       -2.92350965031628        0.71282585867118
H            0.55014819695466       -1.58277947030376       -2.71870578268467
H           -1.09841780814310       -1.17240106657988       -2.19575595155347
H            0.13792304053454        0.09572428907811       -2.31127889354959
H            1.82840630284896        0.19690033462781       -0.19051050786625
H            6.96468662404521        2.02521434835651        0.81476368292234
H            5.48072022273763        2.20138496981293        1.77453465683969
H            5.53347167859825        2.81357837727192        0.11975626686349

          :  Hamiltonian                  GFN1-xTB          :
         :: total energy             -83.599883863596 Eh    ::
         :: gradient norm              0.000549406116 Eh/a0 ::
         :: HOMO-LUMO gap              0.167048008560 eV    ::
         :: SCC energy               -84.321601317231 Eh    ::
         :: -> Gsolv                  -0.273950644269 Eh    ::
         :: repulsion energy           0.748680815523 Eh    ::

    * Orbital Energies and Occupations

         #    Occupation            Energy/Eh            Energy/eV
      -------------------------------------------------------------
         1        2.0000           -0.8273429             -22.5131
       ...           ...                  ...                  ...
        56        2.0000           -0.4370935             -11.8939
        57        2.0000           -0.4268926             -11.6163
        58        2.0000           -0.4228916             -11.5075
        59        2.0000           -0.4190962             -11.4042
        60        2.0000           -0.4177563             -11.3677
        61        2.0000           -0.4049935             -11.0204
        62        2.0000           -0.3990246             -10.8580
        63        2.0000           -0.3899570             -10.6113
        64        2.0000           -0.3728016             -10.1444
        65        2.0000           -0.3447365              -9.3808
        66        2.0000           -0.3212360              -8.7413
        67        2.0000           -0.3127583              -8.5106
        68        1.9240           -0.2784552              -7.5772 (HOMO)
        69        0.0760           -0.2723163              -7.4101 (LUMO)
        70                         -0.2378546              -6.4724
        71                         -0.2278526              -6.2002
        72                         -0.1556140              -4.2345
        73                         -0.1410389              -3.8379
        74                         -0.1308182              -3.5597
        75                         -0.1164092              -3.1677
        76                         -0.0912760              -2.4837
        77                         -0.0841928              -2.2910
        78                         -0.0769859              -2.0949
        79                         -0.0708087              -1.9268
       ...                                ...                  ...
       134                          0.7445877              20.2613
      -------------------------------------------------------------
                  HL-Gap            0.0061389 Eh            0.1670 eV

Wiberg/Mayer (AO) data.
largest (>0.10) Wiberg bond orders for each atom

     #   Z sym  total        # sym  WBO       # sym  WBO       # sym  WBO
 ---------------------------------------------------------------------------
     1   6 C    3.896 --    27 H    0.987    28 H    0.981    26 H    0.981
                             2 O    0.919
     2   8 O    2.160 --     3 C    1.020     1 C    0.919     4 O    0.107
     3   6 C    3.810 --     4 O    1.613     5 C    1.055     2 O    1.020
     4   8 O    1.878 --     3 C    1.613     2 O    0.107
     5   6 C    3.959 --     6 C    1.389    25 N    1.304     3 C    1.055
     6   6 C    3.775 --     5 C    1.389     8 C    1.032     7 O    0.996
                            25 N    0.161
     7   8 O    1.969 --     6 C    0.996    29 H    0.847
     8   6 C    3.936 --    10 N    1.407     9 O    1.402     6 C    1.032
     9   8 O    1.681 --     8 C    1.402    10 N    0.170
    10   7 N    2.889 --     8 C    1.407    11 C    1.001     9 O    0.170
    11   6 C    3.959 --    25 N    1.002    10 N    1.001    12 C    0.954
                            13 C    0.923
    12   6 C    3.979 --    30 H    0.986    32 H    0.986    31 H    0.986
                            11 C    0.954
    13   6 C    3.914 --    14 C    1.002    15 C    0.988    16 N    0.925
                            11 C    0.923
    14   6 C    3.996 --    13 C    1.002    35 H    0.986    34 H    0.983
                            33 H    0.982
    15   6 C    3.993 --    13 C    0.988    36 H    0.988    38 H    0.983
                            37 H    0.982
    16   7 N    3.366 --    17 C    1.265    13 C    0.925    39 H    0.885
                            18 O    0.166
    17   6 C    3.895 --    18 O    1.478    16 N    1.265    19 C    1.037
    18   8 O    1.773 --    17 C    1.478    16 N    0.166
    19   6 C    3.780 --    20 N    1.529    17 C    1.037    24 O    1.014
    20   7 N    2.869 --    19 C    1.529    21 N    1.185
    21   7 N    2.979 --    22 C    1.626    20 N    1.185
    22   6 C    3.846 --    21 N    1.626    24 O    1.061    23 C    1.027
    23   6 C    3.992 --    22 C    1.027    40 H    0.985    41 H    0.969
                            42 H    0.968
    24   8 O    2.259 --    22 C    1.061    19 C    1.014
    25   7 N    2.751 --     5 C    1.304    11 C    1.002     6 C    0.161
    26   1 H    1.015 --     1 C    0.981
    27   1 H    1.015 --     1 C    0.987
    28   1 H    1.014 --     1 C    0.981
    29   1 H    0.898 --     7 O    0.847
    30   1 H    1.018 --    12 C    0.986
    31   1 H    1.016 --    12 C    0.986
    32   1 H    1.017 --    12 C    0.986
    33   1 H    1.030 --    14 C    0.982
    34   1 H    1.022 --    14 C    0.983
    35   1 H    1.011 --    14 C    0.986
    36   1 H    1.009 --    15 C    0.988
    37   1 H    1.026 --    15 C    0.982
    38   1 H    1.026 --    15 C    0.983
    39   1 H    0.995 --    16 N    0.885
    40   1 H    1.002 --    23 C    0.985
    41   1 H    0.999 --    23 C    0.969
    42   1 H    0.999 --    23 C    0.968
 ---------------------------------------------------------------------------

           -------------------------------------------------
          | TOTAL ENERGY              -83.599883863596 Eh   |
          | GRADIENT NORM               0.000549406116 Eh/α |
          | HOMO-LUMO GAP               0.167048008560 eV   |
           -------------------------------------------------

 * finished run on 2023/06/20 at 17:45:07.142
