   * xtb version 6.5.1 (579679a) compiled by 'ehlert@majestix' on 2022-07-11
          program call               : /lustre/hpc/kemi/ree/PhD/git/ReactivityQM/dep/xtb-6.5.1/bin/xtb --gfn 1 /lustre/hpc/kemi/ree/PhD/git/ReactivityQM/calculations/RaltegravirCLI/reac01prodN01/conf02/RaltegravirCLI_reac01prodN01_conf02_gfn1.xyz --opt --vfukui --chrg 1 --uhf 0 --alpb DMSO

   ID    Z sym.   atoms
    1    6 C      1, 2, 5, 6, 10
    2    7 N      3, 4
    3    8 O      7, 9
    4   17 Cl     8
    5    1 H      11-16

      * Solvation model:               ALPB
        Solvent                        DMSO
        Solvent mass                       7.8130E+01 g/mol
          :  Hamiltonian                  GFN1-xTB          :
 * total energy  :   -33.3497575 Eh     change       -0.6380674E-11 Eh
 * total energy  :   -33.3637183 Eh     change       -0.1396078E-01 Eh
 * total energy  :   -33.3697037 Eh     change       -0.5985448E-02 Eh
 * total energy  :   -33.3713202 Eh     change       -0.1616520E-02 Eh
 * total energy  :   -33.3722582 Eh     change       -0.9379495E-03 Eh
 * total energy  :   -33.3727474 Eh     change       -0.4892726E-03 Eh
 * total energy  :   -33.3730479 Eh     change       -0.3004856E-03 Eh
 * total energy  :   -33.3732926 Eh     change       -0.2446923E-03 Eh
 * total energy  :   -33.3734568 Eh     change       -0.1641498E-03 Eh
 * total energy  :   -33.3735729 Eh     change       -0.1161569E-03 Eh
 * total energy  :   -33.3743876 Eh     change       -0.7081756E-04 Eh
 * total energy  :   -33.3744336 Eh     change       -0.4597810E-04 Eh
 * total energy  :   -33.3744612 Eh     change       -0.2765488E-04 Eh
 * total energy  :   -33.3744350 Eh     change        0.2623431E-04 Eh
 * total energy  :   -33.3745037 Eh     change       -0.6870063E-04 Eh
 * total energy  :   -33.3745116 Eh     change       -0.7846618E-05 Eh
 * total energy  :   -33.3745194 Eh     change       -0.7884921E-05 Eh
 * total energy  :   -33.3745252 Eh     change       -0.5753576E-05 Eh
 * total energy  :   -33.3745267 Eh     change       -0.1484201E-05 Eh
   *** GEOMETRY OPTIMIZATION CONVERGED AFTER 35 ITERATIONS ***

 final structure:
================
16
 xtb: 6.5.1 (579679a)
C            2.35709576458623       -0.24904602580192       -0.12101858454955
C            1.13386990042472        0.46614424281672        0.26633146007259
N            1.01352666709235        1.58540088967653        0.87915177356695
N           -0.30672114410687        1.87207731769874        1.02837468746322
C           -0.99961703588118        0.92877134507144        0.50705474407641
C           -2.47100976580268        0.76812034365388        0.40791306532753
O           -2.98012452954671       -0.17677688267704       -0.11891595474778
Cl          -3.33064302517493        2.05267404791273        1.11296360807094
O           -0.13499227890052       -0.04039144509734       -0.01858188475328
C           -0.51008959310947       -1.27868300592586       -0.70912252360733
H            2.37142184861218       -1.24772095527963        0.31676799867114
H            2.40965638645901       -0.35262091128457       -1.20575175589765
H            3.21788163347187        0.31679117001539        0.23231690186033
H           -1.11128835916290       -1.86487597685981       -0.01825128537905
H            0.41635590326133       -1.78246665114481       -0.96431083147321
H           -1.07532137222232       -0.99739850277446       -1.59492241870130

          :  Hamiltonian                  GFN1-xTB          :
         :: total energy             -33.374526673641 Eh    ::
         :: gradient norm              0.000721808341 Eh/a0 ::
         :: HOMO-LUMO gap              3.146868671350 eV    ::
         :: SCC energy               -33.663781679503 Eh    ::
         :: -> Gsolv                  -0.092264878991 Eh    ::
         :: repulsion energy           0.297071025448 Eh    ::

    * Orbital Energies and Occupations

         #    Occupation            Energy/Eh            Energy/eV
      -------------------------------------------------------------
         1        2.0000           -0.9860451             -26.8317
       ...           ...                  ...                  ...
        15        2.0000           -0.6278281             -17.0841
        16        2.0000           -0.6100731             -16.6009
        17        2.0000           -0.6091225             -16.5751
        18        2.0000           -0.5954293             -16.2025
        19        2.0000           -0.5886963             -16.0192
        20        2.0000           -0.5742347             -15.6257
        21        2.0000           -0.5664155             -15.4129
        22        2.0000           -0.5528211             -15.0430
        23        2.0000           -0.5291257             -14.3982
        24        2.0000           -0.5273270             -14.3493
        25        2.0000           -0.5182727             -14.1029
        26        2.0000           -0.5181014             -14.0983
        27        2.0000           -0.5093005             -13.8588 (HOMO)
        28                         -0.3936552             -10.7119 (LUMO)
        29                         -0.3273506              -8.9077
        30                         -0.2837294              -7.7207
        31                         -0.2439904              -6.6393
        32                         -0.1956250              -5.3232
        33                         -0.1794305              -4.8826
        34                         -0.1318322              -3.5873
        35                         -0.1221862              -3.3249
        36                         -0.1194058              -3.2492
        37                         -0.1116952              -3.0394
        38                         -0.1111368              -3.0242
       ...                                ...                  ...
        57                          0.7010803              19.0774
      -------------------------------------------------------------
                  HL-Gap            0.1156453 Eh            3.1469 eV

Wiberg/Mayer (AO) data.
largest (>0.10) Wiberg bond orders for each atom

     #   Z sym  total        # sym  WBO       # sym  WBO       # sym  WBO
 ---------------------------------------------------------------------------
     1   6 C    3.965 --     2 C    1.047    13 H    0.968    11 H    0.947
                            12 H    0.945
     2   6 C    3.800 --     3 N    1.668     1 C    1.047     9 O    0.888
     3   7 N    3.024 --     2 C    1.668     4 N    1.172
     4   7 N    3.040 --     5 C    1.686     3 N    1.172
     5   6 C    3.815 --     4 N    1.686     6 C    1.005     9 O    0.880
     6   6 C    3.905 --     7 O    1.758     8 Cl   1.095     5 C    1.005
     7   8 O    2.057 --     6 C    1.758     8 Cl   0.170
     8  17 Cl   1.330 --     6 C    1.095     7 O    0.170
     9   8 O    2.658 --     2 C    0.888     5 C    0.880    10 C    0.740
    10   6 C    3.714 --    15 H    0.973    14 H    0.966    16 H    0.966
                             9 O    0.740
    11   1 H    0.986 --     1 C    0.947
    12   1 H    0.986 --     1 C    0.945
    13   1 H    0.987 --     1 C    0.968
    14   1 H    0.994 --    10 C    0.966
    15   1 H    0.988 --    10 C    0.973
    16   1 H    0.993 --    10 C    0.966
 ---------------------------------------------------------------------------

           -------------------------------------------------
          | TOTAL ENERGY              -33.374526673641 Eh   |
          | GRADIENT NORM               0.000721808341 Eh/α |
          | HOMO-LUMO GAP               3.146868671350 eV   |
           -------------------------------------------------

 * finished run on 2023/06/20 at 14:54:03.957
