   * xtb version 6.5.1 (579679a) compiled by 'ehlert@majestix' on 2022-07-11
          program call               : /lustre/hpc/kemi/ree/PhD/git/ReactivityQM/dep/xtb-6.5.1/bin/xtb --gfn 1 /lustre/hpc/kemi/ree/PhD/git/ReactivityQM/calculations/RaltegravirCLI/reac02prodN06/conf11/RaltegravirCLI_reac02prodN06_conf11_gfn1.xyz --opt --vfukui --chrg 1 --uhf 0 --alpb DMSO

   ID    Z sym.   atoms
    1    6 C      1, 3, 5, 7-9, 12-16, 18, 19, 21-24
    2    7 N      2, 11, 20, 25
    3    8 O      4, 6, 10
    4    9 F      17
    5    1 H      26-47

      * Solvation model:               ALPB
        Solvent                        DMSO
        Solvent mass                       7.8130E+01 g/mol
          :  Hamiltonian                  GFN1-xTB          :
 * total energy  :   -79.4677561 Eh     change       -0.2088996E-11 Eh
 * total energy  :   -79.4820059 Eh     change       -0.1424978E-01 Eh
 * total energy  :   -79.4877329 Eh     change       -0.5726973E-02 Eh
 * total energy  :   -79.4890079 Eh     change       -0.1275012E-02 Eh
 * total energy  :   -79.4899041 Eh     change       -0.8962747E-03 Eh
 * total energy  :   -79.4901496 Eh     change       -0.2455028E-03 Eh
 * total energy  :   -79.4903898 Eh     change       -0.2401552E-03 Eh
 * total energy  :   -79.4905506 Eh     change       -0.1607791E-03 Eh
 * total energy  :   -79.4906788 Eh     change       -0.1282666E-03 Eh
 * total energy  :   -79.4908312 Eh     change       -0.1523246E-03 Eh
 * total energy  :   -79.4933757 Eh     change       -0.1188742E-04 Eh
 * total energy  :   -79.4933919 Eh     change       -0.1622161E-04 Eh
 * total energy  :   -79.4934083 Eh     change       -0.1638010E-04 Eh
 * total energy  :   -79.4934224 Eh     change       -0.1403193E-04 Eh
 * total energy  :   -79.4934361 Eh     change       -0.1374805E-04 Eh
 * total energy  :   -79.4934457 Eh     change       -0.9634945E-05 Eh
 * total energy  :   -79.4934531 Eh     change       -0.7335378E-05 Eh
 * total energy  :   -79.4934585 Eh     change       -0.5433015E-05 Eh
 * total energy  :   -79.4934634 Eh     change       -0.4928367E-05 Eh
   *** GEOMETRY OPTIMIZATION CONVERGED AFTER 41 ITERATIONS ***

 final structure:
================
47
 xtb: 6.5.1 (579679a)
C           -2.12207179279130       -1.88500675618606       -1.77538654820633
N           -1.61429860686068       -1.40909626063140       -0.48419081432557
C           -0.55323465094557       -2.11142782239457        0.01067067770368
O           -0.05530972644203       -3.09327072075956       -0.51511462254780
C            0.00160104208211       -1.60377093715467        1.28065758953713
O            1.01685491804581       -2.23517279093598        1.77713612866794
C           -0.46982133799519       -0.37362414112298        1.83236616387979
C           -0.30606538319773       -0.09662686663881        3.31888101884098
C            0.65158901119653        0.56409812597104        0.96439252589566
O            0.26957968834205        1.12347493384776       -0.01879930088159
N            1.81911104288511        0.59042049406969        1.55969018144229
C            2.84292013008730        1.56317383641458        1.12182509967966
C            3.57156334358468        1.05047251546322       -0.09591094736420
C            4.66588689324800        0.20014865571921        0.04989372891645
C            5.34167998651529       -0.27175400856964       -1.06561611519325
C            4.89864476661741        0.12119311566083       -2.31674831744592
F            5.54689370246350       -0.32833439811221       -3.39761236257793
C            3.81144251539201        0.95883987713473       -2.49513950215028
C            3.14599765308483        1.42206032353235       -1.36984686107445
N           -1.71351568614302        0.05628401191231        1.34652513604970
C           -2.21296482673129       -0.38876945416918        0.24921952959846
C           -3.48640671245227        0.29518822435795       -0.22215078121109
C           -4.18483883053034        0.94297397665389        0.98530904022400
C           -3.08538105706874        1.38990063495046       -1.22401629456136
N           -4.37937306050940       -0.66026895343708       -0.86044194925683
H           -2.47959944607353       -1.04836279010119       -2.36466186672965
H           -2.94010720853837       -2.58267343946018       -1.60419637705465
H           -1.30608122983040       -2.38979470501073       -2.29112545840756
H            1.26124874209613       -3.01432742239433        1.22807727271821
H            0.58291678926092       -0.58541765776496        3.70865411422095
H           -0.24977561763077        0.97424324575538        3.50023580068381
H           -1.18212501804316       -0.49339254451852        3.83053946711197
H            2.05846309619545       -0.03599189804932        2.30906275870577
H            2.33266724223103        2.50447264641919        0.90580109488601
H            3.51889491492488        1.69669892166979        1.96672465504274
H            4.99235248068673       -0.09311658118747        1.03980688009285
H            6.19423916448168       -0.93099643019041       -0.96830742616127
H            3.49442548784341        1.23977733042990       -3.49115250465675
H            2.28829494567308        2.07481426038359       -1.48039943853050
H           -5.12508301594104        1.38352085213553        0.65891096996865
H           -3.55702830147554        1.72050781386370        1.41735772190034
H           -4.38968837138143        0.19284825309358        1.74705633741678
H           -3.96127068208769        1.98531314183481       -1.47664628518829
H           -2.68188194520656        0.95783341345284       -2.13780112479368
H           -2.33032531670657        2.03639569698503       -0.77791464827129
H           -4.79326686249466       -1.25564045429837       -0.15529640852343
H           -5.12775386986846       -0.15781826861865       -1.31851793808272

          :  Hamiltonian                  GFN1-xTB          :
         :: total energy             -79.493463438097 Eh    ::
         :: gradient norm              0.000756123567 Eh/a0 ::
         :: HOMO-LUMO gap              0.638804813218 eV    ::
         :: SCC energy               -80.395752264669 Eh    ::
         :: -> Gsolv                  -0.101834063395 Eh    ::
         :: repulsion energy           0.934412282451 Eh    ::

    * Orbital Energies and Occupations

         #    Occupation            Energy/Eh            Energy/eV
      -------------------------------------------------------------
         1        2.0000           -0.8959801             -24.3809
       ...           ...                  ...                  ...
        55        2.0000           -0.5225289             -14.2187
        56        2.0000           -0.5154280             -14.0255
        57        2.0000           -0.5128978             -13.9567
        58        2.0000           -0.5092040             -13.8561
        59        2.0000           -0.4988639             -13.5748
        60        2.0000           -0.4923909             -13.3986
        61        2.0000           -0.4903433             -13.3429
        62        2.0000           -0.4863513             -13.2343
        63        2.0000           -0.4787871             -13.0285
        64        2.0000           -0.4736849             -12.8896
        65        2.0000           -0.4650499             -12.6547
        66        2.0000           -0.4529573             -12.3256
        67        2.0000           -0.4269266             -11.6173 (HOMO)
        68        0.0000           -0.4034509             -10.9785 (LUMO)
        69                         -0.3204926              -8.7210
        70                         -0.2919543              -7.9445
        71                         -0.2867335              -7.8024
        72                         -0.2835343              -7.7154
        73                         -0.2542246              -6.9178
        74                         -0.1622598              -4.4153
        75                         -0.1582724              -4.3068
        76                         -0.1473145              -4.0086
        77                         -0.1449725              -3.9449
        78                         -0.1425582              -3.8792
       ...                                ...                  ...
       144                          0.7405726              20.1520
      -------------------------------------------------------------
                  HL-Gap            0.0234756 Eh            0.6388 eV

Wiberg/Mayer (AO) data.
largest (>0.10) Wiberg bond orders for each atom

     #   Z sym  total        # sym  WBO       # sym  WBO       # sym  WBO
 ---------------------------------------------------------------------------
     1   6 C    3.901 --    28 H    0.975    26 H    0.974    27 H    0.966
                             2 N    0.915
     2   7 N    3.533 --     3 C    1.194    21 C    1.103     1 C    0.915
                             4 O    0.164
     3   6 C    3.927 --     4 O    1.586     2 N    1.194     5 C    1.011
     4   8 O    1.942 --     3 C    1.586     2 N    0.164
     5   6 C    3.845 --     6 O    1.266     7 C    1.149     3 C    1.011
                             9 C    0.113
     6   8 O    2.220 --     5 C    1.266    29 H    0.757
     7   6 C    3.959 --     5 C    1.149    20 N    1.063     8 C    0.977
                             9 C    0.597
     8   6 C    3.975 --    31 H    0.980    30 H    0.980     7 C    0.977
                            32 H    0.968
     9   6 C    3.904 --    10 O    1.696    11 N    1.376     7 C    0.597
                             5 C    0.113
    10   8 O    2.081 --     9 C    1.696    11 N    0.181
    11   7 N    3.403 --     9 C    1.376    12 C    0.883    33 H    0.882
                            10 O    0.181
    12   6 C    3.907 --    13 C    0.997    34 H    0.972    35 H    0.971
                            11 N    0.883
    13   6 C    3.984 --    14 C    1.415    19 C    1.415    12 C    0.997
    14   6 C    3.993 --    15 C    1.448    13 C    1.415    36 H    0.970
                            18 C    0.109
    15   6 C    3.990 --    14 C    1.448    16 C    1.396    37 H    0.968
                            19 C    0.109
    16   6 C    3.860 --    18 C    1.397    15 C    1.396    17 F    0.936
    17   9 F    1.067 --    16 C    0.936
    18   6 C    3.991 --    19 C    1.447    16 C    1.397    38 H    0.968
                            14 C    0.109
    19   6 C    3.992 --    18 C    1.447    13 C    1.415    39 H    0.969
                            15 C    0.109
    20   7 N    3.029 --    21 C    1.653     7 C    1.063
    21   6 C    3.902 --    20 N    1.653     2 N    1.103    22 C    0.977
    22   6 C    3.962 --    25 N    0.989    23 C    0.985    21 C    0.977
                            24 C    0.973
    23   6 C    3.992 --    22 C    0.985    42 H    0.984    40 H    0.984
                            41 H    0.983
    24   6 C    3.991 --    45 H    0.984    43 H    0.981    44 H    0.979
                            22 C    0.973
    25   7 N    2.977 --    22 C    0.989    46 H    0.938    47 H    0.934
    26   1 H    1.019 --     1 C    0.974
    27   1 H    1.012 --     1 C    0.966
    28   1 H    1.002 --     1 C    0.975
    29   1 H    0.804 --     6 O    0.757
    30   1 H    0.996 --     8 C    0.980
    31   1 H    0.997 --     8 C    0.980
    32   1 H    0.996 --     8 C    0.968
    33   1 H    0.928 --    11 N    0.882
    34   1 H    0.997 --    12 C    0.972
    35   1 H    0.996 --    12 C    0.971
    36   1 H    0.997 --    14 C    0.970
    37   1 H    0.996 --    15 C    0.968
    38   1 H    0.996 --    18 C    0.968
    39   1 H    1.004 --    19 C    0.969
    40   1 H    1.001 --    23 C    0.984
    41   1 H    1.010 --    23 C    0.983
    42   1 H    1.004 --    23 C    0.984
    43   1 H    0.998 --    24 C    0.981
    44   1 H    1.003 --    24 C    0.979
    45   1 H    1.006 --    24 C    0.984
    46   1 H    0.952 --    25 N    0.938
    47   1 H    0.948 --    25 N    0.934
 ---------------------------------------------------------------------------

           -------------------------------------------------
          | TOTAL ENERGY              -79.493463438097 Eh   |
          | GRADIENT NORM               0.000756123567 Eh/α |
          | HOMO-LUMO GAP               0.638804813218 eV   |
           -------------------------------------------------

 * finished run on 2023/06/20 at 15:23:11.069
