   * xtb version 6.5.1 (579679a) compiled by 'ehlert@majestix' on 2022-07-11
          program call               : /lustre/hpc/kemi/ree/PhD/git/ReactivityQM/dep/xtb-6.5.1/bin/xtb --gfn 1 /lustre/hpc/kemi/ree/PhD/git/ReactivityQM/calculations/R01/reac01prodN07/conf05/R01_reac01prodN07_conf05_gfn1.xyz --opt --vfukui --chrg 1 --uhf 0 --alpb DMSO

   ID    Z sym.   atoms
    1    6 C      1, 3, 5, 8-10
    2    8 O      2, 4, 11
    3    7 N      6, 7
    4    1 H      12-20

      * Solvation model:               ALPB
        Solvent                        DMSO
        Solvent mass                       7.8130E+01 g/mol
          :  Hamiltonian                  GFN1-xTB          :
 * total energy  :   -37.5578897 Eh     change       -0.3531397E-11 Eh
 * total energy  :   -37.5688884 Eh     change       -0.1099869E-01 Eh
 * total energy  :   -37.5734752 Eh     change       -0.4586874E-02 Eh
 * total energy  :   -37.5742587 Eh     change       -0.7834110E-03 Eh
 * total energy  :   -37.5747929 Eh     change       -0.5342909E-03 Eh
 * total energy  :   -37.5749254 Eh     change       -0.1324597E-03 Eh
 * total energy  :   -37.5750459 Eh     change       -0.1204865E-03 Eh
 * total energy  :   -37.5751205 Eh     change       -0.7459721E-04 Eh
 * total energy  :   -37.5751582 Eh     change       -0.3772320E-04 Eh
 * total energy  :   -37.5751790 Eh     change       -0.2075311E-04 Eh
 * total energy  :   -37.5751866 Eh     change       -0.7654651E-05 Eh
 * total energy  :   -37.5751925 Eh     change       -0.5861066E-05 Eh
 * total energy  :   -37.5751961 Eh     change       -0.3599348E-05 Eh
   *** GEOMETRY OPTIMIZATION CONVERGED AFTER 13 ITERATIONS ***

 final structure:
================
20
 xtb: 6.5.1 (579679a)
C            3.76765725511735        0.78685019979326        0.32098835771467
O            2.36324568650761        0.48026147086036        0.19319193774432
C            1.80768237705054        0.66040293210523       -0.96748364182615
O            2.30377874322890        1.05477668425235       -1.98032812392834
C            0.32058901001798        0.28208879394127       -0.91009024382143
N           -0.53609482927769        0.36052587510196       -1.98289468903966
N           -1.66840771270902       -0.02171552452723       -1.58464220790429
C           -1.61866672160878       -0.37420656737131       -0.21333507672816
C           -1.95296326366994       -1.86014895625962       -0.00721160742927
C           -2.52764210739836        0.54200593518111        0.62267089635650
O           -0.25879243961547       -0.13709359947927        0.13132496338307
H            3.91201857695804        1.86118710733005        0.19934755967139
H            4.05211707993877        0.46550423276937        1.31951664667200
H            4.32727024485874        0.24663004959404       -0.44357326799750
H           -2.97794228105650       -2.03220805291852       -0.32657855796404
H           -1.84249802868385       -2.09614439098733        1.04838214497061
H           -1.26883197148691       -2.46548687593258       -0.59800000429095
H           -2.23244439943723        1.57686902767172        0.46313544662730
H           -2.41327807254747        0.27867765464967        1.67143920566844
H           -3.55679914618651        0.39122300422583        0.30598926212131

          :  Hamiltonian                  GFN1-xTB          :
         :: total energy             -37.575196082489 Eh    ::
         :: gradient norm              0.000904518824 Eh/a0 ::
         :: HOMO-LUMO gap              1.781934609911 eV    ::
         :: SCC energy               -37.911037026427 Eh    ::
         :: -> Gsolv                  -0.082795861595 Eh    ::
         :: repulsion energy           0.344266753781 Eh    ::

    * Orbital Energies and Occupations

         #    Occupation            Energy/Eh            Energy/eV
      -------------------------------------------------------------
         1        2.0000           -0.9573433             -26.0506
       ...           ...                  ...                  ...
        18        2.0000           -0.6147609             -16.7285
        19        2.0000           -0.6116989             -16.6452
        20        2.0000           -0.6108399             -16.6218
        21        2.0000           -0.5874798             -15.9861
        22        2.0000           -0.5857080             -15.9379
        23        2.0000           -0.5790883             -15.7578
        24        2.0000           -0.5749210             -15.6444
        25        2.0000           -0.5686134             -15.4728
        26        2.0000           -0.5557653             -15.1231
        27        2.0000           -0.5517152             -15.0129
        28        2.0000           -0.5426600             -14.7665
        29        2.0000           -0.5355814             -14.5739
        30        2.0000           -0.5252829             -14.2937 (HOMO)
        31                         -0.4597980             -12.5117 (LUMO)
        32                         -0.3769962             -10.2586
        33                         -0.2803460              -7.6286
        34                         -0.1701935              -4.6312
        35                         -0.1643812              -4.4730
        36                         -0.1599139              -4.3515
        37                         -0.1204379              -3.2773
        38                         -0.1124604              -3.0602
        39                         -0.0979027              -2.6641
        40                         -0.0950905              -2.5875
        41                         -0.0922535              -2.5103
       ...                                ...                  ...
        62                          0.7361905              20.0328
      -------------------------------------------------------------
                  HL-Gap            0.0654849 Eh            1.7819 eV

Wiberg/Mayer (AO) data.
largest (>0.10) Wiberg bond orders for each atom

     #   Z sym  total        # sym  WBO       # sym  WBO       # sym  WBO
 ---------------------------------------------------------------------------
     1   6 C    3.819 --    13 H    0.982    14 H    0.973    12 H    0.971
                             2 O    0.853
     2   8 O    2.272 --     3 C    1.203     1 C    0.853     4 O    0.174
     3   6 C    3.882 --     4 O    1.711     2 O    1.203     5 C    0.898
     4   8 O    1.998 --     3 C    1.711     2 O    0.174
     5   6 C    3.790 --    11 O    1.391     6 N    1.202     3 C    0.898
     6   7 N    3.022 --     7 N    1.675     5 C    1.202
     7   7 N    2.995 --     6 N    1.675     8 C    1.075
     8   6 C    3.813 --     7 N    1.075     9 C    0.885    10 C    0.882
                            11 O    0.867
     9   6 C    3.941 --    17 H    0.978    15 H    0.975    16 H    0.974
                             8 C    0.885
    10   6 C    3.941 --    18 H    0.978    20 H    0.975    19 H    0.974
                             8 C    0.882
    11   8 O    2.439 --     5 C    1.391     8 C    0.867
    12   1 H    0.996 --     1 C    0.971
    13   1 H    1.002 --     1 C    0.982
    14   1 H    0.996 --     1 C    0.973
    15   1 H    0.989 --     9 C    0.975
    16   1 H    0.989 --     9 C    0.974
    17   1 H    0.989 --     9 C    0.978
    18   1 H    0.989 --    10 C    0.978
    19   1 H    0.989 --    10 C    0.974
    20   1 H    0.989 --    10 C    0.975
 ---------------------------------------------------------------------------

           -------------------------------------------------
          | TOTAL ENERGY              -37.575196082489 Eh   |
          | GRADIENT NORM               0.000904518824 Eh/α |
          | HOMO-LUMO GAP               1.781934609911 eV   |
           -------------------------------------------------

 * finished run on 2023/06/20 at 14:56:44.569
