   * xtb version 6.5.1 (579679a) compiled by 'ehlert@majestix' on 2022-07-11
          program call               : /lustre/hpc/kemi/ree/PhD/git/ReactivityQM/dep/xtb-6.5.1/bin/xtb --gfn 1 /lustre/hpc/kemi/ree/PhD/git/ReactivityQM/calculations/R02oxygendeprot/reac01prodN02/conf07/R02oxygendeprot_reac01prodN02_conf07_gfn1.xyz --opt --vfukui --chrg 0 --uhf 0 --alpb DMSO

   ID    Z sym.   atoms
    1    6 C      1, 3, 5, 7-10, 12, 14, 15, 18, 19, 22, 24
    2    8 O      2, 4, 13, 20, 23, 25
    3    7 N      6, 11, 16, 17, 21
    4    1 H      26-42

      * Solvation model:               ALPB
        Solvent                        DMSO
        Solvent mass                       7.8130E+01 g/mol
          :  Hamiltonian                  GFN1-xTB          :
 * total energy  :   -82.9416507 Eh     change       -0.6688623E-09 Eh
 * total energy  :   -82.9593707 Eh     change       -0.1771992E-01 Eh
 * total energy  :   -82.9670334 Eh     change       -0.7662702E-02 Eh
 * total energy  :   -82.9685074 Eh     change       -0.1474072E-02 Eh
 * total energy  :   -82.9694889 Eh     change       -0.9814601E-03 Eh
 * total energy  :   -82.9698773 Eh     change       -0.3883497E-03 Eh
 * total energy  :   -82.9702186 Eh     change       -0.3413142E-03 Eh
 * total energy  :   -82.9704461 Eh     change       -0.2275732E-03 Eh
 * total energy  :   -82.9706058 Eh     change       -0.1596851E-03 Eh
 * total energy  :   -82.9707154 Eh     change       -0.1095629E-03 Eh
 * total energy  :   -82.9715133 Eh     change       -0.9115695E-05 Eh
 * total energy  :   -82.9715198 Eh     change       -0.6526121E-05 Eh
 * total energy  :   -82.9715294 Eh     change       -0.9614115E-05 Eh
 * total energy  :   -82.9715353 Eh     change       -0.5872493E-05 Eh
 * total energy  :   -82.9715411 Eh     change       -0.5749574E-05 Eh
 * total energy  :   -82.9715473 Eh     change       -0.6287181E-05 Eh
 * total energy  :   -82.9715545 Eh     change       -0.7147863E-05 Eh
 * total energy  :   -82.9715596 Eh     change       -0.5143472E-05 Eh
 * total energy  :   -82.9715645 Eh     change       -0.4920209E-05 Eh
   *** GEOMETRY OPTIMIZATION CONVERGED AFTER 37 ITERATIONS ***

 final structure:
================
42
 xtb: 6.5.1 (579679a)
C            5.84965136014867       -0.50733919480569        2.20246630548243
O            4.70227524518664       -0.54871492552508        1.36225471003050
C            4.65474126598647       -1.58523602432287        0.47546696141214
O            5.55209602246599       -2.40906701291787        0.43549207814394
C            3.45646997628439       -1.55312330175283       -0.35303511735457
N            2.58731301778224       -0.51363864519866       -0.09307550317481
C            1.50555232280821       -0.38681186265095       -0.76390874932293
C            0.55743777079668        0.75988928739907       -0.48935575832445
C            0.52409322912395        1.71261272488339       -1.69003468273955
C            0.96495313738892        1.47833800413775        0.79730916098359
N           -0.78683998191207        0.15558867785028       -0.30539545004768
C           -1.91148805262533        0.78932713651015       -0.09102156285502
O           -1.91156913342295        2.08594927944998       -0.01452770833935
C           -3.09875809315967        2.86350831729766        0.20908982380335
C           -3.07737852093013       -0.05140590008696        0.04803280223895
N           -3.04209907421691       -1.35628500902730       -0.00067191895003
N           -4.30488768619701       -1.78848552822949        0.16827477262070
C           -5.05448680443023       -0.72984659166518        0.31144731258869
C           -6.51405496783963       -0.67583550647282        0.51612011192600
O           -4.33118868488482        0.39669213877900        0.24549960065664
N            1.15530754439128       -1.26310741712048       -1.77419790514505
C            1.92473495572810       -2.34529084184178       -2.14010942593161
O            1.54852839183736       -3.07513340512887       -3.04883487980130
C            3.20731680976941       -2.53128042506171       -1.35556467269805
O            3.93747242365083       -3.49419164980117       -1.63307857140117
H            5.92091286139067       -1.41830422769947        2.80552973905090
H            5.73362965440339        0.35793706695089        2.85343230954335
H            6.76191288377254       -0.40307615410242        1.60605928821726
H           -0.08796233518284        2.58519986855974       -1.47891207335296
H            1.54015638461036        2.04053161842367       -1.90567140811060
H            0.12167143464534        1.20201797152234       -2.56262537056845
H            0.89871921407956        0.79385884521804        1.64162996629766
H            0.32534669919332        2.33749579796247        0.97933754790444
H            1.99680501234265        1.81274150775175        0.69629910176609
H           -0.85447874890166       -0.85686173762494       -0.34414058648645
H           -3.80625871297493        2.70701312331223       -0.60513828477242
H           -2.76471263852297        3.89908907423732        0.23046196156704
H           -3.55300422019752        2.58833825703733        1.16091125949538
H           -6.74483090140528       -0.04306442156106        1.37291969746765
H           -6.99151864130252       -0.23737006449605       -0.36120534714413
H           -6.90204773331224       -1.67944516328031        0.67703619020311
H            0.31046531363021       -1.11321368691707       -2.29640272487086

          :  Hamiltonian                  GFN1-xTB          :
         :: total energy             -82.971564549769 Eh    ::
         :: gradient norm              0.000713863216 Eh/a0 ::
         :: HOMO-LUMO gap              0.229924486173 eV    ::
         :: SCC energy               -83.748717327492 Eh    ::
         :: -> Gsolv                  -0.114967782631 Eh    ::
         :: repulsion energy           0.802589551373 Eh    ::

    * Orbital Energies and Occupations

         #    Occupation            Energy/Eh            Energy/eV
      -------------------------------------------------------------
         1        2.0000           -0.8982908             -24.4437
       ...           ...                  ...                  ...
        55        2.0000           -0.5124563             -13.9446
        56        2.0000           -0.5053133             -13.7503
        57        2.0000           -0.5005413             -13.6204
        58        2.0000           -0.4922510             -13.3948
        59        2.0000           -0.4844126             -13.1815
        60        2.0000           -0.4803489             -13.0710
        61        2.0000           -0.4716393             -12.8340
        62        2.0000           -0.4686038             -12.7514
        63        2.0000           -0.4539451             -12.3525
        64        2.0000           -0.4462646             -12.1435
        65        2.0000           -0.4320730             -11.7573
        66        2.0000           -0.3893144             -10.5938
        67        1.9768           -0.3782603             -10.2930 (HOMO)
        68        0.0232           -0.3698107             -10.0631 (LUMO)
        69                         -0.2850391              -7.7563
        70                         -0.2807278              -7.6390
        71                         -0.2564943              -6.9796
        72                         -0.2499870              -6.8025
        73                         -0.2066587              -5.6235
        74                         -0.1565770              -4.2607
        75                         -0.1529536              -4.1621
        76                         -0.1379023              -3.7525
        77                         -0.1355360              -3.6881
        78                         -0.1259668              -3.4277
       ...                                ...                  ...
       134                          0.7629894              20.7620
      -------------------------------------------------------------
                  HL-Gap            0.0084496 Eh            0.2299 eV

Wiberg/Mayer (AO) data.
largest (>0.10) Wiberg bond orders for each atom

     #   Z sym  total        # sym  WBO       # sym  WBO       # sym  WBO
 ---------------------------------------------------------------------------
     1   6 C    3.895 --    27 H    0.987    28 H    0.980    26 H    0.980
                             2 O    0.922
     2   8 O    2.142 --     3 C    1.035     1 C    0.922     4 O    0.112
     3   6 C    3.850 --     4 O    1.604     5 C    1.104     2 O    1.035
     4   8 O    1.875 --     3 C    1.604     2 O    0.112
     5   6 C    3.900 --    24 C    1.256     6 N    1.166     3 C    1.104
                            25 O    0.125
     6   7 N    3.035 --     7 C    1.629     5 C    1.166
     7   6 C    3.927 --     6 N    1.629    21 N    1.088     8 C    0.977
     8   6 C    3.893 --    10 C    0.989     9 C    0.980     7 C    0.977
                            11 N    0.873
     9   6 C    3.984 --    31 H    0.983    30 H    0.982    29 H    0.981
                             8 C    0.980
    10   6 C    3.985 --     8 C    0.989    33 H    0.984    32 H    0.984
                            34 H    0.979
    11   7 N    3.468 --    12 C    1.451    35 H    0.875     8 C    0.873
                            13 O    0.110
    12   6 C    3.884 --    11 N    1.451    13 O    1.199    15 C    1.085
    13   8 O    2.279 --    12 C    1.199    14 C    0.858    11 N    0.110
    14   6 C    3.826 --    37 H    0.981    38 H    0.975    36 H    0.975
                            13 O    0.858
    15   6 C    3.886 --    16 N    1.542    12 C    1.085    20 O    1.055
    16   7 N    3.023 --    15 C    1.542    17 N    1.252
    17   7 N    2.989 --    18 C    1.554    16 N    1.252
    18   6 C    3.849 --    17 N    1.554    20 O    1.083    19 C    1.039
    19   6 C    3.979 --    18 C    1.039    41 H    0.979    39 H    0.960
                            40 H    0.951
    20   8 O    2.336 --    18 C    1.083    15 C    1.055
    21   7 N    3.412 --    22 C    1.143     7 C    1.088    42 H    0.896
                            23 O    0.134
    22   6 C    3.871 --    23 O    1.598    21 N    1.143    24 C    0.961
    23   8 O    1.873 --    22 C    1.598    21 N    0.134
    24   6 C    3.938 --    25 O    1.542     5 C    1.256    22 C    0.961
    25   8 O    1.838 --    24 C    1.542     5 C    0.125
    26   1 H    1.013 --     1 C    0.980
    27   1 H    1.015 --     1 C    0.987
    28   1 H    1.012 --     1 C    0.980
    29   1 H    1.003 --     9 C    0.981
    30   1 H    1.000 --     9 C    0.982
    31   1 H    0.999 --     9 C    0.983
    32   1 H    1.005 --    10 C    0.984
    33   1 H    1.004 --    10 C    0.984
    34   1 H    1.011 --    10 C    0.979
    35   1 H    0.940 --    11 N    0.875
    36   1 H    1.002 --    14 C    0.975
    37   1 H    1.003 --    14 C    0.981
    38   1 H    1.002 --    14 C    0.975
    39   1 H    0.992 --    19 C    0.960
    40   1 H    0.991 --    19 C    0.951
    41   1 H    0.995 --    19 C    0.979
    42   1 H    0.941 --    21 N    0.896
 ---------------------------------------------------------------------------

           -------------------------------------------------
          | TOTAL ENERGY              -82.971564549769 Eh   |
          | GRADIENT NORM               0.000713863216 Eh/α |
          | HOMO-LUMO GAP               0.229924486173 eV   |
           -------------------------------------------------

 * finished run on 2023/06/21 at 17:18:15.334
