   * xtb version 6.5.1 (579679a) compiled by 'ehlert@majestix' on 2022-07-11
          program call               : /lustre/hpc/kemi/ree/PhD/git/ReactivityQM/dep/xtb-6.5.1/bin/xtb --gfn 1 /lustre/hpc/kemi/ree/PhD/git/ReactivityQM/calculations/R02/reac01prodE03/conf01/R02_reac01prodE03_conf01_gfn1.xyz --opt --vfukui --chrg -1 --uhf 0 --alpb DMSO

   ID    Z sym.   atoms
    1    6 C      1, 3, 5, 6, 8-11, 13, 15, 18, 19, 22, 24
    2    8 O      2, 4, 14, 20, 23, 25
    3    7 N      7, 12, 16, 17, 21
    4    1 H      26-43

      * Solvation model:               ALPB
        Solvent                        DMSO
        Solvent mass                       7.8130E+01 g/mol
          :  Hamiltonian                  GFN1-xTB          :
 * total energy  :   -83.8092137 Eh     change       -0.1868401E-08 Eh
 * total energy  :   -83.8254946 Eh     change       -0.1628090E-01 Eh
 * total energy  :   -83.8326195 Eh     change       -0.7124941E-02 Eh
 * total energy  :   -83.8343671 Eh     change       -0.1747562E-02 Eh
 * total energy  :   -83.8352006 Eh     change       -0.8335145E-03 Eh
 * total energy  :   -83.8356298 Eh     change       -0.4292466E-03 Eh
 * total energy  :   -83.8360788 Eh     change       -0.4490062E-03 Eh
 * total energy  :   -83.8365186 Eh     change       -0.4398177E-03 Eh
 * total energy  :   -83.8369752 Eh     change       -0.4565996E-03 Eh
 * total energy  :   -83.8374150 Eh     change       -0.4397642E-03 Eh
 * total energy  :   -83.8433424 Eh     change       -0.1481836E-04 Eh
 * total energy  :   -83.8433552 Eh     change       -0.1282820E-04 Eh
 * total energy  :   -83.8433660 Eh     change       -0.1083628E-04 Eh
 * total energy  :   -83.8433758 Eh     change       -0.9808348E-05 Eh
 * total energy  :   -83.8433850 Eh     change       -0.9130590E-05 Eh
 * total energy  :   -83.8433937 Eh     change       -0.8751863E-05 Eh
 * total energy  :   -83.8434024 Eh     change       -0.8710662E-05 Eh
 * total energy  :   -83.8434111 Eh     change       -0.8700310E-05 Eh
 * total energy  :   -83.8434160 Eh     change       -0.4859076E-05 Eh
   *** GEOMETRY OPTIMIZATION CONVERGED AFTER 68 ITERATIONS ***

 final structure:
================
43
 xtb: 6.5.1 (579679a)
C           -4.06076173895207       -0.80635313578570       -1.82541971552212
O           -3.89778263910274        0.60146589775510       -1.70070351309484
C           -3.62786322260051        1.08916678554406       -0.42238519681108
O           -4.63923071583336        1.89911650948067        0.10149500034342
C           -5.93307195925098        1.31123688696611        0.16220551676411
C           -2.45556789589939        0.84798927768137        0.23989962638570
N           -1.52364875836459        0.05415918364275       -0.45738434146606
C           -0.41359789496826       -0.25698840378135        0.10890797756018
C            0.53148683159845       -1.20265169440893       -0.62024553291185
C            0.41286329633754       -1.01991195014013       -2.13673068168406
C            0.15859601185965       -2.63665688052598       -0.22668564360204
N            1.91225488448772       -0.97867324683112       -0.18665586229388
C            2.59842049064615        0.16597689919895       -0.42947241295167
O            2.12176647924207        1.18907082059151       -0.90056917434529
C            4.01172252702086        0.02494311434180       -0.01982962784429
N            4.55289115928021       -1.03815003393643        0.51201303456254
N            5.86692798454219       -0.74347755435372        0.72863039242157
C            6.04787718721045        0.47320387671806        0.31692542487121
C            7.30919035772104        1.24805224284665        0.33663254751329
O            4.91814750620385        1.01767270302739       -0.16549558225786
N           -0.06452108907496        0.13586404788095        1.35308834466808
C           -0.88962730265007        0.98946179658707        2.15693838604821
O           -0.44191521909800        1.31015653597002        3.28394643240039
C           -2.08947184954469        1.33008516666949        1.54401641729285
O           -2.95746074304154        2.16134737228579        2.26958004555163
H           -4.79735718989943       -1.19117248038537       -1.11047705763328
H           -3.10691774914558       -1.32606485759174       -1.66790532880284
H           -4.41179159137821       -0.99934626398884       -2.84083888373506
H           -5.93159395112598        0.41260695466616        0.79152859971969
H           -6.29040572725818        1.04767620929360       -0.83920276408739
H           -6.60343374622092        2.05461867465081        0.59517182293101
H            0.65176089051494        0.00487806357683       -2.41877221083870
H           -0.60996990587994       -1.23674871790061       -2.44139886248360
H            1.09112873637436       -1.70031160418527       -2.64798676291815
H            0.79952372957718       -3.35078617925662       -0.74088184622463
H            0.26723774945029       -2.77256486425487        0.84849269990305
H           -0.87698787371157       -2.83035405446725       -0.50270554104925
H            2.44241509954841       -1.78474005708173        0.10176197008543
H            7.20013668808205        2.12897551872749        0.96944942889350
H            8.11188741117055        0.62360829427294        0.72095515761047
H            7.55874380995328        1.58357037444295       -0.66958309143795
H            0.79343877370744       -0.19008718852793        1.76518249440610
H           -3.73544084152820        2.36013696058756        1.72492431406823

          :  Hamiltonian                  GFN1-xTB          :
         :: total energy             -83.843415990314 Eh    ::
         :: gradient norm              0.000239729222 Eh/a0 ::
         :: HOMO-LUMO gap              0.146522147346 eV    ::
         :: SCC energy               -84.601627344865 Eh    ::
         :: -> Gsolv                  -0.127636404767 Eh    ::
         :: repulsion energy           0.784902341527 Eh    ::

    * Orbital Energies and Occupations

         #    Occupation            Energy/Eh            Energy/eV
      -------------------------------------------------------------
         1        2.0000           -0.8498253             -23.1249
       ...           ...                  ...                  ...
        56        2.0000           -0.4706522             -12.8071
        57        2.0000           -0.4688561             -12.7582
        58        2.0000           -0.4521456             -12.3035
        59        2.0000           -0.4505794             -12.2609
        60        2.0000           -0.4468809             -12.1602
        61        2.0000           -0.4393965             -11.9566
        62        2.0000           -0.4373833             -11.9018
        63        2.0000           -0.4309108             -11.7257
        64        2.0000           -0.4231493             -11.5145
        65        2.0000           -0.3929998             -10.6941
        66        2.0000           -0.3892637             -10.5924
        67        2.0000           -0.3715225             -10.1096
        68        1.8890           -0.3033470              -8.2545 (HOMO)
        69        0.1110           -0.2979624              -8.1080 (LUMO)
        70                         -0.2462133              -6.6998
        71                         -0.2266732              -6.1681
        72                         -0.1928619              -5.2480
        73                         -0.1835210              -4.9939
        74                         -0.1382750              -3.7627
        75                         -0.1245487              -3.3891
        76                         -0.1207752              -3.2865
        77                         -0.1146110              -3.1187
        78                         -0.1057442              -2.8774
        79                         -0.0927331              -2.5234
       ...                                ...                  ...
       136                          0.7241509              19.7051
      -------------------------------------------------------------
                  HL-Gap            0.0053846 Eh            0.1465 eV

Wiberg/Mayer (AO) data.
largest (>0.10) Wiberg bond orders for each atom

     #   Z sym  total        # sym  WBO       # sym  WBO       # sym  WBO
 ---------------------------------------------------------------------------
     1   6 C    3.914 --    28 H    0.985    26 H    0.982    27 H    0.977
                             2 O    0.933
     2   8 O    2.019 --     3 C    0.947     1 C    0.933
     3   6 C    3.703 --     6 C    1.519     2 O    0.947     4 O    0.938
     4   8 O    2.050 --     3 C    0.938     5 C    0.930
     5   6 C    3.908 --    31 H    0.985    30 H    0.982    29 H    0.982
                             4 O    0.930
     6   6 C    3.950 --     3 C    1.519    24 C    1.170     7 N    1.071
     7   7 N    3.007 --     8 C    1.615     6 C    1.071    21 N    0.132
     8   6 C    3.947 --     7 N    1.615    21 N    1.202     9 C    0.965
     9   6 C    3.933 --    10 C    0.991    11 C    0.988     8 C    0.965
                            12 N    0.923
    10   6 C    3.992 --     9 C    0.991    34 H    0.987    33 H    0.982
                            32 H    0.981
    11   6 C    3.993 --     9 C    0.988    36 H    0.985    35 H    0.984
                            37 H    0.984
    12   7 N    3.314 --    13 C    1.227     9 C    0.923    38 H    0.900
                            14 O    0.168
    13   6 C    3.883 --    14 O    1.569    12 N    1.227    15 C    1.008
    14   8 O    1.856 --    13 C    1.569    12 N    0.168
    15   6 C    3.828 --    16 N    1.573    20 O    1.047    13 C    1.008
    16   7 N    2.959 --    15 C    1.573    17 N    1.194
    17   7 N    2.980 --    18 C    1.613    16 N    1.194
    18   6 C    3.861 --    17 N    1.613    20 O    1.077    19 C    1.030
    19   6 C    3.989 --    18 C    1.030    40 H    0.983    41 H    0.966
                            39 H    0.965
    20   8 O    2.300 --    18 C    1.077    15 C    1.047
    21   7 N    3.366 --     8 C    1.202    22 C    0.957    42 H    0.906
                             7 N    0.132
    22   6 C    3.892 --    23 O    1.414    24 C    1.368    21 N    0.957
    23   8 O    1.708 --    22 C    1.414    24 C    0.130
    24   6 C    3.798 --    22 C    1.368     6 C    1.170    25 O    0.969
                            23 O    0.130
    25   8 O    1.929 --    24 C    0.969    43 H    0.845
    26   1 H    1.016 --     1 C    0.982
    27   1 H    1.039 --     1 C    0.977
    28   1 H    1.018 --     1 C    0.985
    29   1 H    1.013 --     5 C    0.982
    30   1 H    1.017 --     5 C    0.982
    31   1 H    1.017 --     5 C    0.985
    32   1 H    1.015 --    10 C    0.981
    33   1 H    1.018 --    10 C    0.982
    34   1 H    1.003 --    10 C    0.987
    35   1 H    1.000 --    11 C    0.984
    36   1 H    1.002 --    11 C    0.985
    37   1 H    1.006 --    11 C    0.984
    38   1 H    0.956 --    12 N    0.900
    39   1 H    0.998 --    19 C    0.965
    40   1 H    1.000 --    19 C    0.983
    41   1 H    0.998 --    19 C    0.966
    42   1 H    0.960 --    21 N    0.906
    43   1 H    0.898 --    25 O    0.845
 ---------------------------------------------------------------------------

           -------------------------------------------------
          | TOTAL ENERGY              -83.843415990314 Eh   |
          | GRADIENT NORM               0.000239729222 Eh/α |
          | HOMO-LUMO GAP               0.146522147346 eV   |
           -------------------------------------------------

 * finished run on 2023/06/20 at 14:55:14.756
