   * xtb version 6.5.1 (579679a) compiled by 'ehlert@majestix' on 2022-07-11
          program call               : /lustre/hpc/kemi/ree/PhD/git/ReactivityQM/dep/xtb-6.5.1/bin/xtb --gfn 1 /lustre/hpc/kemi/ree/PhD/git/ReactivityQM/calculations/R01/reac01prodE05/conf03/R01_reac01prodE05_conf03_gfn1.xyz --opt --vfukui --chrg -1 --uhf 0 --alpb DMSO

   ID    Z sym.   atoms
    1    6 C      1, 3, 5, 8-10
    2    8 O      2, 4, 11
    3    7 N      6, 7
    4    1 H      12-20

      * Solvation model:               ALPB
        Solvent                        DMSO
        Solvent mass                       7.8130E+01 g/mol
          :  Hamiltonian                  GFN1-xTB          :
 * total energy  :   -38.2552726 Eh     change       -0.1065814E-10 Eh
 * total energy  :   -38.2715593 Eh     change       -0.1628669E-01 Eh
 * total energy  :   -38.2767048 Eh     change       -0.5145562E-02 Eh
 * total energy  :   -38.2772838 Eh     change       -0.5790020E-03 Eh
 * total energy  :   -38.2777004 Eh     change       -0.4166063E-03 Eh
 * total energy  :   -38.2778424 Eh     change       -0.1419506E-03 Eh
 * total energy  :   -38.2779154 Eh     change       -0.7306957E-04 Eh
 * total energy  :   -38.2779552 Eh     change       -0.3976946E-04 Eh
 * total energy  :   -38.2779760 Eh     change       -0.2077794E-04 Eh
 * total energy  :   -38.2779946 Eh     change       -0.1865661E-04 Eh
 * total energy  :   -38.2780026 Eh     change       -0.7927349E-05 Eh
 * total energy  :   -38.2780066 Eh     change       -0.3977741E-05 Eh
   *** GEOMETRY OPTIMIZATION CONVERGED AFTER 12 ITERATIONS ***

 final structure:
================
20
 xtb: 6.5.1 (579679a)
C            4.08986378244005        0.59005667847419        0.15238905921137
O            2.75106674619261        0.39154487843647       -0.22796262595035
C            1.83812184726723        0.26365924551677        0.89269160543282
O            2.31446807050182        0.36185465958685        2.07359393141257
C            0.55298678809771        0.05105423114755        0.51746808312632
N           -0.58285059331936       -0.11815166804031        1.35903278756482
N           -1.57281112856034       -0.30300120285034        0.49814127009426
C           -2.90732721724788       -0.50616885369904        1.00877524867308
C           -1.22859830585677       -0.25818693995368       -0.77098732822535
C           -2.09507557110086       -0.46567986413220       -1.95950885368413
O            0.12139828659904       -0.04778328340146       -0.88583544026231
H            4.68087885685719        0.69369577060609       -0.76181359411364
H            4.48358994076693       -0.25922453397369        0.73137836789437
H            4.21645597934603        1.50031757149017        0.75810928993584
H           -2.83689175462819       -0.66912180715314        2.08220743632371
H           -3.52075784450126        0.37297978692045        0.81002172958685
H           -3.35866309369521       -1.37316244107186        0.52908161146523
H           -1.54637432875344       -0.17693145982549       -2.85421662459545
H           -2.39760477463498       -1.51168185894571       -2.06164649260930
H           -3.00187468576992        0.13667209086804       -1.89091846128084

          :  Hamiltonian                  GFN1-xTB          :
         :: total energy             -38.278006551134 Eh    ::
         :: gradient norm              0.000640366705 Eh/a0 ::
         :: HOMO-LUMO gap              0.972602359488 eV    ::
         :: SCC energy               -38.591339748535 Eh    ::
         :: -> Gsolv                  -0.121800094985 Eh    ::
         :: repulsion energy           0.321473438126 Eh    ::

    * Orbital Energies and Occupations

         #    Occupation            Energy/Eh            Energy/eV
      -------------------------------------------------------------
         1        2.0000           -0.8003256             -21.7780
       ...           ...                  ...                  ...
        19        2.0000           -0.5141038             -13.9895
        20        2.0000           -0.5112580             -13.9120
        21        2.0000           -0.5035769             -13.7030
        22        2.0000           -0.4850759             -13.1996
        23        2.0000           -0.4660047             -12.6806
        24        2.0000           -0.4596556             -12.5079
        25        2.0000           -0.4554189             -12.3926
        26        2.0000           -0.4370928             -11.8939
        27        2.0000           -0.4068705             -11.0715
        28        2.0000           -0.4028241             -10.9614
        29        2.0000           -0.3698251             -10.0635
        30        2.0000           -0.3654136              -9.9434
        31        2.0000           -0.2579569              -7.0194 (HOMO)
        32                         -0.2222145              -6.0468 (LUMO)
        33                         -0.1398071              -3.8043
        34                         -0.1243138              -3.3827
        35                         -0.0998080              -2.7159
        36                         -0.0987782              -2.6879
        37                         -0.0809924              -2.2039
        38                         -0.0701602              -1.9092
        39                         -0.0532755              -1.4497
        40                         -0.0483133              -1.3147
        41                         -0.0383420              -1.0433
        42                         -0.0350897              -0.9548
       ...                                ...                  ...
        62                          0.7118253              19.3698
      -------------------------------------------------------------
                  HL-Gap            0.0357425 Eh            0.9726 eV

Wiberg/Mayer (AO) data.
largest (>0.10) Wiberg bond orders for each atom

     #   Z sym  total        # sym  WBO       # sym  WBO       # sym  WBO
 ---------------------------------------------------------------------------
     1   6 C    3.932 --    12 H    0.986    13 H    0.980    14 H    0.979
                             2 O    0.970
     2   8 O    2.001 --     1 C    0.970     3 C    0.856
     3   6 C    3.877 --     5 C    1.544     4 O    1.309     2 O    0.856
     4   8 O    1.639 --     3 C    1.309     5 C    0.168
     5   6 C    3.711 --     3 C    1.544     6 N    1.059    11 O    0.836
                             4 O    0.168
     6   7 N    2.758 --     7 N    1.185     5 C    1.059     9 C    0.329
     7   7 N    3.635 --     9 C    1.374     6 N    1.185     8 C    0.952
     8   6 C    3.956 --    15 H    0.985    17 H    0.984    16 H    0.980
                             7 N    0.952
     9   6 C    3.866 --     7 N    1.374    11 O    1.028    10 C    1.024
                             6 N    0.329
    10   6 C    3.994 --     9 C    1.024    18 H    0.983    20 H    0.977
                            19 H    0.969
    11   8 O    2.086 --     9 C    1.028     5 C    0.836
    12   1 H    1.023 --     1 C    0.986
    13   1 H    1.027 --     1 C    0.980
    14   1 H    1.028 --     1 C    0.979
    15   1 H    1.014 --     8 C    0.985
    16   1 H    1.003 --     8 C    0.980
    17   1 H    1.003 --     8 C    0.984
    18   1 H    1.003 --    10 C    0.983
    19   1 H    1.004 --    10 C    0.969
    20   1 H    1.004 --    10 C    0.977
 ---------------------------------------------------------------------------

           -------------------------------------------------
          | TOTAL ENERGY              -38.278006551134 Eh   |
          | GRADIENT NORM               0.000640366705 Eh/α |
          | HOMO-LUMO GAP               0.972602359488 eV   |
           -------------------------------------------------

 * finished run on 2023/06/20 at 14:53:59.169
