   * xtb version 6.5.1 (579679a) compiled by 'ehlert@majestix' on 2022-07-11
          program call               : /lustre/hpc/kemi/ree/PhD/git/ReactivityQM/dep/xtb-6.5.1/bin/xtb --gfn 1 /lustre/hpc/kemi/ree/PhD/git/ReactivityQM/calculations/R02/reac01prodN10/conf18/R02_reac01prodN10_conf18_gfn1.xyz --opt --vfukui --chrg 1 --uhf 0 --alpb DMSO

   ID    Z sym.   atoms
    1    6 C      1, 3, 5, 6, 8, 11-15, 17, 19, 22, 23
    2    8 O      2, 4, 7, 9, 18, 24
    3    7 N      10, 16, 20, 21, 25
    4    1 H      26-43

      * Solvation model:               ALPB
        Solvent                        DMSO
        Solvent mass                       7.8130E+01 g/mol
          :  Hamiltonian                  GFN1-xTB          :
 * total energy  :   -83.0873539 Eh     change       -0.1652154E-09 Eh
 * total energy  :   -83.1050357 Eh     change       -0.1768177E-01 Eh
 * total energy  :   -83.1126201 Eh     change       -0.7584398E-02 Eh
 * total energy  :   -83.1142081 Eh     change       -0.1588014E-02 Eh
 * total energy  :   -83.1151618 Eh     change       -0.9537306E-03 Eh
 * total energy  :   -83.1155313 Eh     change       -0.3695041E-03 Eh
 * total energy  :   -83.1157854 Eh     change       -0.2540418E-03 Eh
 * total energy  :   -83.1159516 Eh     change       -0.1662470E-03 Eh
 * total energy  :   -83.1161152 Eh     change       -0.1636449E-03 Eh
 * total energy  :   -83.1162989 Eh     change       -0.1836929E-03 Eh
 * total energy  :   -83.1203609 Eh     change       -0.8120520E-05 Eh
 * total energy  :   -83.1203708 Eh     change       -0.9879814E-05 Eh
 * total energy  :   -83.1203797 Eh     change       -0.8934459E-05 Eh
 * total energy  :   -83.1203895 Eh     change       -0.9806880E-05 Eh
 * total energy  :   -83.1203990 Eh     change       -0.9472204E-05 Eh
 * total energy  :   -83.1204069 Eh     change       -0.7914567E-05 Eh
 * total energy  :   -83.1204139 Eh     change       -0.6983762E-05 Eh
 * total energy  :   -83.1204196 Eh     change       -0.5698913E-05 Eh
 * total energy  :   -83.1204239 Eh     change       -0.4287341E-05 Eh
   *** GEOMETRY OPTIMIZATION CONVERGED AFTER 76 ITERATIONS ***

 final structure:
================
43
 xtb: 6.5.1 (579679a)
C            4.09316261418919        3.76875412888911        0.26948589792560
O            3.83110652787273        2.35445747339694        0.28676614436553
C            2.57219192819657        1.97808232450218        0.31045299806534
O            1.62019773318446        2.71273228917837        0.32484964263785
C            2.41410819149798        0.46623777813589        0.31326183458214
C            3.43909796341534       -0.45789946371634        0.02850031150658
O            4.64848476902430       -0.12787614951065       -0.26170349435163
C            3.15541288053679       -1.91882874879032        0.07229416097240
O            4.04121476283648       -2.72055243802643       -0.13505354319502
N            1.87531956528251       -2.22455165361003        0.38303147920930
C            0.82932916391184       -1.27591737181180        0.57120284730781
C           -0.00036178707205       -1.61804435517688        1.81023141950093
C           -0.16345548206327       -1.33485337915131       -0.80460348032804
C           -0.55407301923395       -2.78375024923523       -1.04598602453033
C            0.64106468865488       -0.79303680157036       -1.97889603037396
N           -1.24997548696294       -0.47137066132618       -0.54531723168909
C           -2.45682319838239       -0.80739911512846        0.02527361945924
O           -2.79410642945499       -1.92860608850990        0.33038546921589
C           -3.27750093619483        0.40151889045106        0.21146348480062
N           -2.90891316779817        1.62239365420466       -0.05064375421809
N           -3.94171386305388        2.42618361193720        0.29740031104635
C           -4.88247254861738        1.64893478936171        0.75558623061550
C           -6.21283507120617        2.04511788376836        1.26229287497748
O           -4.51805425907019        0.36141031462164        0.72595116909381
N            1.20570713808115        0.04502347275418        0.59852896107157
H            5.17215668012050        3.87678129383614        0.18587453474038
H            3.73014356522200        4.22090032916245        1.19449726041113
H            3.59088927685234        4.22471595289002       -0.58574012308239
H            5.20199798263882       -0.92440228735693       -0.43044589133247
H            1.65884231054433       -3.20567435701355        0.48893505045811
H           -0.48150020889007       -2.58694743579968        1.71100195571848
H            0.67435338250057       -1.63807758207239        2.66429808967186
H           -0.74942060990426       -0.84590553940701        1.96662152627636
H           -1.37127060425463       -2.79892527427674       -1.76726465064369
H            0.29544606899783       -3.32106756445073       -1.46265142570006
H           -0.89070882502743       -3.29386798961515       -0.14791377570503
H            1.59917633056956       -1.30209526419915       -2.05891348920698
H            0.07573721726632       -0.98034589229145       -2.89156097958005
H            0.80932782962725        0.27795613087644       -1.88456585612695
H           -1.07923380514005        0.51918241131497       -0.68230077030146
H           -6.34538679117254        1.67998658422172        2.28068891968274
H           -6.99224990279953        1.60114820250199        0.64237859649211
H           -6.30441157472458        3.12847614604362        1.24467773055379

          :  Hamiltonian                  GFN1-xTB          :
         :: total energy             -83.120423875456 Eh    ::
         :: gradient norm              0.000666998215 Eh/a0 ::
         :: HOMO-LUMO gap              1.016310482589 eV    ::
         :: SCC energy               -83.911855421375 Eh    ::
         :: -> Gsolv                  -0.110162452126 Eh    ::
         :: repulsion energy           0.819882072394 Eh    ::

    * Orbital Energies and Occupations

         #    Occupation            Energy/Eh            Energy/eV
      -------------------------------------------------------------
         1        2.0000           -0.8973119             -24.4171
       ...           ...                  ...                  ...
        55        2.0000           -0.5339430             -14.5293
        56        2.0000           -0.5306634             -14.4401
        57        2.0000           -0.5242241             -14.2649
        58        2.0000           -0.5239217             -14.2566
        59        2.0000           -0.5196631             -14.1408
        60        2.0000           -0.5182745             -14.1030
        61        2.0000           -0.5121146             -13.9353
        62        2.0000           -0.5022386             -13.6666
        63        2.0000           -0.4943027             -13.4507
        64        2.0000           -0.4905233             -13.3478
        65        2.0000           -0.4827828             -13.1372
        66        2.0000           -0.4706019             -12.8057
        67        2.0000           -0.4695144             -12.7761 (HOMO)
        68                         -0.4321657             -11.7598 (LUMO)
        69                         -0.3579160              -9.7394
        70                         -0.3373995              -9.1811
        71                         -0.2806242              -7.6362
        72                         -0.2722311              -7.4078
        73                         -0.2291904              -6.2366
        74                         -0.2223496              -6.0504
        75                         -0.1631094              -4.4384
        76                         -0.1561649              -4.2495
        77                         -0.1515768              -4.1246
        78                         -0.1489355              -4.0527
       ...                                ...                  ...
       136                          0.7208101              19.6142
      -------------------------------------------------------------
                  HL-Gap            0.0373487 Eh            1.0163 eV

Wiberg/Mayer (AO) data.
largest (>0.10) Wiberg bond orders for each atom

     #   Z sym  total        # sym  WBO       # sym  WBO       # sym  WBO
 ---------------------------------------------------------------------------
     1   6 C    3.848 --    26 H    0.985    28 H    0.978    27 H    0.978
                             2 O    0.874
     2   8 O    2.229 --     3 C    1.160     1 C    0.874     4 O    0.150
     3   6 C    3.864 --     4 O    1.688     2 O    1.160     5 C    0.943
     4   8 O    1.955 --     3 C    1.688     2 O    0.150
     5   6 C    3.952 --    25 N    1.502     6 C    1.252     3 C    0.943
     6   6 C    3.838 --     7 O    1.304     5 C    1.252     8 C    0.986
     7   8 O    2.226 --     6 C    1.304    29 H    0.756
     8   6 C    3.919 --     9 O    1.615    10 N    1.217     6 C    0.986
     9   8 O    1.945 --     8 C    1.615    10 N    0.181
    10   7 N    3.436 --     8 C    1.217    11 C    0.994    30 H    0.868
                             9 O    0.181
    11   6 C    3.905 --    25 N    1.159    10 N    0.994    12 C    0.945
                            13 C    0.662
    12   6 C    3.962 --    33 H    0.979    31 H    0.976    32 H    0.974
                            11 C    0.945
    13   6 C    3.901 --    16 N    1.044    15 C    1.004    14 C    1.000
                            11 C    0.662
    14   6 C    3.977 --    13 C    1.000    35 H    0.981    36 H    0.969
                            34 H    0.959
    15   6 C    3.985 --    13 C    1.004    39 H    0.980    37 H    0.980
                            38 H    0.965
    16   7 N    3.383 --    17 C    1.144    13 C    1.044    40 H    0.882
                            18 O    0.133
    17   6 C    3.901 --    18 O    1.644    16 N    1.144    19 C    1.013
    18   8 O    1.946 --    17 C    1.644    16 N    0.133
    19   6 C    3.880 --    20 N    1.582    24 O    1.066    17 C    1.013
    20   7 N    3.026 --    19 C    1.582    21 N    1.226
    21   7 N    2.979 --    22 C    1.575    20 N    1.226
    22   6 C    3.857 --    21 N    1.575    24 O    1.091    23 C    1.035
    23   6 C    3.982 --    22 C    1.035    43 H    0.981    41 H    0.961
                            42 H    0.958
    24   8 O    2.341 --    22 C    1.091    19 C    1.066
    25   7 N    3.033 --     5 C    1.502    11 C    1.159
    26   1 H    1.007 --     1 C    0.985
    27   1 H    1.002 --     1 C    0.978
    28   1 H    1.002 --     1 C    0.978
    29   1 H    0.802 --     7 O    0.756
    30   1 H    0.907 --    10 N    0.868
    31   1 H    0.999 --    12 C    0.976
    32   1 H    0.994 --    12 C    0.974
    33   1 H    0.999 --    12 C    0.979
    34   1 H    0.989 --    14 C    0.959
    35   1 H    0.997 --    14 C    0.981
    36   1 H    1.007 --    14 C    0.969
    37   1 H    0.997 --    15 C    0.980
    38   1 H    0.992 --    15 C    0.965
    39   1 H    0.997 --    15 C    0.980
    40   1 H    0.950 --    16 N    0.882
    41   1 H    0.994 --    23 C    0.961
    42   1 H    0.994 --    23 C    0.958
    43   1 H    0.997 --    23 C    0.981
 ---------------------------------------------------------------------------

           -------------------------------------------------
          | TOTAL ENERGY              -83.120423875456 Eh   |
          | GRADIENT NORM               0.000666998215 Eh/α |
          | HOMO-LUMO GAP               1.016310482589 eV   |
           -------------------------------------------------

 * finished run on 2023/06/20 at 15:31:20.465
