   * xtb version 6.5.1 (579679a) compiled by 'ehlert@majestix' on 2022-07-11
          program call               : /lustre/hpc/kemi/ree/PhD/git/ReactivityQM/dep/xtb-6.5.1/bin/xtb --gfn 1 /lustre/hpc/kemi/ree/PhD/git/ReactivityQM/calculations/RaltegravirCLI/reac01/conf07/RaltegravirCLI_reac01_conf07_gfn1.xyz --opt --vfukui --chrg 0 --uhf 0 --alpb DMSO

   ID    Z sym.   atoms
    1    6 C      1, 2, 5, 6
    2    7 N      3, 4
    3    8 O      7, 9
    4   17 Cl     8
    5    1 H      10-12

      * Solvation model:               ALPB
        Solvent                        DMSO
        Solvent mass                       7.8130E+01 g/mol
          :  Hamiltonian                  GFN1-xTB          :
 * total energy  :   -30.0919021 Eh     change       -0.1325162E-11 Eh
 * total energy  :   -30.0947934 Eh     change       -0.2891338E-02 Eh
 * total energy  :   -30.0960427 Eh     change       -0.1249327E-02 Eh
 * total energy  :   -30.0962286 Eh     change       -0.1858696E-03 Eh
 * total energy  :   -30.0962971 Eh     change       -0.6853674E-04 Eh
 * total energy  :   -30.0963113 Eh     change       -0.1412808E-04 Eh
 * total energy  :   -30.0963211 Eh     change       -0.9804048E-05 Eh
 * total energy  :   -30.0963267 Eh     change       -0.5674152E-05 Eh
 * total energy  :   -30.0963347 Eh     change       -0.7988673E-05 Eh
 * total energy  :   -30.0963491 Eh     change       -0.1435538E-04 Eh
 * total energy  :   -30.0964318 Eh     change       -0.8538250E-05 Eh
 * total energy  :   -30.0964264 Eh     change        0.5352797E-05 Eh
 * total energy  :   -30.0964588 Eh     change       -0.3244126E-04 Eh
 * total energy  :   -30.0964706 Eh     change       -0.1176473E-04 Eh
 * total energy  :   -30.0964516 Eh     change        0.1898127E-04 Eh
 * total energy  :   -30.0965020 Eh     change       -0.5038969E-04 Eh
 * total energy  :   -30.0965100 Eh     change       -0.7964713E-05 Eh
 * total energy  :   -30.0965371 Eh     change       -0.2709067E-04 Eh
 * total energy  :   -30.0965397 Eh     change       -0.2665884E-05 Eh
   *** GEOMETRY OPTIMIZATION CONVERGED AFTER 22 ITERATIONS ***

 final structure:
================
12
 xtb: 6.5.1 (579679a)
C           -2.23589859938050        0.13992994188775       -0.19636194420529
C           -0.85323641244145       -0.22848503176585        0.16992880536280
N           -0.46818654774885       -1.17229512528513        0.98137284793571
N            0.88236909244818       -1.14380820805880        1.00348922725438
C            1.25336330651611       -0.18329294215998        0.20334587049443
C            2.62908252637848        0.22213877398660       -0.09379317794117
O            3.59424605072794       -0.29679551057567        0.38744332182872
Cl           2.74783178562218        1.52689895419426       -1.21768302701213
O            0.18743009831507        0.42978422618051       -0.35146798205350
H           -2.41143641172992       -0.08457005526100       -1.24881369293748
H           -2.94006209311027       -0.41883838421026        0.41505948484202
H           -2.38550279559697        1.20933136106759       -0.05251973356851

          :  Hamiltonian                  GFN1-xTB          :
         :: total energy             -30.096539738939 Eh    ::
         :: gradient norm              0.000540666685 Eh/a0 ::
         :: HOMO-LUMO gap              3.243306291765 eV    ::
         :: SCC energy               -30.331613858673 Eh    ::
         :: -> Gsolv                  -0.018862221661 Eh    ::
         :: repulsion energy           0.240178628297 Eh    ::

    * Orbital Energies and Occupations

         #    Occupation            Energy/Eh            Energy/eV
      -------------------------------------------------------------
         1        2.0000           -0.9451049             -25.7176
       ...           ...                  ...                  ...
        12        2.0000           -0.6195611             -16.8591
        13        2.0000           -0.5993261             -16.3085
        14        2.0000           -0.5906367             -16.0720
        15        2.0000           -0.5528758             -15.0445
        16        2.0000           -0.5521739             -15.0254
        17        2.0000           -0.5405837             -14.7100
        18        2.0000           -0.5193616             -14.1325
        19        2.0000           -0.4975740             -13.5397
        20        2.0000           -0.4943503             -13.4520
        21        2.0000           -0.4885181             -13.2933
        22        2.0000           -0.4833081             -13.1515
        23        2.0000           -0.4678243             -12.7301
        24        2.0000           -0.4637639             -12.6197 (HOMO)
        25                         -0.3445746              -9.3764 (LUMO)
        26                         -0.2689397              -7.3182
        27                         -0.2308499              -6.2817
        28                         -0.2088063              -5.6819
        29                         -0.1468161              -3.9951
        30                         -0.0787762              -2.1436
        31                         -0.0781405              -2.1263
        32                         -0.0716948              -1.9509
        33                         -0.0715742              -1.9476
        34                         -0.0683206              -1.8591
        35                         -0.0367116              -0.9990
       ...                                ...                  ...
        47                          0.7403427              20.1457
      -------------------------------------------------------------
                  HL-Gap            0.1191893 Eh            3.2433 eV

Wiberg/Mayer (AO) data.
largest (>0.10) Wiberg bond orders for each atom

     #   Z sym  total        # sym  WBO       # sym  WBO       # sym  WBO
 ---------------------------------------------------------------------------
     1   6 C    3.983 --     2 C    1.035    11 H    0.981    12 H    0.963
                            10 H    0.956
     2   6 C    3.865 --     3 N    1.570     9 O    1.093     1 C    1.035
     3   7 N    2.986 --     2 C    1.570     4 N    1.236
     4   7 N    3.010 --     5 C    1.577     3 N    1.236
     5   6 C    3.880 --     4 N    1.577     9 O    1.050     6 C    1.039
     6   6 C    3.890 --     7 O    1.760     5 C    1.039     8 Cl   1.021
     7   8 O    2.030 --     6 C    1.760     8 Cl   0.153
     8  17 Cl   1.231 --     6 C    1.021     7 O    0.153
     9   8 O    2.327 --     2 C    1.093     5 C    1.050
    10   1 H    0.994 --     1 C    0.956
    11   1 H    0.997 --     1 C    0.981
    12   1 H    0.995 --     1 C    0.963
 ---------------------------------------------------------------------------

           -------------------------------------------------
          | TOTAL ENERGY              -30.096539738939 Eh   |
          | GRADIENT NORM               0.000540666685 Eh/α |
          | HOMO-LUMO GAP               3.243306291765 eV   |
           -------------------------------------------------

 * finished run on 2023/06/20 at 14:51:35.516
