   * xtb version 6.5.1 (579679a) compiled by 'ehlert@majestix' on 2022-07-11
          program call               : /lustre/hpc/kemi/ree/PhD/git/ReactivityQM/dep/xtb-6.5.1/bin/xtb --gfn 1 /lustre/hpc/kemi/ree/PhD/git/ReactivityQM/calculations/R03/reac02prodN05/conf01/R03_reac02prodN05_conf01_gfn1.xyz --opt --vfukui --chrg 1 --uhf 0 --alpb DMSO

   ID    Z sym.   atoms
    1    6 C      1, 3, 5, 6, 8, 11-15, 17, 19, 22, 23, 26
    2    8 O      2, 4, 7, 9, 18, 24
    3    7 N      10, 16, 20, 21, 25
    4    1 H      27-46

      * Solvation model:               ALPB
        Solvent                        DMSO
        Solvent mass                       7.8130E+01 g/mol
          :  Hamiltonian                  GFN1-xTB          :
 * total energy  :   -86.3016956 Eh     change       -0.2414424E-10 Eh
 * total energy  :   -86.3225104 Eh     change       -0.2081474E-01 Eh
 * total energy  :   -86.3307855 Eh     change       -0.8275186E-02 Eh
 * total energy  :   -86.3330638 Eh     change       -0.2278286E-02 Eh
 * total energy  :   -86.3345282 Eh     change       -0.1464417E-02 Eh
 * total energy  :   -86.3352770 Eh     change       -0.7487244E-03 Eh
 * total energy  :   -86.3357482 Eh     change       -0.4712746E-03 Eh
 * total energy  :   -86.3360975 Eh     change       -0.3492851E-03 Eh
 * total energy  :   -86.3364239 Eh     change       -0.3264127E-03 Eh
 * total energy  :   -86.3367673 Eh     change       -0.3433375E-03 Eh
 * total energy  :   -86.3384217 Eh     change       -0.2669740E-04 Eh
 * total energy  :   -86.3384342 Eh     change       -0.1255909E-04 Eh
 * total energy  :   -86.3384574 Eh     change       -0.2316414E-04 Eh
 * total energy  :   -86.3384647 Eh     change       -0.7281797E-05 Eh
 * total energy  :   -86.3384827 Eh     change       -0.1804987E-04 Eh
 * total energy  :   -86.3384877 Eh     change       -0.4953417E-05 Eh
 * total energy  :   -86.3384990 Eh     change       -0.1128756E-04 Eh
 * total energy  :   -86.3385027 Eh     change       -0.3787677E-05 Eh
 * total energy  :   -86.3385063 Eh     change       -0.3515660E-05 Eh
   *** GEOMETRY OPTIMIZATION CONVERGED AFTER 35 ITERATIONS ***

 final structure:
================
46
 xtb: 6.5.1 (579679a)
C            3.93665565476960        3.83221318548619        0.71013868591085
O            3.73627792668883        2.52003735274264        0.14275175625742
C            2.51786295296415        2.01354477583868        0.26225858319730
O            1.59703457716292        2.59857768249970        0.77072797228169
C            2.41612279738690        0.64738099336956       -0.35657392626223
C            3.23936631840225        0.21955396475820       -1.35866929413363
O            4.27670677957151        0.86987731082382       -1.85558159847699
C            3.02367795626456       -1.09107584584446       -1.97774989694828
O            3.77014511213847       -1.60832128060483       -2.77190425127620
N            1.83586135529931       -1.73993096495576       -1.57596542070759
C            1.72564089716316       -3.08277167190028       -2.16683834944717
C            0.96321086264783       -1.23205091284700       -0.68707643058919
C           -0.45828194261158       -1.79813974792648       -0.54712633659896
C           -1.04542210485857       -2.24037214152941       -1.90457035470474
C           -0.50704888681757       -2.94270612753593        0.47775827598705
N           -1.29242270611058       -0.66700654060143       -0.13501432902827
C           -2.52703677975356       -0.79939857079110        0.43808456269925
O           -2.99366409462422       -1.81938487145064        0.89476195216102
C           -3.20578053580388        0.51552064166950        0.46351633814679
N           -2.73815288268497        1.62433153983350       -0.02919363510745
N           -3.67335955011030        2.58232296391075        0.20599185853824
C           -4.65538916663274        1.99797963716821        0.82821571670300
C           -5.91297774887404        2.60928609324358        1.30999953760114
O           -4.41673361458489        0.69270946179975        1.01763267478361
N            1.32957619962031       -0.15286186441927        0.01026581019809
C            0.72147000526929        0.14205522693128        1.32365440253168
H            5.00177675359104        4.03511832194808        0.63809480399886
H            3.36100827939349        4.56583478182382        0.14378427599829
H            3.61077300700866        3.82943226585058        1.75127528805974
H            4.45812328857640        1.71925050008404       -1.41312836178681
H            1.33900670160478       -3.00854576371488       -3.18110704635639
H            1.10071249701872       -3.71491355877957       -1.55065703904078
H            2.73281132254655       -3.49855717456005       -2.20026218514505
H           -2.13042835238838       -2.18535751542999       -1.82454238235427
H           -0.78979976129457       -3.26544121625738       -2.15345055440385
H           -0.72175413236779       -1.57492139465858       -2.70182020995192
H           -1.39213787078350       -3.55144967118493        0.30398293025024
H            0.37696103943380       -3.56916353034369        0.38211068406869
H           -0.54917805593499       -2.55668766680876        1.49350984997119
H           -1.14706475193575        0.18667780614094       -0.65737872869436
H           -6.76827332264729        2.08894326942667        0.87898178479869
H           -5.97575183690197        2.51959988974368        2.39479057412645
H           -5.94185377876207        3.65928307388006        1.02911829913064
H            0.26283869322635       -0.75808458962287        1.71364361002566
H           -0.01409830805188        0.93814081898561        1.23590852463379
H            1.52299020678317        0.44947006381081        1.99110157895076

          :  Hamiltonian                  GFN1-xTB          :
         :: total energy             -86.338506262523 Eh    ::
         :: gradient norm              0.000576311855 Eh/a0 ::
         :: HOMO-LUMO gap              2.564332045870 eV    ::
         :: SCC energy               -87.171597393459 Eh    ::
         :: -> Gsolv                  -0.109915016694 Eh    ::
         :: repulsion energy           0.863870168272 Eh    ::

    * Orbital Energies and Occupations

         #    Occupation            Energy/Eh            Energy/eV
      -------------------------------------------------------------
         1        2.0000           -0.8899567             -24.2170
       ...           ...                  ...                  ...
        58        2.0000           -0.5330317             -14.5045
        59        2.0000           -0.5266770             -14.3316
        60        2.0000           -0.5239210             -14.2566
        61        2.0000           -0.5223249             -14.2132
        62        2.0000           -0.5191692             -14.1273
        63        2.0000           -0.5156157             -14.0306
        64        2.0000           -0.5006798             -13.6242
        65        2.0000           -0.4933206             -13.4239
        66        2.0000           -0.4815993             -13.1050
        67        2.0000           -0.4781562             -13.0113
        68        2.0000           -0.4757236             -12.9451
        69        2.0000           -0.4629669             -12.5980
        70        2.0000           -0.4611536             -12.5486 (HOMO)
        71                         -0.3669161              -9.9843 (LUMO)
        72                         -0.3630862              -9.8801
        73                         -0.3262501              -8.8777
        74                         -0.2857830              -7.7766
        75                         -0.2651156              -7.2142
        76                         -0.2200998              -5.9892
        77                         -0.2135839              -5.8119
        78                         -0.1672564              -4.5513
        79                         -0.1569410              -4.2706
        80                         -0.1508368              -4.1045
        81                         -0.1494174              -4.0659
       ...                                ...                  ...
       144                          0.7248801              19.7250
      -------------------------------------------------------------
                  HL-Gap            0.0942375 Eh            2.5643 eV

Wiberg/Mayer (AO) data.
largest (>0.10) Wiberg bond orders for each atom

     #   Z sym  total        # sym  WBO       # sym  WBO       # sym  WBO
 ---------------------------------------------------------------------------
     1   6 C    3.836 --    27 H    0.984    29 H    0.978    28 H    0.978
                             2 O    0.863
     2   8 O    2.230 --     3 C    1.132     1 C    0.863     4 O    0.138
     3   6 C    3.863 --     4 O    1.673     2 O    1.132     5 C    0.984
     4   8 O    1.968 --     3 C    1.673     2 O    0.138
     5   6 C    3.920 --     6 C    1.517    25 N    1.078     3 C    0.984
                             7 O    0.105
     6   6 C    3.927 --     5 C    1.517     7 O    1.153     8 C    1.038
     7   8 O    2.127 --     6 C    1.153    30 H    0.780     5 C    0.105
     8   6 C    3.903 --     9 O    1.673    10 N    1.048     6 C    1.038
     9   8 O    1.974 --     8 C    1.673    10 N    0.118
    10   7 N    3.527 --    12 C    1.298     8 C    1.048    11 C    0.908
                             9 O    0.118
    11   6 C    3.891 --    32 H    0.978    31 H    0.971    33 H    0.965
                            10 N    0.908
    12   6 C    3.898 --    25 N    1.367    10 N    1.298    13 C    0.973
    13   6 C    3.927 --    15 C    0.974    14 C    0.974    12 C    0.973
                            16 N    0.941
    14   6 C    3.982 --    36 H    0.984    35 H    0.978    34 H    0.976
                            13 C    0.974
    15   6 C    3.979 --    38 H    0.979    37 H    0.975    13 C    0.974
                            39 H    0.973
    16   7 N    3.293 --    17 C    1.187    13 C    0.941    40 H    0.892
                            18 O    0.163
    17   6 C    3.908 --    18 O    1.634    16 N    1.187    19 C    0.997
    18   8 O    1.942 --    17 C    1.634    16 N    0.163
    19   6 C    3.880 --    20 N    1.599    24 O    1.068    17 C    0.997
    20   7 N    3.026 --    19 C    1.599    21 N    1.210
    21   7 N    2.982 --    22 C    1.593    20 N    1.210
    22   6 C    3.867 --    21 N    1.593    24 O    1.086    23 C    1.033
    23   6 C    3.985 --    22 C    1.033    43 H    0.982    41 H    0.963
                            42 H    0.960
    24   8 O    2.337 --    22 C    1.086    19 C    1.068
    25   7 N    3.559 --    12 C    1.367     5 C    1.078    26 C    0.897
    26   6 C    3.887 --    44 H    0.976    46 H    0.972    45 H    0.968
                            25 N    0.897
    27   1 H    1.005 --     1 C    0.984
    28   1 H    1.001 --     1 C    0.978
    29   1 H    1.002 --     1 C    0.978
    30   1 H    0.831 --     7 O    0.780
    31   1 H    0.996 --    11 C    0.971
    32   1 H    1.002 --    11 C    0.978
    33   1 H    0.998 --    11 C    0.965
    34   1 H    0.996 --    14 C    0.976
    35   1 H    0.999 --    14 C    0.978
    36   1 H    0.995 --    14 C    0.984
    37   1 H    1.006 --    15 C    0.975
    38   1 H    0.999 --    15 C    0.979
    39   1 H    1.003 --    15 C    0.973
    40   1 H    0.949 --    16 N    0.892
    41   1 H    0.996 --    23 C    0.963
    42   1 H    0.995 --    23 C    0.960
    43   1 H    0.998 --    23 C    0.982
    44   1 H    1.004 --    26 C    0.976
    45   1 H    1.013 --    26 C    0.968
    46   1 H    0.996 --    26 C    0.972
 ---------------------------------------------------------------------------

           -------------------------------------------------
          | TOTAL ENERGY              -86.338506262523 Eh   |
          | GRADIENT NORM               0.000576311855 Eh/α |
          | HOMO-LUMO GAP               2.564332045870 eV   |
           -------------------------------------------------

 * finished run on 2023/06/20 at 15:40:19.201
