   * xtb version 6.5.1 (579679a) compiled by 'ehlert@majestix' on 2022-07-11
          program call               : /lustre/hpc/kemi/ree/PhD/git/ReactivityQM/dep/xtb-6.5.1/bin/xtb --gfn 1 /lustre/hpc/kemi/ree/PhD/git/ReactivityQM/calculations/R02methylcation/reac01prodN16/conf01/R02methylcation_reac01prodN16_conf01_gfn1.xyz --opt --vfukui --chrg 0 --uhf 0 --alpb DMSO

   ID    Z sym.   atoms
    1    6 C      1, 2, 5, 6, 9-12, 14, 15, 18-20, 22
    2    7 N      3, 4, 8, 13, 24
    3    8 O      7, 16, 17, 21, 23, 25
    4    1 H      26-42

      * Solvation model:               ALPB
        Solvent                        DMSO
        Solvent mass                       7.8130E+01 g/mol
          :  Hamiltonian                  GFN1-xTB          :
 * total energy  :   -82.9230880 Eh     change       -0.1760725E-10 Eh
 * total energy  :   -82.9401249 Eh     change       -0.1703685E-01 Eh
 * total energy  :   -82.9480121 Eh     change       -0.7887173E-02 Eh
 * total energy  :   -82.9496095 Eh     change       -0.1597397E-02 Eh
 * total energy  :   -82.9507875 Eh     change       -0.1178042E-02 Eh
 * total energy  :   -82.9515229 Eh     change       -0.7354331E-03 Eh
 * total energy  :   -82.9520294 Eh     change       -0.5064762E-03 Eh
 * total energy  :   -82.9523745 Eh     change       -0.3450563E-03 Eh
 * total energy  :   -82.9526337 Eh     change       -0.2592297E-03 Eh
 * total energy  :   -82.9528986 Eh     change       -0.2648698E-03 Eh
 * total energy  :   -82.9558643 Eh     change       -0.1070281E-04 Eh
 * total energy  :   -82.9558898 Eh     change       -0.2551207E-04 Eh
 * total energy  :   -82.9559373 Eh     change       -0.4742852E-04 Eh
 * total energy  :   -82.9559566 Eh     change       -0.1931591E-04 Eh
 * total energy  :   -82.9559739 Eh     change       -0.1730228E-04 Eh
 * total energy  :   -82.9559838 Eh     change       -0.9877092E-05 Eh
 * total energy  :   -82.9559890 Eh     change       -0.5272540E-05 Eh
 * total energy  :   -82.9559944 Eh     change       -0.5334440E-05 Eh
 * total energy  :   -82.9559991 Eh     change       -0.4726771E-05 Eh
   *** GEOMETRY OPTIMIZATION CONVERGED AFTER 44 ITERATIONS ***

 final structure:
================
42
 xtb: 6.5.1 (579679a)
C            6.14031093692222        2.62033255283146       -0.79343836654278
C            4.83662723731363        1.94076165211535       -0.62502494917513
N            3.65665124039853        2.40776903958677       -0.89834691877308
N            2.76643728948728        1.42776001458089       -0.57235964975430
C            3.46008106505175        0.42697455951547       -0.12088400682194
C            2.92242136018708       -0.87953246047684        0.34575978389380
O            3.63109816794122       -1.80260369128004        0.71283293782357
N            1.57985104087049       -0.89046983198768        0.29522595757204
C            0.75086862451115       -2.03307164321293        0.66643267576602
C            0.98367291285930       -2.38414961190181        2.14346959348519
C            1.08126734168275       -3.22251010002104       -0.24644648701046
C           -0.68721151722966       -1.59505133597489        0.46566132683961
N           -0.95362641607141       -0.40101072022582        0.09676344005610
C           -2.27649072953167        0.00876447921089       -0.07643157278713
C           -2.34113398217442        1.32651119684136       -0.53351175977164
O           -1.54096647917836        2.16880068263331       -0.80761809940173
O           -3.84659675770966        1.78384547385145       -0.80264994891445
C           -3.91396032157834        2.69771925585420       -1.91604103269201
C           -4.48985784474580        2.28514635173914        0.39069404279401
C           -3.38255196727936       -0.86537912606131        0.17939115160385
O           -4.57296554076291       -0.55795896333625        0.11025600051364
C           -3.01231631282212       -2.28270036930315        0.58217492353175
O           -3.82966090310483       -3.15923763850003        0.79570309323518
N           -1.66955127411630       -2.53105013628931        0.70374968311965
O            4.77903776641391        0.69461571235236       -0.13208867736671
H            6.79926628558599        2.01585601048601       -1.41609073871022
H            5.98924593234030        3.59266124131872       -1.25546474984996
H            6.62002199242522        2.74985954944606        0.17679683108340
H            1.08410952478740       -0.06033357046108       -0.01601242248617
H            0.78226136257333       -1.51474800022136        2.76746037387088
H            0.32173334252013       -3.19520035899458        2.43939349973524
H            2.01480129958139       -2.70039116851958        2.29131727504153
H            0.44449428780851       -4.06950980243307       -0.00115947662083
H            0.92349665584380       -2.94722596561761       -1.28823744122456
H            2.12032997202523       -3.51569717987153       -0.10713121587879
H           -4.96474497582280        2.91479930310105       -2.09325660060240
H           -3.36344326158097        3.61165972126050       -1.68696446539409
H           -3.47721770086735        2.18958112220488       -2.77354755737157
H           -4.31833540498781        1.55717759464515        1.18009103638723
H           -4.07563708133327        3.25838792356259        0.65774914173336
H           -5.55408226019540        2.36034272620620        0.17496188218409
H           -1.41773190802235       -3.46572348865608        0.98681948690618

          :  Hamiltonian                  GFN1-xTB          :
         :: total energy             -82.955999090183 Eh    ::
         :: gradient norm              0.000402956468 Eh/a0 ::
         :: HOMO-LUMO gap              2.419547046572 eV    ::
         :: SCC energy               -83.748184471507 Eh    ::
         :: -> Gsolv                  -0.060975919928 Eh    ::
         :: repulsion energy           0.817933174667 Eh    ::

    * Orbital Energies and Occupations

         #    Occupation            Energy/Eh            Energy/eV
      -------------------------------------------------------------
         1        2.0000           -0.8848636             -24.0784
       ...           ...                  ...                  ...
        55        2.0000           -0.5042756             -13.7220
        56        2.0000           -0.5011970             -13.6383
        57        2.0000           -0.5006580             -13.6236
        58        2.0000           -0.4933311             -13.4242
        59        2.0000           -0.4810350             -13.0896
        60        2.0000           -0.4766868             -12.9713
        61        2.0000           -0.4632356             -12.6053
        62        2.0000           -0.4587472             -12.4831
        63        2.0000           -0.4528690             -12.3232
        64        2.0000           -0.4492449             -12.2246
        65        2.0000           -0.4444594             -12.0944
        66        2.0000           -0.4222804             -11.4908
        67        2.0000           -0.4133193             -11.2470 (HOMO)
        68                         -0.3244026              -8.8274 (LUMO)
        69                         -0.3075024              -8.3676
        70                         -0.2718789              -7.3982
        71                         -0.2559377              -6.9644
        72                         -0.2448734              -6.6633
        73                         -0.1956833              -5.3248
        74                         -0.1677596              -4.5650
        75                         -0.1554733              -4.2306
        76                         -0.1500936              -4.0843
        77                         -0.1425565              -3.8792
        78                         -0.1422296              -3.8703
       ...                                ...                  ...
       134                          0.7814294              21.2638
      -------------------------------------------------------------
                  HL-Gap            0.0889167 Eh            2.4195 eV

Wiberg/Mayer (AO) data.
largest (>0.10) Wiberg bond orders for each atom

     #   Z sym  total        # sym  WBO       # sym  WBO       # sym  WBO
 ---------------------------------------------------------------------------
     1   6 C    3.987 --     2 C    1.031    27 H    0.983    26 H    0.965
                            28 H    0.962
     2   6 C    3.872 --     3 N    1.608    25 O    1.082     1 C    1.031
     3   7 N    2.980 --     2 C    1.608     4 N    1.197
     4   7 N    3.014 --     5 C    1.614     3 N    1.197
     5   6 C    3.874 --     4 N    1.614    25 O    1.063     6 C    0.986
     6   6 C    3.920 --     7 O    1.582     8 N    1.270     5 C    0.986
     7   8 O    1.902 --     6 C    1.582     8 N    0.182
     8   7 N    3.361 --     6 C    1.270     9 C    0.934    29 H    0.876
                             7 O    0.182
     9   6 C    3.939 --    11 C    0.981    12 C    0.981    10 C    0.979
                             8 N    0.934
    10   6 C    3.987 --    30 H    0.985    31 H    0.984     9 C    0.979
                            32 H    0.979
    11   6 C    3.988 --    34 H    0.985    33 H    0.983     9 C    0.981
                            35 H    0.979
    12   6 C    3.932 --    13 N    1.659    24 N    1.105     9 C    0.981
    13   7 N    3.049 --    12 C    1.659    14 C    1.095
    14   6 C    3.918 --    15 C    1.296    20 C    1.195    13 N    1.095
                            16 O    0.110    21 O    0.102
    15   6 C    3.810 --    16 O    1.716    14 C    1.296    17 O    0.614
    16   8 O    2.038 --    15 C    1.716    14 C    0.110
    17   8 O    2.446 --    18 C    0.858    19 C    0.849    15 C    0.614
    18   6 C    3.830 --    37 H    0.979    38 H    0.979    36 H    0.979
                            17 O    0.858
    19   6 C    3.823 --    40 H    0.983    41 H    0.978    39 H    0.974
                            17 O    0.849
    20   6 C    3.924 --    21 O    1.595    14 C    1.195    22 C    0.944
    21   8 O    1.909 --    20 C    1.595    14 C    0.102
    22   6 C    3.885 --    23 O    1.634    24 N    1.159    20 C    0.944
    23   8 O    1.910 --    22 C    1.634    24 N    0.139
    24   7 N    3.433 --    22 C    1.159    12 C    1.105    42 H    0.887
                            23 O    0.139
    25   8 O    2.328 --     2 C    1.082     5 C    1.063
    26   1 H    0.997 --     1 C    0.965
    27   1 H    0.999 --     1 C    0.983
    28   1 H    0.997 --     1 C    0.962
    29   1 H    0.971 --     8 N    0.876
    30   1 H    1.002 --    10 C    0.985
    31   1 H    1.000 --    10 C    0.984
    32   1 H    1.008 --    10 C    0.979
    33   1 H    1.000 --    11 C    0.983
    34   1 H    1.002 --    11 C    0.985
    35   1 H    1.007 --    11 C    0.979
    36   1 H    0.999 --    18 C    0.979
    37   1 H    1.004 --    18 C    0.979
    38   1 H    1.001 --    18 C    0.979
    39   1 H    1.013 --    19 C    0.974
    40   1 H    0.997 --    19 C    0.983
    41   1 H    1.002 --    19 C    0.978
    42   1 H    0.935 --    24 N    0.887
 ---------------------------------------------------------------------------

           -------------------------------------------------
          | TOTAL ENERGY              -82.955999090183 Eh   |
          | GRADIENT NORM               0.000402956468 Eh/α |
          | HOMO-LUMO GAP               2.419547046572 eV   |
           -------------------------------------------------

 * finished run on 2023/06/21 at 17:58:22.478
