   * xtb version 6.5.1 (579679a) compiled by 'ehlert@majestix' on 2022-07-11
          program call               : /lustre/hpc/kemi/ree/PhD/git/ReactivityQM/dep/xtb-6.5.1/bin/xtb --gfn 1 /lustre/hpc/kemi/ree/PhD/git/ReactivityQM/calculations/RaltegravirCLI/reac01prodE04/conf08/RaltegravirCLI_reac01prodE04_conf08_gfn1.xyz --opt --vfukui --chrg -1 --uhf 0 --alpb DMSO

   ID    Z sym.   atoms
    1    6 C      1, 2, 5-7
    2    7 N      3, 4
    3    8 O      8, 10
    4   17 Cl     9
    5    1 H      11-16

      * Solvation model:               ALPB
        Solvent                        DMSO
        Solvent mass                       7.8130E+01 g/mol
          :  Hamiltonian                  GFN1-xTB          :
 * total energy  :   -34.1202487 Eh     change       -0.9755752E-11 Eh
 * total energy  :   -34.1277761 Eh     change       -0.7527415E-02 Eh
 * total energy  :   -34.1318379 Eh     change       -0.4061711E-02 Eh
 * total energy  :   -34.1329770 Eh     change       -0.1139135E-02 Eh
 * total energy  :   -34.1334868 Eh     change       -0.5098050E-03 Eh
 * total energy  :   -34.1337186 Eh     change       -0.2317841E-03 Eh
 * total energy  :   -34.1340441 Eh     change       -0.3254919E-03 Eh
 * total energy  :   -34.1350541 Eh     change       -0.1010006E-02 Eh
 * total energy  :   -34.1358958 Eh     change       -0.8417548E-03 Eh
 * total energy  :   -34.1374692 Eh     change       -0.1573403E-02 Eh
 * total energy  :   -34.1501704 Eh     change       -0.1205401E-03 Eh
 * total energy  :   -34.1503417 Eh     change       -0.1712835E-03 Eh
 * total energy  :   -34.1504173 Eh     change       -0.7565600E-04 Eh
 * total energy  :   -34.1504672 Eh     change       -0.4988660E-04 Eh
 * total energy  :   -34.1504914 Eh     change       -0.2413373E-04 Eh
 * total energy  :   -34.1505078 Eh     change       -0.1644402E-04 Eh
 * total energy  :   -34.1505157 Eh     change       -0.7888770E-05 Eh
 * total energy  :   -34.1505171 Eh     change       -0.1423975E-05 Eh
 * total energy  :   -34.1505181 Eh     change       -0.1036945E-05 Eh
   *** GEOMETRY OPTIMIZATION CONVERGED AFTER 35 ITERATIONS ***

 final structure:
================
16
 xtb: 6.5.1 (579679a)
C            2.74324499188674       -0.17582109859188       -0.14514528756625
C            1.27103314699473        0.03611083835093       -0.10246282463101
N            0.51598191692955        0.12865474776378       -1.12601536478190
N           -0.82505155414583        0.32568051807327       -0.64596566603308
C           -1.61578835273245       -0.82861957344770       -1.10448281790713
C           -0.69035997129851        0.38799988439865        0.79951088306389
C           -1.43147876011455        1.10678747032708        1.66842118495257
O           -1.39532018578495        1.35330579773954        2.86571089362003
Cl          -3.13548024856075        1.52610755068066        0.80980971468690
O            0.67990855893527        0.13992336405722        1.09849233835237
H            3.00091231756994       -1.08647985637854        0.39435542400075
H            3.25716005079335        0.65757197210157        0.33314088812277
H            3.07306586059982       -0.26076484763974       -1.17740852670697
H           -2.64146122909876       -0.69036099931829       -0.76790628193889
H           -1.58646226037705       -0.85282133949359       -2.19254377129918
H           -1.21990428159643       -1.76727342862300       -0.70751078593489

          :  Hamiltonian                  GFN1-xTB          :
         :: total energy             -34.150518145476 Eh    ::
         :: gradient norm              0.000759958115 Eh/a0 ::
         :: HOMO-LUMO gap              2.846496193665 eV    ::
         :: SCC energy               -34.421562644817 Eh    ::
         :: -> Gsolv                  -0.093385199931 Eh    ::
         :: repulsion energy           0.278612041470 Eh    ::

    * Orbital Energies and Occupations

         #    Occupation            Energy/Eh            Energy/eV
      -------------------------------------------------------------
         1        2.0000           -0.8466787             -23.0393
       ...           ...                  ...                  ...
        16        2.0000           -0.5183493             -14.1050
        17        2.0000           -0.5144954             -14.0001
        18        2.0000           -0.5125848             -13.9481
        19        2.0000           -0.5109167             -13.9028
        20        2.0000           -0.4936042             -13.4317
        21        2.0000           -0.4753626             -12.9353
        22        2.0000           -0.4443129             -12.0904
        23        2.0000           -0.4404512             -11.9853
        24        2.0000           -0.4345376             -11.8244
        25        2.0000           -0.4300410             -11.7020
        26        2.0000           -0.4173118             -11.3556
        27        2.0000           -0.4042354             -10.9998
        28        2.0000           -0.3259098              -8.8685 (HOMO)
        29                         -0.2213030              -6.0220 (LUMO)
        30                         -0.1876534              -5.1063
        31                         -0.1657781              -4.5111
        32                         -0.1272427              -3.4625
        33                         -0.0992289              -2.7002
        34                         -0.0607554              -1.6532
        35                         -0.0601259              -1.6361
        36                         -0.0475910              -1.2950
        37                         -0.0417372              -1.1357
        38                         -0.0143675              -0.3910
        39                          0.0199933               0.5440
       ...                                ...                  ...
        57                          0.8069712              21.9588
      -------------------------------------------------------------
                  HL-Gap            0.1046068 Eh            2.8465 eV

Wiberg/Mayer (AO) data.
largest (>0.10) Wiberg bond orders for each atom

     #   Z sym  total        # sym  WBO       # sym  WBO       # sym  WBO
 ---------------------------------------------------------------------------
     1   6 C    3.993 --     2 C    1.017    13 H    0.986    12 H    0.971
                            11 H    0.971
     2   6 C    3.903 --     3 N    1.726    10 O    1.072     1 C    1.017
     3   7 N    2.955 --     2 C    1.726     4 N    0.989    10 O    0.125
     4   7 N    3.082 --     3 N    0.989     6 C    0.969     5 C    0.960
     5   6 C    3.975 --    15 H    0.989    14 H    0.986    16 H    0.984
                             4 N    0.960
     6   6 C    3.716 --     7 C    1.572     4 N    0.969    10 O    0.889
                             8 O    0.186
     7   6 C    3.869 --     6 C    1.572     8 O    1.571     9 Cl   0.609
     8   8 O    1.926 --     7 C    1.571     6 C    0.186     9 Cl   0.119
     9  17 Cl   0.796 --     7 C    0.609     8 O    0.119
    10   8 O    2.184 --     2 C    1.072     6 C    0.889     3 N    0.125
    11   1 H    1.002 --     1 C    0.971
    12   1 H    1.002 --     1 C    0.971
    13   1 H    1.004 --     1 C    0.986
    14   1 H    1.034 --     5 C    0.986
    15   1 H    1.021 --     5 C    0.989
    16   1 H    1.014 --     5 C    0.984
 ---------------------------------------------------------------------------

           -------------------------------------------------
          | TOTAL ENERGY              -34.150518145476 Eh   |
          | GRADIENT NORM               0.000759958115 Eh/α |
          | HOMO-LUMO GAP               2.846496193665 eV   |
           -------------------------------------------------

 * finished run on 2023/06/20 at 14:53:30.472
