   * xtb version 6.5.1 (579679a) compiled by 'ehlert@majestix' on 2022-07-11
          program call               : /lustre/hpc/kemi/ree/PhD/git/ReactivityQM/dep/xtb-6.5.1/bin/xtb --gfn 1 /lustre/hpc/kemi/ree/PhD/git/ReactivityQM/calculations/RaltegravirCLI/reac01prodE01/conf08/RaltegravirCLI_reac01prodE01_conf08_gfn1.xyz --opt --vfukui --chrg -1 --uhf 0 --alpb DMSO

   ID    Z sym.   atoms
    1    6 C      1, 2, 5-7
    2    7 N      3, 4
    3    8 O      8, 10
    4   17 Cl     9
    5    1 H      11-16

      * Solvation model:               ALPB
        Solvent                        DMSO
        Solvent mass                       7.8130E+01 g/mol
          :  Hamiltonian                  GFN1-xTB          :
 * total energy  :   -34.1553503 Eh     change       -0.4995115E-11 Eh
 * total energy  :   -34.1682224 Eh     change       -0.1287216E-01 Eh
 * total energy  :   -34.1787111 Eh     change       -0.1048863E-01 Eh
 * total energy  :   -34.1818894 Eh     change       -0.3178363E-02 Eh
 * total energy  :   -34.1877924 Eh     change       -0.5903023E-02 Eh
 * total energy  :   -34.1926997 Eh     change       -0.4907306E-02 Eh
 * total energy  :   -34.1966600 Eh     change       -0.3960293E-02 Eh
 * total energy  :   -34.1986982 Eh     change       -0.2038167E-02 Eh
 * total energy  :   -34.2009898 Eh     change       -0.2291548E-02 Eh
 * total energy  :   -34.2021475 Eh     change       -0.1157732E-02 Eh
 * total energy  :   -34.2082068 Eh     change       -0.2786184E-04 Eh
 * total energy  :   -34.2082223 Eh     change       -0.1544447E-04 Eh
 * total energy  :   -34.2082372 Eh     change       -0.1490234E-04 Eh
 * total energy  :   -34.2082448 Eh     change       -0.7653364E-05 Eh
 * total energy  :   -34.2082520 Eh     change       -0.7183155E-05 Eh
 * total energy  :   -34.2082567 Eh     change       -0.4717578E-05 Eh
 * total energy  :   -34.2082673 Eh     change       -0.1063290E-04 Eh
 * total energy  :   -34.2082737 Eh     change       -0.6387666E-05 Eh
 * total energy  :   -34.2082765 Eh     change       -0.2719929E-05 Eh
   *** GEOMETRY OPTIMIZATION CONVERGED AFTER 49 ITERATIONS ***

 final structure:
================
16
 xtb: 6.5.1 (579679a)
C            3.24243597283756       -0.03813666463518       -0.25178617560989
C            1.79630748866692       -0.21242051022778        0.00297864556080
N            1.19355014884875       -1.27750686566387        0.44262926263757
N           -0.12402760979246       -0.96868611273917        0.53054117918504
C           -0.25379027154282        0.26532930334970        0.13755552653982
C           -1.50804084525316        1.04869723656722        0.06946686741059
C           -2.71776830143521        0.29723375984121        0.53511290192442
O           -1.52979840619804        2.19174122642699       -0.32644090314913
Cl          -2.83364999703488       -2.43663951153758       -1.91402676548599
O            0.94163742431280        0.79305271877066       -0.20919881341901
H            3.63332208134063        0.76696553407408        0.36931520573463
H            3.41023011392556        0.23071140354062       -1.29449122827796
H            3.76892392857118       -0.96128874131028       -0.02378594659653
H           -3.58294136566487        0.95470482963325        0.55415363098977
H           -2.53649151553873       -0.11662373506932        1.52518352412345
H           -2.89989984605844       -0.53713387102441       -0.14720591157013

          :  Hamiltonian                  GFN1-xTB          :
         :: total energy             -34.208276453948 Eh    ::
         :: gradient norm              0.000638609908 Eh/a0 ::
         :: HOMO-LUMO gap              3.355817248880 eV    ::
         :: SCC energy               -34.492811731013 Eh    ::
         :: -> Gsolv                  -0.111000063761 Eh    ::
         :: repulsion energy           0.291346695709 Eh    ::

    * Orbital Energies and Occupations

         #    Occupation            Energy/Eh            Energy/eV
      -------------------------------------------------------------
         1        2.0000           -0.8607390             -23.4219
       ...           ...                  ...                  ...
        16        2.0000           -0.5454526             -14.8425
        17        2.0000           -0.5413386             -14.7306
        18        2.0000           -0.5321063             -14.4794
        19        2.0000           -0.5214530             -14.1895
        20        2.0000           -0.5164920             -14.0545
        21        2.0000           -0.5031992             -13.6927
        22        2.0000           -0.4793868             -13.0448
        23        2.0000           -0.4742796             -12.9058
        24        2.0000           -0.4742672             -12.9055
        25        2.0000           -0.4723576             -12.8535
        26        2.0000           -0.4584746             -12.4757
        27        2.0000           -0.4537723             -12.3478
        28        2.0000           -0.4471665             -12.1680 (HOMO)
        29                         -0.3238425              -8.8122 (LUMO)
        30                         -0.2552608              -6.9460
        31                         -0.2092668              -5.6944
        32                         -0.1426082              -3.8806
        33                         -0.1228351              -3.3425
        34                         -0.0745847              -2.0296
        35                         -0.0741864              -2.0187
        36                         -0.0634513              -1.7266
        37                         -0.0477612              -1.2996
        38                          0.0347816               0.9465
        39                          0.0355961               0.9686
       ...                                ...                  ...
        57                          0.7122475              19.3812
      -------------------------------------------------------------
                  HL-Gap            0.1233240 Eh            3.3558 eV

Wiberg/Mayer (AO) data.
largest (>0.10) Wiberg bond orders for each atom

     #   Z sym  total        # sym  WBO       # sym  WBO       # sym  WBO
 ---------------------------------------------------------------------------
     1   6 C    3.987 --     2 C    1.031    13 H    0.983    12 H    0.963
                            11 H    0.963
     2   6 C    3.874 --     3 N    1.585    10 O    1.097     1 C    1.031
     3   7 N    2.983 --     2 C    1.585     4 N    1.220
     4   7 N    3.010 --     5 C    1.597     3 N    1.220
     5   6 C    3.871 --     4 N    1.597    10 O    1.048     6 C    1.013
     6   6 C    3.865 --     8 O    1.747     7 C    1.013     5 C    1.013
     7   6 C    3.990 --     6 C    1.013    14 H    0.983    15 H    0.964
                            16 H    0.940
     8   8 O    1.971 --     6 C    1.747
     9  17 Cl   0.039
    10   8 O    2.329 --     2 C    1.097     5 C    1.048
    11   1 H    0.997 --     1 C    0.963
    12   1 H    0.997 --     1 C    0.963
    13   1 H    0.999 --     1 C    0.983
    14   1 H    1.001 --     7 C    0.983
    15   1 H    1.003 --     7 C    0.964
    16   1 H    1.017 --     7 C    0.940
 ---------------------------------------------------------------------------

           -------------------------------------------------
          | TOTAL ENERGY              -34.208276453948 Eh   |
          | GRADIENT NORM               0.000638609908 Eh/α |
          | HOMO-LUMO GAP               3.355817248880 eV   |
           -------------------------------------------------

 * finished run on 2023/06/20 at 14:52:06.557
