   * xtb version 6.5.1 (579679a) compiled by 'ehlert@majestix' on 2022-07-11
          program call               : /lustre/hpc/kemi/ree/PhD/git/ReactivityQM/dep/xtb-6.5.1/bin/xtb --gfn 1 /lustre/hpc/kemi/ree/PhD/git/ReactivityQM/calculations/R01/reac01prodE01/conf08/R01_reac01prodE01_conf08_gfn1.xyz --opt --vfukui --chrg -1 --uhf 0 --alpb DMSO

   ID    Z sym.   atoms
    1    6 C      1, 3, 4, 6, 9, 10
    2    8 O      2, 5, 11
    3    7 N      7, 8
    4    1 H      12-20

      * Solvation model:               ALPB
        Solvent                        DMSO
        Solvent mass                       7.8130E+01 g/mol
          :  Hamiltonian                  GFN1-xTB          :
 * total energy  :   -38.3301270 Eh     change       -0.3687717E-11 Eh
 * total energy  :   -38.3384215 Eh     change       -0.8294545E-02 Eh
 * total energy  :   -38.3418566 Eh     change       -0.3435069E-02 Eh
 * total energy  :   -38.3425705 Eh     change       -0.7139003E-03 Eh
 * total energy  :   -38.3428312 Eh     change       -0.2606812E-03 Eh
 * total energy  :   -38.3429224 Eh     change       -0.9119837E-04 Eh
 * total energy  :   -38.3429815 Eh     change       -0.5912092E-04 Eh
 * total energy  :   -38.3430031 Eh     change       -0.2163843E-04 Eh
 * total energy  :   -38.3430137 Eh     change       -0.1058930E-04 Eh
 * total energy  :   -38.3430221 Eh     change       -0.8386547E-05 Eh
 * total energy  :   -38.3436050 Eh     change       -0.1565804E-04 Eh
 * total energy  :   -38.3436336 Eh     change       -0.2856385E-04 Eh
 * total energy  :   -38.3436345 Eh     change       -0.9061188E-06 Eh
 * total energy  :   -38.3436615 Eh     change       -0.2697355E-04 Eh
 * total energy  :   -38.3436670 Eh     change       -0.5551280E-05 Eh
 * total energy  :   -38.3436771 Eh     change       -0.1011255E-04 Eh
 * total energy  :   -38.3436807 Eh     change       -0.3516107E-05 Eh
 * total energy  :   -38.3436857 Eh     change       -0.5070881E-05 Eh
 * total energy  :   -38.3436887 Eh     change       -0.3009814E-05 Eh
   *** GEOMETRY OPTIMIZATION CONVERGED AFTER 38 ITERATIONS ***

 final structure:
================
20
 xtb: 6.5.1 (579679a)
C           -1.49894729576804        2.09680530629066       -0.04168239327043
O           -1.79022714110432        0.80612109228322        0.43690756534798
C           -1.44588040216032       -0.30385550836631       -0.51702272540331
C           -2.31051196696059       -1.48814535536186        0.02257617224629
O           -1.58690769701628       -0.02467018047381       -1.76535677558239
C            0.04816548532757       -0.67530715026777       -0.16325254642426
N            0.54144127431909       -1.87269485013142       -0.08062642031307
N            1.90620704436967       -1.73734291735447        0.09624444490179
C            2.14294400475692       -0.46902027129415        0.10266581728027
C            3.45536350005931        0.20337638707258        0.26312904030869
O            1.02091731246603        0.25858107451194       -0.05928088719583
H           -0.43211043037127        2.34553436392548        0.07121392770721
H           -1.76845259403399        2.20508708935290       -1.10340855397266
H           -2.08409437638316        2.81487648854807        0.54125565809958
H           -2.16392543882357       -1.62035545188515        1.09279574827859
H           -3.35650761834143       -1.26485047846998       -0.17746828626632
H           -2.02889825538024       -2.39954579113912       -0.50173046195890
H            3.65657691441230        0.84818486890978       -0.59218377580587
H            4.23899927485259       -0.54533534213894        0.34329736030802
H            3.45584740577971        0.82255662598834        1.15923509171450

          :  Hamiltonian                  GFN1-xTB          :
         :: total energy             -38.343688735956 Eh    ::
         :: gradient norm              0.000692963190 Eh/a0 ::
         :: HOMO-LUMO gap              3.321885267159 eV    ::
         :: SCC energy               -38.653268427890 Eh    ::
         :: -> Gsolv                  -0.103030059020 Eh    ::
         :: repulsion energy           0.318092469961 Eh    ::

    * Orbital Energies and Occupations

         #    Occupation            Energy/Eh            Energy/eV
      -------------------------------------------------------------
         1        2.0000           -0.8202481             -22.3201
       ...           ...                  ...                  ...
        19        2.0000           -0.5070727             -13.7982
        20        2.0000           -0.5027156             -13.6796
        21        2.0000           -0.4803298             -13.0704
        22        2.0000           -0.4730014             -12.8710
        23        2.0000           -0.4624993             -12.5852
        24        2.0000           -0.4615224             -12.5587
        25        2.0000           -0.4455412             -12.1238
        26        2.0000           -0.4388073             -11.9406
        27        2.0000           -0.4175372             -11.3618
        28        2.0000           -0.4142277             -11.2717
        29        2.0000           -0.4040794             -10.9956
        30        2.0000           -0.3681405             -10.0176
        31        2.0000           -0.3498193              -9.5191 (HOMO)
        32                         -0.2277423              -6.1972 (LUMO)
        33                         -0.2130819              -5.7983
        34                         -0.1301538              -3.5417
        35                         -0.0992714              -2.7013
        36                         -0.0845543              -2.3008
        37                         -0.0629973              -1.7142
        38                         -0.0620018              -1.6872
        39                         -0.0361465              -0.9836
        40                         -0.0327151              -0.8902
        41                         -0.0282607              -0.7690
        42                         -0.0254765              -0.6933
       ...                                ...                  ...
        62                          0.6064287              16.5018
      -------------------------------------------------------------
                  HL-Gap            0.1220770 Eh            3.3219 eV

Wiberg/Mayer (AO) data.
largest (>0.10) Wiberg bond orders for each atom

     #   Z sym  total        # sym  WBO       # sym  WBO       # sym  WBO
 ---------------------------------------------------------------------------
     1   6 C    3.930 --    14 H    0.985    12 H    0.980    13 H    0.975
                             2 O    0.969
     2   8 O    1.946 --     1 C    0.969     3 C    0.799
     3   6 C    3.901 --     5 O    1.249     4 C    0.938     6 C    0.866
                             2 O    0.799
     4   6 C    3.993 --    15 H    0.990    17 H    0.988    16 H    0.987
                             3 C    0.938
     5   8 O    1.552 --     3 C    1.249
     6   6 C    3.804 --     7 N    1.651    11 O    1.053     3 C    0.866
     7   7 N    2.965 --     6 C    1.651     8 N    1.149
     8   7 N    2.976 --     9 C    1.655     7 N    1.149
     9   6 C    3.888 --     8 N    1.655    11 O    1.065    10 C    1.024
    10   6 C    3.993 --     9 C    1.024    19 H    0.985    18 H    0.971
                            20 H    0.969
    11   8 O    2.306 --     9 C    1.065     6 C    1.053
    12   1 H    1.025 --     1 C    0.980
    13   1 H    1.032 --     1 C    0.975
    14   1 H    1.022 --     1 C    0.985
    15   1 H    1.014 --     4 C    0.990
    16   1 H    1.017 --     4 C    0.987
    17   1 H    1.020 --     4 C    0.988
    18   1 H    1.002 --    10 C    0.971
    19   1 H    1.003 --    10 C    0.985
    20   1 H    1.002 --    10 C    0.969
 ---------------------------------------------------------------------------

           -------------------------------------------------
          | TOTAL ENERGY              -38.343688735956 Eh   |
          | GRADIENT NORM               0.000692963190 Eh/α |
          | HOMO-LUMO GAP               3.321885267159 eV   |
           -------------------------------------------------

 * finished run on 2023/06/20 at 14:52:37.285
