   * xtb version 6.5.1 (579679a) compiled by 'ehlert@majestix' on 2022-07-11
          program call               : /lustre/hpc/kemi/ree/PhD/git/ReactivityQM/dep/xtb-6.5.1/bin/xtb --gfn 1 /lustre/hpc/kemi/ree/PhD/git/ReactivityQM/calculations/RaltegravirCLI/reac02prodE02/conf07/RaltegravirCLI_reac02prodE02_conf07_gfn1.xyz --opt --vfukui --chrg -1 --uhf 0 --alpb DMSO

   ID    Z sym.   atoms
    1    6 C      1, 3, 5, 7, 8, 11-15, 17, 18, 20-24
    2    7 N      2, 10, 19, 25
    3    8 O      4, 6, 9
    4    9 F      16
    5    1 H      26-47

      * Solvation model:               ALPB
        Solvent                        DMSO
        Solvent mass                       7.8130E+01 g/mol
          :  Hamiltonian                  GFN1-xTB          :
 * total energy  :   -80.2106974 Eh     change       -0.3907985E-11 Eh
 * total energy  :   -80.2186763 Eh     change       -0.7978943E-02 Eh
 * total energy  :   -80.2206189 Eh     change       -0.1942584E-02 Eh
 * total energy  :   -80.2209396 Eh     change       -0.3207260E-03 Eh
 * total energy  :   -80.2211985 Eh     change       -0.2588499E-03 Eh
 * total energy  :   -80.2212889 Eh     change       -0.9045065E-04 Eh
 * total energy  :   -80.2213754 Eh     change       -0.8653046E-04 Eh
 * total energy  :   -80.2214385 Eh     change       -0.6308970E-04 Eh
 * total energy  :   -80.2214906 Eh     change       -0.5204156E-04 Eh
 * total energy  :   -80.2215442 Eh     change       -0.5367658E-04 Eh
 * total energy  :   -80.2225717 Eh     change       -0.1026665E-04 Eh
 * total energy  :   -80.2225824 Eh     change       -0.1069928E-04 Eh
 * total energy  :   -80.2225918 Eh     change       -0.9371709E-05 Eh
 * total energy  :   -80.2225993 Eh     change       -0.7568124E-05 Eh
 * total energy  :   -80.2226061 Eh     change       -0.6759359E-05 Eh
 * total energy  :   -80.2226125 Eh     change       -0.6453273E-05 Eh
 * total energy  :   -80.2226189 Eh     change       -0.6380393E-05 Eh
 * total energy  :   -80.2226266 Eh     change       -0.7648778E-05 Eh
 * total energy  :   -80.2226301 Eh     change       -0.3522889E-05 Eh
   *** GEOMETRY OPTIMIZATION CONVERGED AFTER 44 ITERATIONS ***

 final structure:
================
47
 xtb: 6.5.1 (579679a)
C           -4.15870843209118       -1.23394210712017       -0.42202942304207
N           -2.79514453085150       -0.75146336562539       -0.64610572033737
C           -2.01836281594485       -1.50566612446776       -1.52232643893426
O           -2.52926623591171       -2.37295318313125       -2.27053589825756
C           -0.64182225549874       -1.16981162148226       -1.59503825401376
O            0.09961698117674       -1.88839119550281       -2.55244804295577
C           -0.13219090491958       -0.09226439002392       -0.87571195839422
C            1.23597116147579        0.48962420451081       -1.07439916545229
O            1.57090448436997        1.57336210200312       -0.59397976098181
N            2.10214702851196       -0.22676253927512       -1.83865156812339
C            3.49798163927110        0.17256705745299       -1.93245363432123
C            4.28589438965106       -0.39202758057914       -0.76818765142301
C            4.31460600922468        0.28319036649816        0.45086418434260
C            5.00080500257821       -0.24447759769074        1.53532770262300
C            5.64957320826506       -1.45550966725396        1.37426819282977
F            6.31689726384376       -1.97532084924348        2.42131628372966
C            5.64395797827396       -2.15250477113478        0.18028814161615
C            4.95236325285559       -1.60851013409230       -0.89391733397191
N           -0.84752785408350        0.54165164191188        0.03969363048943
C           -2.12105923792063       -0.01797769051602        0.44877484190327
C           -1.84144720726547       -0.99188422132594        1.62800092406381
C           -2.97134781481085        1.21917856244907        0.90552213395404
C           -3.23261100798630        2.10978675542232       -0.31591455449173
C           -2.19661512165950        2.03358431978584        1.95845637772410
N           -4.26133682816433        0.81953803647092        1.47466735705662
H           -4.88158874429925       -0.42382625921203       -0.53227628508530
H           -4.27381202969753       -1.66492025453730        0.57577333335446
H           -4.38404452894233       -2.00378684961503       -1.16378608711142
H           -0.52509917864065       -2.53355811901287       -2.92894444307701
H            1.89425750289187       -1.18239389791798       -2.08697263432770
H            3.54536731994940        1.26661443749025       -1.92824187391284
H            3.89939882523582       -0.19798158208378       -2.87907428589894
H            3.79635464651657        1.23091910415065        0.55216359815047
H            5.03653777059580        0.27010912392402        2.48683284177521
H            6.16897267866739       -3.09440995218379        0.09398630744791
H            4.94012109036610       -2.13724896653215       -1.84006981379989
H           -1.35722660050049       -1.89004594013769        1.24439558588755
H           -1.16824295832611       -0.51498320569815        2.33797274729610
H           -2.75294429858879       -1.28056712106909        2.14638878637877
H           -2.28188356725657        2.39535358152002       -0.76924460296745
H           -3.76646843269010        3.01303824970006       -0.02092821807593
H           -3.82974761410153        1.58241841879851       -1.06009594367135
H           -1.19893435625446        2.27896608001793        1.59146312494459
H           -2.10339761491167        1.47301731459111        2.88792516453967
H           -2.73312689599252        2.95767369308559        2.17381705302624
H           -4.82801189920554        1.64441465941081        1.61696949156367
H           -4.11976126720935        0.40387147727468        2.38646878793741

          :  Hamiltonian                  GFN1-xTB          :
         :: total energy             -80.222630086806 Eh    ::
         :: gradient norm              0.000371212159 Eh/a0 ::
         :: HOMO-LUMO gap              1.208679067018 eV    ::
         :: SCC energy               -81.075981102205 Eh    ::
         :: -> Gsolv                  -0.103049919786 Eh    ::
         :: repulsion energy           0.885076472151 Eh    ::

    * Orbital Energies and Occupations

         #    Occupation            Energy/Eh            Energy/eV
      -------------------------------------------------------------
         1        2.0000           -0.8577143             -23.3396
       ...           ...                  ...                  ...
        56        2.0000           -0.4646749             -12.6444
        57        2.0000           -0.4522073             -12.3052
        58        2.0000           -0.4437162             -12.0741
        59        2.0000           -0.4418356             -12.0230
        60        2.0000           -0.4319880             -11.7550
        61        2.0000           -0.4210343             -11.4569
        62        2.0000           -0.4155274             -11.3071
        63        2.0000           -0.4067667             -11.0687
        64        2.0000           -0.3929484             -10.6927
        65        2.0000           -0.3869069             -10.5283
        66        2.0000           -0.3754065             -10.2153
        67        2.0000           -0.3643920              -9.9156
        68        2.0000           -0.3101087              -8.4385 (HOMO)
        69                         -0.2656905              -7.2298 (LUMO)
        70                         -0.2591983              -7.0531
        71                         -0.2499159              -6.8006
        72                         -0.1784767              -4.8566
        73                         -0.1376495              -3.7456
        74                         -0.1113510              -3.0300
        75                         -0.1097266              -2.9858
        76                         -0.1015562              -2.7635
        77                         -0.0997998              -2.7157
        78                         -0.0973116              -2.6480
        79                         -0.0949547              -2.5838
       ...                                ...                  ...
       144                          0.7243085              19.7094
      -------------------------------------------------------------
                  HL-Gap            0.0444181 Eh            1.2087 eV

Wiberg/Mayer (AO) data.
largest (>0.10) Wiberg bond orders for each atom

     #   Z sym  total        # sym  WBO       # sym  WBO       # sym  WBO
 ---------------------------------------------------------------------------
     1   6 C    3.965 --    26 H    0.984    27 H    0.982    28 H    0.977
                             2 N    0.959
     2   7 N    3.260 --     3 C    1.112     1 C    0.959    20 C    0.918
                             4 O    0.106
     3   6 C    3.922 --     4 O    1.434     5 C    1.210     2 N    1.112
     4   8 O    1.794 --     3 C    1.434     2 N    0.106
     5   6 C    3.846 --     7 C    1.336     3 C    1.210     6 O    0.954
                            19 N    0.167
     6   8 O    1.949 --     5 C    0.954    29 H    0.838
     7   6 C    3.974 --    19 N    1.437     5 C    1.336     8 C    0.998
     8   6 C    3.881 --     9 O    1.563    10 N    1.227     7 C    0.998
     9   8 O    1.856 --     8 C    1.563    10 N    0.150
    10   7 N    3.310 --     8 C    1.227    11 C    0.953    30 H    0.890
                             9 O    0.150
    11   6 C    3.962 --    12 C    0.993    32 H    0.978    31 H    0.972
                            10 N    0.953
    12   6 C    3.988 --    18 C    1.421    13 C    1.415    11 C    0.993
    13   6 C    3.992 --    14 C    1.445    12 C    1.415    33 H    0.969
                            17 C    0.111
    14   6 C    3.992 --    13 C    1.445    15 C    1.400    34 H    0.970
                            18 C    0.110
    15   6 C    3.858 --    17 C    1.404    14 C    1.400    16 F    0.918
    16   9 F    1.045 --    15 C    0.918
    17   6 C    3.992 --    18 C    1.440    15 C    1.404    35 H    0.970
                            13 C    0.111
    18   6 C    3.994 --    17 C    1.440    12 C    1.421    36 H    0.972
                            14 C    0.110
    19   7 N    2.939 --     7 C    1.437    20 C    1.003     5 C    0.167
    20   6 C    3.941 --    19 N    1.003    21 C    0.970    22 C    0.952
                             2 N    0.918
    21   6 C    3.995 --    37 H    0.986    38 H    0.983    39 H    0.982
                            20 C    0.970
    22   6 C    3.959 --    23 C    1.002    24 C    0.993    25 N    0.977
                            20 C    0.952
    23   6 C    3.997 --    22 C    1.002    41 H    0.987    42 H    0.983
                            40 H    0.983
    24   6 C    3.996 --    22 C    0.993    45 H    0.986    44 H    0.984
                            43 H    0.980
    25   7 N    2.980 --    22 C    0.977    47 H    0.949    46 H    0.948
    26   1 H    1.037 --     1 C    0.984
    27   1 H    1.017 --     1 C    0.982
    28   1 H    1.022 --     1 C    0.977
    29   1 H    0.888 --     6 O    0.838
    30   1 H    0.959 --    10 N    0.890
    31   1 H    1.015 --    11 C    0.972
    32   1 H    1.006 --    11 C    0.978
    33   1 H    1.015 --    13 C    0.969
    34   1 H    0.999 --    14 C    0.970
    35   1 H    0.999 --    17 C    0.970
    36   1 H    1.000 --    18 C    0.972
    37   1 H    1.008 --    21 C    0.986
    38   1 H    1.016 --    21 C    0.983
    39   1 H    1.005 --    21 C    0.982
    40   1 H    1.021 --    23 C    0.983
    41   1 H    1.005 --    23 C    0.987
    42   1 H    1.012 --    23 C    0.983
    43   1 H    1.030 --    24 C    0.980
    44   1 H    1.009 --    24 C    0.984
    45   1 H    1.007 --    24 C    0.986
    46   1 H    0.966 --    25 N    0.948
    47   1 H    0.970 --    25 N    0.949
 ---------------------------------------------------------------------------

           -------------------------------------------------
          | TOTAL ENERGY              -80.222630086806 Eh   |
          | GRADIENT NORM               0.000371212159 Eh/α |
          | HOMO-LUMO GAP               1.208679067018 eV   |
           -------------------------------------------------

 * finished run on 2023/06/20 at 14:56:30.229
