   * xtb version 6.5.1 (579679a) compiled by 'ehlert@majestix' on 2022-07-11
          program call               : /lustre/hpc/kemi/ree/PhD/git/ReactivityQM/dep/xtb-6.5.1/bin/xtb --gfn 1 /lustre/hpc/kemi/ree/PhD/git/ReactivityQM/calculations/R03/reac01prodN06/conf08/R03_reac01prodN06_conf08_gfn1.xyz --opt --vfukui --chrg 1 --uhf 0 --alpb DMSO

   ID    Z sym.   atoms
    1    6 C      1, 3-7, 9, 10
    2    9 F      2
    3    7 N      8
    4    1 H      11-21

      * Solvation model:               ALPB
        Solvent                        DMSO
        Solvent mass                       7.8130E+01 g/mol
          :  Hamiltonian                  GFN1-xTB          :
 * total energy  :   -30.7178959 Eh     change       -0.3950618E-11 Eh
 * total energy  :   -30.7293396 Eh     change       -0.1144366E-01 Eh
 * total energy  :   -30.7327097 Eh     change       -0.3370104E-02 Eh
 * total energy  :   -30.7331049 Eh     change       -0.3951888E-03 Eh
 * total energy  :   -30.7333440 Eh     change       -0.2391324E-03 Eh
 * total energy  :   -30.7335363 Eh     change       -0.1922679E-03 Eh
 * total energy  :   -30.7337021 Eh     change       -0.1658216E-03 Eh
 * total energy  :   -30.7338745 Eh     change       -0.1723762E-03 Eh
 * total energy  :   -30.7340052 Eh     change       -0.1307026E-03 Eh
 * total energy  :   -30.7340811 Eh     change       -0.7592997E-04 Eh
 * total energy  :   -30.7346140 Eh     change       -0.7474936E-05 Eh
 * total energy  :   -30.7346234 Eh     change       -0.9388045E-05 Eh
 * total energy  :   -30.7346277 Eh     change       -0.4259002E-05 Eh
 * total energy  :   -30.7346369 Eh     change       -0.9222858E-05 Eh
 * total energy  :   -30.7342653 Eh     change        0.3716431E-03 Eh
 * total energy  :   -30.7346551 Eh     change       -0.3898525E-03 Eh
 * total energy  :   -30.7346743 Eh     change       -0.1919730E-04 Eh
 * total energy  :   -30.7346824 Eh     change       -0.8104962E-05 Eh
 * total energy  :   -30.7346863 Eh     change       -0.3869747E-05 Eh
   *** GEOMETRY OPTIMIZATION CONVERGED AFTER 41 ITERATIONS ***

 final structure:
================
21
 xtb: 6.5.1 (579679a)
C            3.92365046123505       -0.06039447854186        0.37553513523001
F            2.82231577206445        0.13056016292816       -0.53136200705389
C            1.38536040184472        0.12099800500206       -0.21511863851506
C            0.68191639922608       -0.97144825633935       -0.65303846490391
C           -0.68150007152946       -0.95691142818076       -0.38736041894205
C           -1.26889325713728        0.11149912890828        0.29082935001020
C           -2.74486590628333        0.08899292245640        0.59353195407380
N           -3.46114890799170       -0.71728044091022       -0.38860824758256
C           -0.48199153669165        1.18583185708786        0.70640183887946
C            0.88532397190905        1.20709965277578        0.45487200699648
H            3.71414273826195       -0.97770467311245        0.91655616753866
H            4.78568114823477       -0.13403206521200       -0.28013272618828
H            3.94314357228515        0.81676120350946        1.01485114166053
H            1.16105531870054       -1.78730343449282       -1.17537003992717
H           -1.30160293050551       -1.78511261215670       -0.71176561872555
H           -2.88288044567737       -0.36874475940295        1.57955061735274
H           -3.13259479171311        1.11571172217971        0.64396100605757
H           -4.40083146473599       -0.87378363321225       -0.05143340862590
H           -3.52715443069304       -0.19678634037934       -1.25304479433282
H           -0.93094249559784        2.02066888727711        1.23063039438884
H            1.51181845478968        2.03137857981108        0.76376275260930

          :  Hamiltonian                  GFN1-xTB          :
         :: total energy             -30.734686295520 Eh    ::
         :: gradient norm              0.000607605469 Eh/a0 ::
         :: HOMO-LUMO gap              2.900095055330 eV    ::
         :: SCC energy               -31.143869043751 Eh    ::
         :: -> Gsolv                  -0.082600338169 Eh    ::
         :: repulsion energy           0.418575635232 Eh    ::

    * Orbital Energies and Occupations

         #    Occupation            Energy/Eh            Energy/eV
      -------------------------------------------------------------
         1        2.0000           -1.0072252             -27.4080
       ...           ...                  ...                  ...
        15        2.0000           -0.5904831             -16.0679
        16        2.0000           -0.5832307             -15.8705
        17        2.0000           -0.5779161             -15.7259
        18        2.0000           -0.5728246             -15.5874
        19        2.0000           -0.5692018             -15.4888
        20        2.0000           -0.5585346             -15.1985
        21        2.0000           -0.5379928             -14.6395
        22        2.0000           -0.5262446             -14.3198
        23        2.0000           -0.5103852             -13.8883
        24        2.0000           -0.5033251             -13.6962
        25        2.0000           -0.4875251             -13.2662
        26        2.0000           -0.4759095             -12.9502
        27        2.0000           -0.4171966             -11.3525 (HOMO)
        28                         -0.3106201              -8.4524 (LUMO)
        29                         -0.3094877              -8.4216
        30                         -0.2584259              -7.0321
        31                         -0.1886731              -5.1341
        32                         -0.1813020              -4.9335
        33                         -0.1442472              -3.9252
        34                         -0.1407591              -3.8302
        35                         -0.1307922              -3.5590
        36                         -0.1286305              -3.5002
        37                         -0.1218450              -3.3156
        38                         -0.1138511              -3.0980
       ...                                ...                  ...
        62                          0.6148821              16.7318
      -------------------------------------------------------------
                  HL-Gap            0.1065765 Eh            2.9001 eV

Wiberg/Mayer (AO) data.
largest (>0.10) Wiberg bond orders for each atom

     #   Z sym  total        # sym  WBO       # sym  WBO       # sym  WBO
 ---------------------------------------------------------------------------
     1   6 C    3.679 --    13 H    0.980    11 H    0.980    12 H    0.974
                             2 F    0.719
     2   9 F    1.437 --     1 C    0.719     3 C    0.630
     3   6 C    3.685 --    10 C    1.432     4 C    1.429     2 F    0.630
     4   6 C    3.984 --     3 C    1.429     5 C    1.427    14 H    0.962
                             9 C    0.108
     5   6 C    3.986 --     4 C    1.427     6 C    1.409    15 H    0.963
                            10 C    0.109
     6   6 C    3.980 --     9 C    1.412     5 C    1.409     7 C    1.010
     7   6 C    3.980 --     6 C    1.010     8 N    1.001    17 H    0.967
                            16 H    0.956
     8   7 N    2.951 --     7 C    1.001    19 H    0.945    18 H    0.938
     9   6 C    3.988 --    10 C    1.426     6 C    1.412    20 H    0.966
                             4 C    0.108
    10   6 C    3.985 --     3 C    1.432     9 C    1.426    21 H    0.961
                             5 C    0.109
    11   1 H    0.993 --     1 C    0.980
    12   1 H    0.992 --     1 C    0.974
    13   1 H    0.993 --     1 C    0.980
    14   1 H    0.991 --     4 C    0.962
    15   1 H    1.012 --     5 C    0.963
    16   1 H    1.007 --     7 C    0.956
    17   1 H    1.000 --     7 C    0.967
    18   1 H    0.952 --     8 N    0.938
    19   1 H    0.956 --     8 N    0.945
    20   1 H    0.995 --     9 C    0.966
    21   1 H    0.990 --    10 C    0.961
 ---------------------------------------------------------------------------

           -------------------------------------------------
          | TOTAL ENERGY              -30.734686295520 Eh   |
          | GRADIENT NORM               0.000607605469 Eh/α |
          | HOMO-LUMO GAP               2.900095055330 eV   |
           -------------------------------------------------

 * finished run on 2023/06/20 at 15:14:58.789
