   * xtb version 6.5.1 (579679a) compiled by 'ehlert@majestix' on 2022-07-11
          program call               : /lustre/hpc/kemi/ree/PhD/git/ReactivityQM/dep/xtb-6.5.1/bin/xtb --gfn 1 /lustre/hpc/kemi/ree/PhD/git/ReactivityQM/calculations/R03/reac01prodN03/conf09/R03_reac01prodN03_conf09_gfn1.xyz --opt --vfukui --chrg 1 --uhf 0 --alpb DMSO

   ID    Z sym.   atoms
    1    6 C      1-4, 6-9
    2    9 F      5
    3    7 N      10
    4    1 H      11-21

      * Solvation model:               ALPB
        Solvent                        DMSO
        Solvent mass                       7.8130E+01 g/mol
          :  Hamiltonian                  GFN1-xTB          :
 * total energy  :   -30.7612171 Eh     change       -0.1009326E-10 Eh
 * total energy  :   -30.7667536 Eh     change       -0.5536427E-02 Eh
 * total energy  :   -30.7683700 Eh     change       -0.1616468E-02 Eh
 * total energy  :   -30.7685931 Eh     change       -0.2230954E-03 Eh
 * total energy  :   -30.7688023 Eh     change       -0.2091431E-03 Eh
 * total energy  :   -30.7689207 Eh     change       -0.1184251E-03 Eh
 * total energy  :   -30.7690774 Eh     change       -0.1567208E-03 Eh
 * total energy  :   -30.7692211 Eh     change       -0.1436503E-03 Eh
 * total energy  :   -30.7693289 Eh     change       -0.1078192E-03 Eh
 * total energy  :   -30.7693646 Eh     change       -0.3569288E-04 Eh
 * total energy  :   -30.7694441 Eh     change       -0.7600087E-05 Eh
 * total energy  :   -30.7694508 Eh     change       -0.6680097E-05 Eh
 * total energy  :   -30.7694567 Eh     change       -0.5901450E-05 Eh
 * total energy  :   -30.7694624 Eh     change       -0.5699837E-05 Eh
 * total energy  :   -30.7694710 Eh     change       -0.8599497E-05 Eh
 * total energy  :   -30.7694797 Eh     change       -0.8707642E-05 Eh
 * total energy  :   -30.7694871 Eh     change       -0.7454485E-05 Eh
 * total energy  :   -30.7694855 Eh     change        0.1628190E-05 Eh
 * total energy  :   -30.7694902 Eh     change       -0.4743915E-05 Eh
   *** GEOMETRY OPTIMIZATION CONVERGED AFTER 24 ITERATIONS ***

 final structure:
================
21
 xtb: 6.5.1 (579679a)
C           -0.06116089334962       -2.12877714996201        0.09967634471840
C            0.26637900259243       -0.75549225224381        0.76237132341322
C            1.72947728898466       -0.65931818353012        0.94124520790419
C            2.42208950455828        0.38605619036243        0.42309874223238
F            3.73930656320098        0.44851636047482        0.57474282944513
C            1.79319919828007        1.43504039349571       -0.27069013890327
C            0.42076958547637        1.41600803884486       -0.44588304116781
C           -0.36179427970515        0.38232216306511        0.05001526381672
C           -1.83846881621675        0.42964290780786       -0.09798124712239
N           -2.26220335024891        1.41536116992713       -1.06600249736930
H            0.40240942854138       -2.92414979271424        0.67939681702415
H           -1.13712943695486       -2.27920682883958        0.08518656236538
H            0.32697229242416       -2.14397374238647       -0.91583106814254
H           -0.19182725365135       -0.82533374845289        1.76215905769720
H            2.23185922266025       -1.45846395708779        1.47224689533372
H            2.39368483229253        2.25362081718280       -0.65040881557001
H           -0.06783538098970        2.23448032123318       -0.96313852102064
H           -2.25821930157240        0.69296918947586        0.88112513284089
H           -2.23234190304572       -0.56837629561846       -0.33724923808681
H           -3.25821144197326        1.55621963513400       -0.98345320095011
H           -2.05695386130359        1.09285276383181       -2.00062540845843

          :  Hamiltonian                  GFN1-xTB          :
         :: total energy             -30.769490248318 Eh    ::
         :: gradient norm              0.000395461132 Eh/a0 ::
         :: HOMO-LUMO gap              0.703598648284 eV    ::
         :: SCC energy               -31.162270109186 Eh    ::
         :: -> Gsolv                  -0.086465042377 Eh    ::
         :: repulsion energy           0.403000339787 Eh    ::

    * Orbital Energies and Occupations

         #    Occupation            Energy/Eh            Energy/eV
      -------------------------------------------------------------
         1        2.0000           -0.9124772             -24.8298
       ...           ...                  ...                  ...
        15        2.0000           -0.5995920             -16.3157
        16        2.0000           -0.5931925             -16.1416
        17        2.0000           -0.5830961             -15.8669
        18        2.0000           -0.5731377             -15.5959
        19        2.0000           -0.5641850             -15.3523
        20        2.0000           -0.5593422             -15.2205
        21        2.0000           -0.5503485             -14.9757
        22        2.0000           -0.5388043             -14.6616
        23        2.0000           -0.5376512             -14.6302
        24        2.0000           -0.5298523             -14.4180
        25        2.0000           -0.5223664             -14.2143
        26        2.0000           -0.4966108             -13.5135
        27        2.0000           -0.4408814             -11.9970 (HOMO)
        28        0.0000           -0.4150246             -11.2934 (LUMO)
        29                         -0.3217194              -8.7544
        30                         -0.2392936              -6.5115
        31                         -0.1637529              -4.4559
        32                         -0.1523449              -4.1455
        33                         -0.1453991              -3.9565
        34                         -0.1377848              -3.7493
        35                         -0.1265864              -3.4446
        36                         -0.1186769              -3.2294
        37                         -0.1075541              -2.9267
        38                         -0.1035852              -2.8187
       ...                                ...                  ...
        62                          0.5421709              14.7532
      -------------------------------------------------------------
                  HL-Gap            0.0258568 Eh            0.7036 eV

Wiberg/Mayer (AO) data.
largest (>0.10) Wiberg bond orders for each atom

     #   Z sym  total        # sym  WBO       # sym  WBO       # sym  WBO
 ---------------------------------------------------------------------------
     1   6 C    3.966 --    13 H    0.985    11 H    0.981    12 H    0.975
                             2 C    0.895
     2   6 C    3.992 --     3 C    1.078     8 C    1.077     1 C    0.895
                            14 H    0.873
     3   6 C    3.971 --     4 C    1.560     2 C    1.078    15 H    0.960
     4   6 C    3.883 --     3 C    1.560     6 C    1.270     5 F    0.963
     5   9 F    1.104 --     4 C    0.963
     6   6 C    3.959 --     7 C    1.454     4 C    1.270    16 H    0.961
     7   6 C    3.984 --     6 C    1.454     8 C    1.435    17 H    0.956
     8   6 C    3.931 --     7 C    1.435     2 C    1.077     9 C    1.064
     9   6 C    3.982 --     8 C    1.064    10 N    1.016    19 H    0.921
                            18 H    0.913
    10   7 N    3.009 --     9 C    1.016    21 H    0.930    20 H    0.925
    11   1 H    0.993 --     1 C    0.981
    12   1 H    0.999 --     1 C    0.975
    13   1 H    0.995 --     1 C    0.985
    14   1 H    0.985 --     2 C    0.873
    15   1 H    0.986 --     3 C    0.960
    16   1 H    0.988 --     6 C    0.961
    17   1 H    1.006 --     7 C    0.956
    18   1 H    0.996 --     9 C    0.913
    19   1 H    0.994 --     9 C    0.921
    20   1 H    0.940 --    10 N    0.925
    21   1 H    0.945 --    10 N    0.930
 ---------------------------------------------------------------------------

           -------------------------------------------------
          | TOTAL ENERGY              -30.769490248318 Eh   |
          | GRADIENT NORM               0.000395461132 Eh/α |
          | HOMO-LUMO GAP               0.703598648284 eV   |
           -------------------------------------------------

 * finished run on 2023/06/20 at 15:14:12.238
