   * xtb version 6.5.1 (579679a) compiled by 'ehlert@majestix' on 2022-07-11
          program call               : /lustre/hpc/kemi/ree/PhD/git/ReactivityQM/dep/xtb-6.5.1/bin/xtb --gfn 1 /lustre/hpc/kemi/ree/PhD/git/ReactivityQM/calculations/R02methylcation/reac01prodN08/conf19/R02methylcation_reac01prodN08_conf19_gfn1.xyz --opt --vfukui --chrg 0 --uhf 0 --alpb DMSO

   ID    Z sym.   atoms
    1    6 C      1, 3, 5, 7-10, 12, 14, 17, 18, 21, 23, 25
    2    8 O      2, 4, 13, 19, 22, 24
    3    7 N      6, 11, 15, 16, 20
    4    1 H      26-42

      * Solvation model:               ALPB
        Solvent                        DMSO
        Solvent mass                       7.8130E+01 g/mol
          :  Hamiltonian                  GFN1-xTB          :
 * total energy  :   -82.9979556 Eh     change       -0.1075762E-10 Eh
 * total energy  :   -83.0121751 Eh     change       -0.1421954E-01 Eh
 * total energy  :   -83.0167144 Eh     change       -0.4539232E-02 Eh
 * total energy  :   -83.0176915 Eh     change       -0.9771399E-03 Eh
 * total energy  :   -83.0183533 Eh     change       -0.6618236E-03 Eh
 * total energy  :   -83.0186912 Eh     change       -0.3379262E-03 Eh
 * total energy  :   -83.0189202 Eh     change       -0.2289387E-03 Eh
 * total energy  :   -83.0190855 Eh     change       -0.1652751E-03 Eh
 * total energy  :   -83.0191804 Eh     change       -0.9489515E-04 Eh
 * total energy  :   -83.0192584 Eh     change       -0.7800576E-04 Eh
 * total energy  :   -83.0202724 Eh     change       -0.7630548E-05 Eh
 * total energy  :   -83.0202793 Eh     change       -0.6901752E-05 Eh
 * total energy  :   -83.0202904 Eh     change       -0.1109517E-04 Eh
 * total energy  :   -83.0203010 Eh     change       -0.1064068E-04 Eh
 * total energy  :   -83.0203114 Eh     change       -0.1035257E-04 Eh
 * total energy  :   -83.0203197 Eh     change       -0.8324556E-05 Eh
 * total energy  :   -83.0203289 Eh     change       -0.9242002E-05 Eh
 * total energy  :   -83.0203324 Eh     change       -0.3411313E-05 Eh
 * total energy  :   -83.0203370 Eh     change       -0.4684976E-05 Eh
   *** GEOMETRY OPTIMIZATION CONVERGED AFTER 51 ITERATIONS ***

 final structure:
================
42
 xtb: 6.5.1 (579679a)
C           -6.09889494617018       -1.05937692836692       -0.53932219824623
O           -4.84708689945425       -0.81345873164352        0.10728885899777
C           -3.85882183420651       -0.37036309162405       -0.66581778401874
O           -3.99001861353837       -0.17110829387427       -1.85312210030308
C           -2.56936034326982       -0.13815372749950        0.05492325737094
N           -1.59251816903578        0.33843959281352       -0.78073098826516
C           -0.41908561561392        0.59001463325632       -0.31629698888412
C            0.64626875619387        1.17341343656853       -1.21804204715645
C            0.73654132932864        2.67898212596490       -0.92175334429857
C            0.29242353116521        0.91554943824953       -2.68595158073560
N            1.91780907076972        0.52056677043330       -0.88655494754998
C            3.09014084445782        0.85679034893832       -1.46880440598806
O            3.24989351274347        1.76315127645096       -2.26813981077937
C            4.21499120082388       -0.00092764764104       -1.01859833126645
N            5.45614467203080        0.06442753695496       -1.38800441261642
N            6.11978714206541       -0.91628207331303       -0.71344418775839
C            5.24290123043307       -1.52033523327051        0.02625939791663
C            5.46410783656357       -2.65133179228954        0.95295825149463
O            4.01630541045016       -0.99102272881363       -0.12078170257495
N           -0.11971362793423        0.41384179476016        1.00236487006696
C           -1.00713242666769       -0.06346371411163        1.94508200283330
O           -0.64979663263476       -0.19052033521915        3.10687620749283
C           -2.33355253087804       -0.36180114070247        1.39413835836850
O           -3.31867186996659       -0.83721754350582        2.16670366175717
C           -3.14363915309918       -1.15908164677509        3.54691362006810
H           -5.98585147545718       -1.84690331928733       -1.28788404327850
H           -6.45679520641512       -0.14852690483447       -1.02481991102324
H           -6.79386221226701       -1.37290749386467        0.23660899608615
H            1.45471168206709        3.15264356158972       -1.58788763043195
H           -0.24116732944073        3.13449377051147       -1.07108817372121
H            1.04809304895937        2.83492189065927        0.10918802551251
H            1.03712880841655        1.37239923511013       -3.33484112532766
H           -0.68483688298638        1.34496067493728       -2.90174311396315
H            0.25710009619362       -0.15595410807904       -2.87609364706091
H            1.89250493931670       -0.30873071183045       -0.31792772165303
H            6.48876613492063       -3.00458133789594        0.86203845219831
H            4.77205218751450       -3.46076162887248        0.72374320603455
H            5.27987197008310       -2.33116607185037        1.97870929245828
H            0.80172869781112        0.63427488327887        1.34823136596333
H           -2.36292968703755       -1.91125164497338        3.67981093801596
H           -2.90314747637262       -0.26864627177617        4.13238253183476
H           -4.10238716986128       -1.56430484855954        3.87342990242782

          :  Hamiltonian                  GFN1-xTB          :
         :: total energy             -83.020337045862 Eh    ::
         :: gradient norm              0.000727230008 Eh/a0 ::
         :: HOMO-LUMO gap              2.765814931009 eV    ::
         :: SCC energy               -83.804620577922 Eh    ::
         :: -> Gsolv                  -0.057805795608 Eh    ::
         :: repulsion energy           0.809271017466 Eh    ::

    * Orbital Energies and Occupations

         #    Occupation            Energy/Eh            Energy/eV
      -------------------------------------------------------------
         1        2.0000           -0.8657792             -23.5591
       ...           ...                  ...                  ...
        55        2.0000           -0.5051605             -13.7461
        56        2.0000           -0.5013880             -13.6435
        57        2.0000           -0.4957410             -13.4898
        58        2.0000           -0.4852513             -13.2044
        59        2.0000           -0.4811304             -13.0922
        60        2.0000           -0.4801254             -13.0649
        61        2.0000           -0.4669015             -12.7050
        62        2.0000           -0.4614770             -12.5574
        63        2.0000           -0.4569919             -12.4354
        64        2.0000           -0.4519920             -12.2993
        65        2.0000           -0.4508601             -12.2685
        66        2.0000           -0.4483957             -12.2015
        67        2.0000           -0.4271977             -11.6246 (HOMO)
        68                         -0.3255558              -8.8588 (LUMO)
        69                         -0.3117192              -8.4823
        70                         -0.2846572              -7.7459
        71                         -0.2569337              -6.9915
        72                         -0.2408428              -6.5537
        73                         -0.1994762              -5.4280
        74                         -0.1615267              -4.3954
        75                         -0.1417834              -3.8581
        76                         -0.1372295              -3.7342
        77                         -0.1314744              -3.5776
        78                         -0.1282805              -3.4907
       ...                                ...                  ...
       134                          0.7287505              19.8303
      -------------------------------------------------------------
                  HL-Gap            0.1016418 Eh            2.7658 eV

Wiberg/Mayer (AO) data.
largest (>0.10) Wiberg bond orders for each atom

     #   Z sym  total        # sym  WBO       # sym  WBO       # sym  WBO
 ---------------------------------------------------------------------------
     1   6 C    3.872 --    28 H    0.986    27 H    0.979    26 H    0.979
                             2 O    0.897
     2   8 O    2.206 --     3 C    1.117     1 C    0.897     4 O    0.134
     3   6 C    3.852 --     4 O    1.654     2 O    1.117     5 C    1.000
     4   8 O    1.915 --     3 C    1.654     2 O    0.134
     5   6 C    3.962 --    23 C    1.483     6 N    1.184     3 C    1.000
     6   7 N    3.029 --     7 C    1.589     5 C    1.184
     7   6 C    3.930 --     6 N    1.589    20 N    1.166     8 C    0.982
     8   6 C    3.933 --    10 C    0.991     7 C    0.982     9 C    0.975
                            11 N    0.923
     9   6 C    3.987 --    30 H    0.985    31 H    0.985    29 H    0.977
                             8 C    0.975
    10   6 C    3.988 --     8 C    0.991    34 H    0.985    33 H    0.983
                            32 H    0.982
    11   7 N    3.338 --    12 C    1.248     8 C    0.923    35 H    0.893
                            13 O    0.174
    12   6 C    3.916 --    13 O    1.591    11 N    1.248    14 C    0.993
    13   8 O    1.907 --    12 C    1.591    11 N    0.174
    14   6 C    3.872 --    15 N    1.623    19 O    1.046    12 C    0.993
    15   7 N    3.000 --    14 C    1.623    16 N    1.198
    16   7 N    2.982 --    17 C    1.611    15 N    1.198
    17   6 C    3.868 --    16 N    1.611    19 O    1.071    18 C    1.032
    18   6 C    3.986 --    17 C    1.032    36 H    0.982    37 H    0.965
                            38 H    0.960
    19   8 O    2.315 --    17 C    1.071    14 C    1.046
    20   7 N    3.464 --     7 C    1.166    21 C    1.128    39 H    0.882
                            22 O    0.133
    21   6 C    3.909 --    22 O    1.578    20 N    1.128    23 C    1.065
    22   8 O    1.905 --    21 C    1.578    20 N    0.133
    23   6 C    3.918 --     5 C    1.483    24 O    1.099    21 C    1.065
    24   8 O    2.195 --    23 C    1.099    25 C    0.895
    25   6 C    3.870 --    42 H    0.984    40 H    0.979    41 H    0.978
                            24 O    0.895
    26   1 H    1.007 --     1 C    0.979
    27   1 H    1.008 --     1 C    0.979
    28   1 H    1.011 --     1 C    0.986
    29   1 H    1.009 --     9 C    0.977
    30   1 H    1.001 --     9 C    0.985
    31   1 H    1.001 --     9 C    0.985
    32   1 H    1.007 --    10 C    0.982
    33   1 H    1.010 --    10 C    0.983
    34   1 H    1.004 --    10 C    0.985
    35   1 H    0.937 --    11 N    0.893
    36   1 H    0.998 --    18 C    0.982
    37   1 H    0.997 --    18 C    0.965
    38   1 H    0.996 --    18 C    0.960
    39   1 H    0.927 --    20 N    0.882
    40   1 H    1.013 --    25 C    0.979
    41   1 H    1.015 --    25 C    0.978
    42   1 H    1.012 --    25 C    0.984
 ---------------------------------------------------------------------------

           -------------------------------------------------
          | TOTAL ENERGY              -83.020337045862 Eh   |
          | GRADIENT NORM               0.000727230008 Eh/α |
          | HOMO-LUMO GAP               2.765814931009 eV   |
           -------------------------------------------------

 * finished run on 2023/06/21 at 17:39:21.253
