   * xtb version 6.5.1 (579679a) compiled by 'ehlert@majestix' on 2022-07-11
          program call               : /lustre/hpc/kemi/ree/PhD/git/ReactivityQM/dep/xtb-6.5.1/bin/xtb --gfn 1 /lustre/hpc/kemi/ree/PhD/git/ReactivityQM/calculations/R02oxygendeprot/reac01prodN06/conf13/R02oxygendeprot_reac01prodN06_conf13_gfn1.xyz --opt --vfukui --chrg 0 --uhf 0 --alpb DMSO

   ID    Z sym.   atoms
    1    6 C      1, 3, 5, 7-10, 12, 14, 16, 17, 20, 22, 24
    2    8 O      2, 4, 13, 15, 23, 25
    3    7 N      6, 11, 18, 19, 21
    4    1 H      26-42

      * Solvation model:               ALPB
        Solvent                        DMSO
        Solvent mass                       7.8130E+01 g/mol
          :  Hamiltonian                  GFN1-xTB          :
 * total energy  :   -82.9559263 Eh     change       -0.2103206E-11 Eh
 * total energy  :   -82.9708381 Eh     change       -0.1491174E-01 Eh
 * total energy  :   -82.9779449 Eh     change       -0.7106860E-02 Eh
 * total energy  :   -82.9791176 Eh     change       -0.1172655E-02 Eh
 * total energy  :   -82.9800228 Eh     change       -0.9051878E-03 Eh
 * total energy  :   -82.9804554 Eh     change       -0.4326552E-03 Eh
 * total energy  :   -82.9808438 Eh     change       -0.3883212E-03 Eh
 * total energy  :   -82.9811659 Eh     change       -0.3221730E-03 Eh
 * total energy  :   -82.9813621 Eh     change       -0.1961454E-03 Eh
 * total energy  :   -82.9814606 Eh     change       -0.9856803E-04 Eh
 * total energy  :   -82.9828387 Eh     change       -0.7060094E-05 Eh
 * total energy  :   -82.9828460 Eh     change       -0.7375853E-05 Eh
 * total energy  :   -82.9828531 Eh     change       -0.7083298E-05 Eh
 * total energy  :   -82.9828598 Eh     change       -0.6640829E-05 Eh
 * total energy  :   -82.9828665 Eh     change       -0.6776072E-05 Eh
 * total energy  :   -82.9828738 Eh     change       -0.7261209E-05 Eh
 * total energy  :   -82.9828802 Eh     change       -0.6417475E-05 Eh
 * total energy  :   -82.9828855 Eh     change       -0.5315582E-05 Eh
 * total energy  :   -82.9828883 Eh     change       -0.2798455E-05 Eh
   *** GEOMETRY OPTIMIZATION CONVERGED AFTER 66 ITERATIONS ***

 final structure:
================
42
 xtb: 6.5.1 (579679a)
C            6.73186851060670        0.19016786525138        1.21383694494626
O            5.53873246273934        0.83737078304353        0.78866375462150
C            4.52929526104434        0.02282858674060        0.40522660591067
O            4.65618389790235       -1.19394810239122        0.43780031126113
C            3.32441706162674        0.71535550031398       -0.04252026919797
N            2.33353917402101       -0.15040497531117       -0.45198874213593
C            1.21534594353495        0.28921550614302       -0.89982111769915
C            0.15877083229086       -0.69585071643155       -1.36790221708589
C           -0.26412502669594       -0.43772690656931       -2.81683069843162
C            0.69414154229709       -2.12083934059398       -1.22271473747267
N           -1.01822034753510       -0.60140434105856       -0.46820884150997
C           -1.94147594220545        0.35696061388159       -0.49612427294157
O           -1.98366479263066        1.35133234924325       -1.20544534081504
C           -3.04086497308283        0.14029488840892        0.48980292207904
O           -3.14070278896899       -0.88321487980293        1.32919327067109
C           -4.29099063930830       -0.69705568376543        2.00340759176674
C           -4.72903944066199       -1.66231800652932        3.02567747088159
N           -4.89292358600676        0.38878482523430        1.61570403862586
N           -4.09888697843515        0.90734040184935        0.66135802598976
C           -4.47001933865499        2.12835384978679       -0.02298340759175
N            0.94423200027728        1.63643866213296       -0.98154738312918
C            1.82276939003080        2.61335318200214       -0.58274773515265
O            1.50231075822161        3.79448738418204       -0.66722558052522
C            3.15930617889159        2.12766375493758       -0.06281952668546
O            3.99462776164684        2.96933283625175        0.30571035193648
H            7.14556500850176       -0.42409775607415        0.40812868277727
H            6.53619492190423       -0.44946350297869        2.07979497012377
H            7.44036283885291        0.97245457623848        1.48395007710229
H            0.58152982984195       -0.64007830739068       -3.47311378946819
H           -0.58300930781291        0.59104310938387       -2.96474829158793
H           -1.08483166668125       -1.10112247749349       -3.08267344170903
H            1.56548460129118       -2.24707125202672       -1.86414252893984
H            0.99331151339929       -2.30864662981698       -0.19234612336769
H           -0.07046522684330       -2.83782670690343       -1.51328199929665
H           -1.14855156682348       -1.35722792115001        0.18447160343199
H           -3.96742863039850       -1.75077604844093        3.80127405806363
H           -4.85528613294286       -2.64492341406030        2.56958593452107
H           -5.66910090036590       -1.33503322729677        3.46320260985941
H           -5.44813634938213        2.43256581722733        0.33886752398096
H           -4.49201963073596        1.93420585167859       -1.09436898945793
H           -3.72178283498534        2.89236904358354        0.18621266891238
H            0.04353661222640        1.94284680857546       -1.31831138325875

          :  Hamiltonian                  GFN1-xTB          :
         :: total energy             -82.982888319247 Eh    ::
         :: gradient norm              0.000220984458 Eh/a0 ::
         :: HOMO-LUMO gap              0.205295883230 eV    ::
         :: SCC energy               -83.769478213629 Eh    ::
         :: -> Gsolv                  -0.110498710531 Eh    ::
         :: repulsion energy           0.811933926465 Eh    ::

    * Orbital Energies and Occupations

         #    Occupation            Energy/Eh            Energy/eV
      -------------------------------------------------------------
         1        2.0000           -0.9278225             -25.2473
       ...           ...                  ...                  ...
        55        2.0000           -0.5086055             -13.8399
        56        2.0000           -0.5040772             -13.7166
        57        2.0000           -0.5006915             -13.6245
        58        2.0000           -0.4922658             -13.3952
        59        2.0000           -0.4866506             -13.2424
        60        2.0000           -0.4731545             -12.8752
        61        2.0000           -0.4699426             -12.7878
        62        2.0000           -0.4637300             -12.6187
        63        2.0000           -0.4477307             -12.1834
        64        2.0000           -0.4434643             -12.0673
        65        2.0000           -0.4255768             -11.5805
        66        2.0000           -0.3869829             -10.5303
        67        1.9630           -0.3748057             -10.1990 (HOMO)
        68        0.0370           -0.3672612              -9.9937 (LUMO)
        69                         -0.3158781              -8.5955
        70                         -0.2769640              -7.5366
        71                         -0.2513352              -6.8392
        72                         -0.2441531              -6.6437
        73                         -0.2038389              -5.5467
        74                         -0.1637934              -4.4570
        75                         -0.1632703              -4.4428
        76                         -0.1315449              -3.5795
        77                         -0.1256714              -3.4197
        78                         -0.1239169              -3.3720
       ...                                ...                  ...
       134                          0.7531061              20.4931
      -------------------------------------------------------------
                  HL-Gap            0.0075445 Eh            0.2053 eV

Wiberg/Mayer (AO) data.
largest (>0.10) Wiberg bond orders for each atom

     #   Z sym  total        # sym  WBO       # sym  WBO       # sym  WBO
 ---------------------------------------------------------------------------
     1   6 C    3.895 --    28 H    0.987    27 H    0.980    26 H    0.980
                             2 O    0.921
     2   8 O    2.166 --     3 C    1.060     1 C    0.921     4 O    0.113
     3   6 C    3.848 --     4 O    1.586     5 C    1.097     2 O    1.060
     4   8 O    1.854 --     3 C    1.586     2 O    0.113
     5   6 C    3.877 --    24 C    1.255     6 N    1.171     3 C    1.097
                            25 O    0.118
     6   7 N    3.029 --     7 C    1.613     5 C    1.171
     7   6 C    3.919 --     6 N    1.613    21 N    1.108     8 C    0.965
     8   6 C    3.910 --    10 C    1.002     9 C    0.990     7 C    0.965
                            11 N    0.886
     9   6 C    3.987 --     8 C    0.990    31 H    0.984    29 H    0.983
                            30 H    0.979
    10   6 C    3.990 --     8 C    1.002    34 H    0.986    33 H    0.981
                            32 H    0.981
    11   7 N    3.397 --    12 C    1.320    35 H    0.890     8 C    0.886
                            13 O    0.197
    12   6 C    3.918 --    13 O    1.545    11 N    1.320    14 C    0.975
    13   8 O    1.916 --    12 C    1.545    11 N    0.197
    14   6 C    3.800 --    19 N    1.422    15 O    1.113    12 C    0.975
    15   8 O    2.350 --    14 C    1.113    16 C    1.065
    16   6 C    3.838 --    18 N    1.581    15 O    1.065    17 C    1.042
    17   6 C    3.972 --    16 C    1.042    38 H    0.978    36 H    0.952
                            37 H    0.950
    18   7 N    2.962 --    16 C    1.581    19 N    1.152
    19   7 N    3.615 --    14 C    1.422    18 N    1.152    20 C    0.911
    20   6 C    3.883 --    39 H    0.981    40 H    0.964    41 H    0.963
                            19 N    0.911
    21   7 N    3.427 --    22 C    1.157     7 C    1.108    42 H    0.880
                            23 O    0.134
    22   6 C    3.875 --    23 O    1.588    21 N    1.157    24 C    0.964
    23   8 O    1.862 --    22 C    1.588    21 N    0.134
    24   6 C    3.932 --    25 O    1.535     5 C    1.255    22 C    0.964
    25   8 O    1.818 --    24 C    1.535     5 C    0.118
    26   1 H    1.013 --     1 C    0.980
    27   1 H    1.013 --     1 C    0.980
    28   1 H    1.015 --     1 C    0.987
    29   1 H    1.001 --     9 C    0.983
    30   1 H    1.008 --     9 C    0.979
    31   1 H    0.999 --     9 C    0.984
    32   1 H    1.008 --    10 C    0.981
    33   1 H    1.009 --    10 C    0.981
    34   1 H    0.999 --    10 C    0.986
    35   1 H    0.929 --    11 N    0.890
    36   1 H    0.989 --    17 C    0.952
    37   1 H    0.989 --    17 C    0.950
    38   1 H    0.991 --    17 C    0.978
    39   1 H    0.996 --    20 C    0.981
    40   1 H    0.999 --    20 C    0.964
    41   1 H    0.997 --    20 C    0.963
    42   1 H    0.948 --    21 N    0.880
 ---------------------------------------------------------------------------

           -------------------------------------------------
          | TOTAL ENERGY              -82.982888319247 Eh   |
          | GRADIENT NORM               0.000220984458 Eh/α |
          | HOMO-LUMO GAP               0.205295883230 eV   |
           -------------------------------------------------

 * finished run on 2023/06/21 at 17:21:57.113
