   * xtb version 6.5.1 (579679a) compiled by 'ehlert@majestix' on 2022-07-11
          program call               : /lustre/hpc/kemi/ree/PhD/git/ReactivityQM/dep/xtb-6.5.1/bin/xtb --gfn 1 /lustre/hpc/kemi/ree/PhD/git/ReactivityQM/calculations/RaltegravirCLI/reac02prodN02/conf07/RaltegravirCLI_reac02prodN02_conf07_gfn1.xyz --opt --vfukui --chrg 1 --uhf 0 --alpb DMSO

   ID    Z sym.   atoms
    1    6 C      1, 3-6, 8, 9, 12-16, 18-20, 22, 25
    2    7 N      2, 7, 11, 24
    3    8 O      10, 21, 23
    4    9 F      17
    5    1 H      26-47

      * Solvation model:               ALPB
        Solvent                        DMSO
        Solvent mass                       7.8130E+01 g/mol
          :  Hamiltonian                  GFN1-xTB          :
 * total energy  :   -79.5215053 Eh     change       -0.1116973E-10 Eh
 * total energy  :   -79.5315160 Eh     change       -0.1001072E-01 Eh
 * total energy  :   -79.5343158 Eh     change       -0.2799877E-02 Eh
 * total energy  :   -79.5348112 Eh     change       -0.4953438E-03 Eh
 * total energy  :   -79.5351042 Eh     change       -0.2930015E-03 Eh
 * total energy  :   -79.5352179 Eh     change       -0.1137497E-03 Eh
 * total energy  :   -79.5352864 Eh     change       -0.6847825E-04 Eh
 * total energy  :   -79.5353219 Eh     change       -0.3548967E-04 Eh
 * total energy  :   -79.5353452 Eh     change       -0.2333160E-04 Eh
 * total energy  :   -79.5353610 Eh     change       -0.1576597E-04 Eh
 * total energy  :   -79.5353800 Eh     change       -0.1899178E-04 Eh
 * total energy  :   -79.5353923 Eh     change       -0.1228332E-04 Eh
 * total energy  :   -79.5354031 Eh     change       -0.1083994E-04 Eh
 * total energy  :   -79.5354112 Eh     change       -0.8100547E-05 Eh
 * total energy  :   -79.5354154 Eh     change       -0.4174179E-05 Eh
   *** GEOMETRY OPTIMIZATION CONVERGED AFTER 15 ITERATIONS ***

 final structure:
================
47
 xtb: 6.5.1 (579679a)
C           -2.95218026920179       -0.77587440761261        2.35972622468869
N           -3.89813346650360       -0.49581138111348        1.24989788595472
C           -3.27114591209194       -0.36996473899068       -0.12150494313665
C           -2.78517609443397       -1.76689117800838       -0.51978964610247
C           -4.37167991246516        0.06830250985861       -1.09229252514131
C           -2.09070113510612        0.59518453841493       -0.11583266693120
N           -1.02508814591209        0.12040748840647       -0.66625063110835
C            0.12291676585082        0.85107251785630       -0.80884491911907
C            1.23891943563240        0.08222578861417       -1.45958339403137
O            1.04594445609646       -1.03315297886839       -1.92583979946782
N            2.43188248355465        0.70106777462516       -1.50050149733728
C            3.61129566151738        0.01962033967517       -2.02891678007838
C            4.36819473200729       -0.68446341763280       -0.92226072388374
C            5.61815166626075       -0.22278493949263       -0.51798499008281
C            6.31129092629893       -0.85898983835116        0.50336564945316
C            5.72561331767483       -1.95570139857487        1.10845994950579
F            6.38700107534062       -2.57543573034364        2.09902518133209
C            4.48558089964645       -2.44101125904531        0.73241210365097
C            3.80953972523595       -1.79605105456895       -0.29256235919075
C            0.13465880904267        2.14114263106696       -0.36810342433093
O            1.18904327936655        2.96560494434464       -0.45977664842057
C           -1.04041970266143        2.71851130132213        0.26407324411762
O           -1.04137086742055        3.86667255388934        0.68827442483801
N           -2.15075988883147        1.88550440991231        0.35860870064690
C           -3.29640529123948        2.47838216876348        1.04775389354943
H           -2.54205117462821       -1.77361478308019        2.23285372293961
H           -3.51478507079639       -0.71416480374694        3.28725476518203
H           -2.16089134851835       -0.03154119033816        2.34482621241513
H           -4.58007632542163       -1.25042901706788        1.21281326932429
H           -4.42066289644744        0.34654446284796        1.47284038357882
H           -1.95818787250779       -2.08755071015087        0.10999178640886
H           -2.43905527376216       -1.74252662896859       -1.55220961412930
H           -3.60356307507096       -2.47920415038104       -0.43640466071555
H           -5.14150006048057       -0.70008253694226       -1.14143427010912
H           -3.93794094461477        0.19720631826854       -2.08341684827828
H           -4.83698252046334        1.00279350466719       -0.79179946975357
H            2.57745058512299        1.57394208239215       -1.02209911664576
H            3.27175921193163       -0.70353473680797       -2.77788722697273
H            4.24468499866316        0.76697045732436       -2.51286927975064
H            6.05904248060340        0.64005253997638       -1.00334977788258
H            7.28348199109276       -0.50949083617603        0.82584047517000
H            4.06086630064930       -3.30200780219924        1.23211412889359
H            2.83766160816020       -2.15924318312098       -0.60478154218416
H            0.95122260162245        3.82619626314451       -0.06301679291947
H           -4.22393914062537        2.20674929357249        0.55785579686435
H           -3.17846076925995        3.56160062025732        1.01371000170698
H           -3.30504585290582        2.15575619238170        2.08761374748219

          :  Hamiltonian                  GFN1-xTB          :
         :: total energy             -79.535415400102 Eh    ::
         :: gradient norm              0.000788691415 Eh/a0 ::
         :: HOMO-LUMO gap              2.926167377865 eV    ::
         :: SCC energy               -80.436339370362 Eh    ::
         :: -> Gsolv                  -0.134505296636 Eh    ::
         :: repulsion energy           0.931766699715 Eh    ::

    * Orbital Energies and Occupations

         #    Occupation            Energy/Eh            Energy/eV
      -------------------------------------------------------------
         1        2.0000           -0.8913954             -24.2561
       ...           ...                  ...                  ...
        55        2.0000           -0.5232595             -14.2386
        56        2.0000           -0.5151583             -14.0182
        57        2.0000           -0.5085217             -13.8376
        58        2.0000           -0.5036263             -13.7044
        59        2.0000           -0.4886712             -13.2974
        60        2.0000           -0.4831121             -13.1461
        61        2.0000           -0.4753194             -12.9341
        62        2.0000           -0.4671768             -12.7125
        63        2.0000           -0.4536440             -12.3443
        64        2.0000           -0.4533114             -12.3352
        65        2.0000           -0.4461952             -12.1416
        66        2.0000           -0.4400776             -11.9751
        67        2.0000           -0.4373306             -11.9004 (HOMO)
        68                         -0.3297959              -8.9742 (LUMO)
        69                         -0.3001981              -8.1688
        70                         -0.2754722              -7.4960
        71                         -0.2695034              -7.3336
        72                         -0.2409402              -6.5563
        73                         -0.1876779              -5.1070
        74                         -0.1800592              -4.8997
        75                         -0.1690608              -4.6004
        76                         -0.1661504              -4.5212
        77                         -0.1523696              -4.1462
        78                         -0.1480519              -4.0287
       ...                                ...                  ...
       144                          0.7110761              19.3494
      -------------------------------------------------------------
                  HL-Gap            0.1075347 Eh            2.9262 eV

Wiberg/Mayer (AO) data.
largest (>0.10) Wiberg bond orders for each atom

     #   Z sym  total        # sym  WBO       # sym  WBO       # sym  WBO
 ---------------------------------------------------------------------------
     1   6 C    3.894 --    28 H    0.983    26 H    0.982    27 H    0.980
                             2 N    0.917
     2   7 N    3.595 --     1 C    0.917    30 H    0.891    29 H    0.888
                             3 C    0.871
     3   6 C    3.895 --     4 C    1.001     5 C    0.989     6 C    0.979
                             2 N    0.871
     4   6 C    3.983 --     3 C    1.001    33 H    0.982    31 H    0.979
                            32 H    0.976
     5   6 C    3.982 --     3 C    0.989    34 H    0.979    35 H    0.977
                            36 H    0.973
     6   6 C    3.941 --     7 N    1.587    24 N    1.160     3 C    0.979
     7   7 N    3.043 --     6 C    1.587     8 C    1.184
     8   6 C    3.957 --    20 C    1.509     7 N    1.184     9 C    0.985
     9   6 C    3.911 --    10 O    1.573    11 N    1.274     8 C    0.985
    10   8 O    1.883 --     9 C    1.573    11 N    0.175
    11   7 N    3.355 --     9 C    1.274    12 C    0.938    37 H    0.888
                            10 O    0.175
    12   6 C    3.944 --    13 C    0.994    39 H    0.977    38 H    0.967
                            11 N    0.938
    13   6 C    3.988 --    14 C    1.423    19 C    1.414    12 C    0.994
    14   6 C    3.994 --    15 C    1.439    13 C    1.423    40 H    0.970
                            18 C    0.109
    15   6 C    3.991 --    14 C    1.439    16 C    1.404    41 H    0.969
                            19 C    0.111
    16   6 C    3.861 --    15 C    1.404    18 C    1.397    17 F    0.925
    17   9 F    1.054 --    16 C    0.925
    18   6 C    3.992 --    19 C    1.448    16 C    1.397    42 H    0.969
                            14 C    0.109
    19   6 C    3.993 --    18 C    1.448    13 C    1.414    43 H    0.969
                            15 C    0.111
    20   6 C    3.919 --     8 C    1.509    21 O    1.092    22 C    1.079
    21   8 O    2.082 --    20 C    1.092    44 H    0.794
    22   6 C    3.911 --    23 O    1.568    24 N    1.114    20 C    1.079
    23   8 O    1.916 --    22 C    1.568    24 N    0.133
    24   7 N    3.497 --     6 C    1.160    22 C    1.114    25 C    0.929
                            23 O    0.133
    25   6 C    3.919 --    47 H    0.973    45 H    0.972    46 H    0.966
                            24 N    0.929
    26   1 H    0.993 --     1 C    0.982
    27   1 H    0.988 --     1 C    0.980
    28   1 H    0.996 --     1 C    0.983
    29   1 H    0.916 --     2 N    0.888
    30   1 H    0.933 --     2 N    0.891
    31   1 H    1.006 --     4 C    0.979
    32   1 H    1.007 --     4 C    0.976
    33   1 H    0.995 --     4 C    0.982
    34   1 H    0.993 --     5 C    0.979
    35   1 H    0.995 --     5 C    0.977
    36   1 H    0.998 --     5 C    0.973
    37   1 H    0.943 --    11 N    0.888
    38   1 H    1.009 --    12 C    0.967
    39   1 H    1.003 --    12 C    0.977
    40   1 H    0.999 --    14 C    0.970
    41   1 H    0.998 --    15 C    0.969
    42   1 H    0.998 --    18 C    0.969
    43   1 H    1.009 --    19 C    0.969
    44   1 H    0.837 --    21 O    0.794
    45   1 H    1.002 --    25 C    0.972
    46   1 H    1.001 --    25 C    0.966
    47   1 H    0.996 --    25 C    0.973
 ---------------------------------------------------------------------------

           -------------------------------------------------
          | TOTAL ENERGY              -79.535415400102 Eh   |
          | GRADIENT NORM               0.000788691415 Eh/α |
          | HOMO-LUMO GAP               2.926167377865 eV   |
           -------------------------------------------------

 * finished run on 2023/06/20 at 15:17:05.459
