   * xtb version 6.5.1 (579679a) compiled by 'ehlert@majestix' on 2022-07-11
          program call               : /lustre/hpc/kemi/ree/PhD/git/ReactivityQM/dep/xtb-6.5.1/bin/xtb --gfn 1 /lustre/hpc/kemi/ree/PhD/git/ReactivityQM/calculations/RaltegravirCLI/reac01prodE01/conf10/RaltegravirCLI_reac01prodE01_conf10_gfn1.xyz --opt --vfukui --chrg -1 --uhf 0 --alpb DMSO

   ID    Z sym.   atoms
    1    6 C      1, 2, 5-7
    2    7 N      3, 4
    3    8 O      8, 10
    4   17 Cl     9
    5    1 H      11-16

      * Solvation model:               ALPB
        Solvent                        DMSO
        Solvent mass                       7.8130E+01 g/mol
          :  Hamiltonian                  GFN1-xTB          :
 * total energy  :   -34.1578721 Eh     change       -0.2799538E-11 Eh
 * total energy  :   -34.1684064 Eh     change       -0.1053425E-01 Eh
 * total energy  :   -34.1775494 Eh     change       -0.9143043E-02 Eh
 * total energy  :   -34.1804682 Eh     change       -0.2918835E-02 Eh
 * total energy  :   -34.1844277 Eh     change       -0.3959453E-02 Eh
 * total energy  :   -34.1875549 Eh     change       -0.3127237E-02 Eh
 * total energy  :   -34.1921983 Eh     change       -0.4643402E-02 Eh
 * total energy  :   -34.1946084 Eh     change       -0.2410022E-02 Eh
 * total energy  :   -34.1964273 Eh     change       -0.1818950E-02 Eh
 * total energy  :   -34.1982588 Eh     change       -0.1831507E-02 Eh
 * total energy  :   -34.2127925 Eh     change       -0.1704256E-04 Eh
 * total energy  :   -34.2128186 Eh     change       -0.2604869E-04 Eh
 * total energy  :   -34.2128434 Eh     change       -0.2480947E-04 Eh
 * total energy  :   -34.2128747 Eh     change       -0.3137026E-04 Eh
 * total energy  :   -34.2128872 Eh     change       -0.1250181E-04 Eh
 * total energy  :   -34.2128995 Eh     change       -0.1229983E-04 Eh
 * total energy  :   -34.2129049 Eh     change       -0.5406205E-05 Eh
 * total energy  :   -34.2129107 Eh     change       -0.5754806E-05 Eh
 * total energy  :   -34.2129145 Eh     change       -0.3820632E-05 Eh
   *** GEOMETRY OPTIMIZATION CONVERGED AFTER 74 ITERATIONS ***

 final structure:
================
16
 xtb: 6.5.1 (579679a)
C           -2.69854472567652       -0.11818047248994        1.03518192272756
C           -1.44484891165610       -0.18252344107180        0.25564226713748
N           -1.31401300551769       -0.24358529424942       -1.03529144364746
N            0.01643946125263       -0.28605075303228       -1.29263516437906
C            0.62658648544806       -0.24871474327778       -0.14511997518560
C            2.08113860723757       -0.26082188982381        0.11597582810866
C            2.45705015927439       -0.17471199657742        1.56565072171189
O            2.88137912864954       -0.33608673657041       -0.78692144826705
Cl          -0.92715362614171        2.80751222069484       -6.48189933424185
O           -0.25826944964554       -0.18057842083213        0.87547786191417
H           -3.55259878705434       -0.22201340685974        0.37052207842738
H           -2.71171441447302       -0.91242493853003        1.77998815957308
H           -2.76048526374033        0.83395630200479        1.56217532311264
H            3.53737384405127       -0.11666179091946        1.67184660233372
H            2.08157875556026       -1.05577498955704        2.08426181330125
H            1.98608174244954        0.69665935112410        2.01702378737817

          :  Hamiltonian                  GFN1-xTB          :
         :: total energy             -34.212914524682 Eh    ::
         :: gradient norm              0.000705448572 Eh/a0 ::
         :: HOMO-LUMO gap              3.288148177108 eV    ::
         :: SCC energy               -34.499791558765 Eh    ::
         :: -> Gsolv                  -0.133880729595 Eh    ::
         :: repulsion energy           0.292725374436 Eh    ::

    * Orbital Energies and Occupations

         #    Occupation            Energy/Eh            Energy/eV
      -------------------------------------------------------------
         1        2.0000           -0.8684528             -23.6318
       ...           ...                  ...                  ...
        16        2.0000           -0.5482327             -14.9182
        17        2.0000           -0.5446918             -14.8218
        18        2.0000           -0.5366087             -14.6019
        19        2.0000           -0.5310675             -14.4511
        20        2.0000           -0.5263586             -14.3229
        21        2.0000           -0.5094475             -13.8628
        22        2.0000           -0.4841928             -13.1756
        23        2.0000           -0.4769957             -12.9797
        24        2.0000           -0.4769957             -12.9797
        25        2.0000           -0.4769957             -12.9797
        26        2.0000           -0.4679628             -12.7339
        27        2.0000           -0.4597677             -12.5109
        28        2.0000           -0.4523380             -12.3087 (HOMO)
        29                         -0.3315007              -9.0206 (LUMO)
        30                         -0.2605129              -7.0889
        31                         -0.2163549              -5.8873
        32                         -0.1439663              -3.9175
        33                         -0.1357339              -3.6935
        34                         -0.0760307              -2.0689
        35                         -0.0755706              -2.0564
        36                         -0.0729745              -1.9857
        37                         -0.0678455              -1.8462
        38                          0.0340466               0.9265
        39                          0.0357799               0.9736
       ...                                ...                  ...
        57                          0.7133876              19.4123
      -------------------------------------------------------------
                  HL-Gap            0.1208372 Eh            3.2881 eV

Wiberg/Mayer (AO) data.
largest (>0.10) Wiberg bond orders for each atom

     #   Z sym  total        # sym  WBO       # sym  WBO       # sym  WBO
 ---------------------------------------------------------------------------
     1   6 C    3.985 --     2 C    1.033    11 H    0.982    12 H    0.964
                            13 H    0.959
     2   6 C    3.870 --     3 N    1.587    10 O    1.088     1 C    1.033
     3   7 N    2.985 --     2 C    1.587     4 N    1.221
     4   7 N    3.007 --     5 C    1.598     3 N    1.221
     5   6 C    3.870 --     4 N    1.598    10 O    1.043     6 C    1.017
     6   6 C    3.867 --     8 O    1.747     5 C    1.017     7 C    1.011
     7   6 C    3.991 --     6 C    1.011    14 H    0.982    16 H    0.960
                            15 H    0.954
     8   8 O    1.972 --     6 C    1.747
     9  17 Cl   0.000
    10   8 O    2.319 --     2 C    1.088     5 C    1.043
    11   1 H    0.998 --     1 C    0.982
    12   1 H    0.996 --     1 C    0.964
    13   1 H    0.996 --     1 C    0.959
    14   1 H    0.999 --     7 C    0.982
    15   1 H    0.997 --     7 C    0.954
    16   1 H    0.998 --     7 C    0.960
 ---------------------------------------------------------------------------

           -------------------------------------------------
          | TOTAL ENERGY              -34.212914524682 Eh   |
          | GRADIENT NORM               0.000705448572 Eh/α |
          | HOMO-LUMO GAP               3.288148177108 eV   |
           -------------------------------------------------

 * finished run on 2023/06/20 at 14:52:08.547
