                         Program Version 5.0.1 -  RELEASE  -
|  1> # ORCA input file
|  2> ! SP r2SCAN-3c CPCM
|  3>
|  4> %maxcore 1875.0
|  5> %pal nprocs 4 end
|  6> %cpcm smd true SMDsolvent "DMSO" end
|  7>
|  8> *xyz 1 1
|  9> C       5.194441   -0.397332    1.936036
| 10> C       4.565141    0.541765    0.945432
| 11> C       5.270642    1.655945    0.501892
| 12> C       4.681541    2.512625   -0.410008
| 13> F       5.374731    3.580022   -0.825909
| 14> C       3.408734    2.308045   -0.907008
| 15> C       2.708533    1.194495   -0.464277
| 16> C       3.271867    0.314381    0.453753
| 17> C       2.514830   -0.905842    0.938932
| 18> N       1.155031   -0.945444    0.425250
| 19> C       0.635577   -1.795977   -0.415810
| 20> O       1.288420   -2.793572   -0.952509
| 21> C      -0.757169   -1.620436   -0.775197
| 22> N      -1.336685   -0.526452   -0.192768
| 23> C      -2.575930   -0.212014   -0.426271
| 24> C      -3.104362    1.001097    0.327331
| 25> C      -1.930187    1.742695    0.985330
| 26> C      -4.079561    0.530017    1.416353
| 27> N      -3.792012    1.902183   -0.592302
| 28> N      -3.351434   -0.970663   -1.254875
| 29> C      -4.757335   -0.680522   -1.568255
| 30> C      -2.885065   -2.128225   -1.870894
| 31> O      -3.617015   -2.803891   -2.572740
| 32> C      -1.476561   -2.445225   -1.607403
| 33> O      -1.025896   -3.539016   -2.211809
| 34> H       4.590465   -0.454908    2.842756
| 35> H       5.262562   -1.401760    1.516382
| 36> H       6.195859   -0.062537    2.204739
| 37> H       2.211570   -2.910105   -0.683056
| 38> H       6.271486    1.857344    0.863024
| 39> H       2.974435    2.996260   -1.619869
| 40> H       1.710659    1.014570   -0.843056
| 41> H       3.029180   -1.821460    0.640171
| 42> H       2.441435   -0.898914    2.030927
| 43> H       0.504124   -0.237989    0.763984
| 44> H      -1.197771    2.026802    0.232139
| 45> H      -1.443815    1.109441    1.724859
| 46> H      -2.300940    2.641185    1.475970
| 47> H      -3.587362   -0.193634    2.064806
| 48> H      -4.964298    0.069748    0.980826
| 49> H      -4.390088    1.384928    2.015302
| 50> H      -4.185916    2.666069   -0.059186
| 51> H      -3.116455    2.292560   -1.235069
| 52> H      -4.905096   -0.837631   -2.637420
| 53> H      -5.394088   -1.370451   -1.014021
| 54> H      -4.989595    0.348269   -1.311880
| 55> H      -0.096629   -3.736447   -2.018895
| 56> **                         ****END OF INPUT****

CARTESIAN COORDINATES (ANGSTROEM)
---------------------------------
  C      5.194441   -0.397332    1.936036
  C      4.565141    0.541765    0.945432
  C      5.270642    1.655945    0.501892
  C      4.681541    2.512625   -0.410008
  F      5.374731    3.580022   -0.825909
  C      3.408734    2.308045   -0.907008
  C      2.708533    1.194495   -0.464277
  C      3.271867    0.314381    0.453753
  C      2.514830   -0.905842    0.938932
  N      1.155031   -0.945444    0.425250
  C      0.635577   -1.795977   -0.415810
  O      1.288420   -2.793572   -0.952509
  C     -0.757169   -1.620436   -0.775197
  N     -1.336685   -0.526452   -0.192768
  C     -2.575930   -0.212014   -0.426271
  C     -3.104362    1.001097    0.327331
  C     -1.930187    1.742695    0.985330
  C     -4.079561    0.530017    1.416353
  N     -3.792012    1.902183   -0.592302
  N     -3.351434   -0.970663   -1.254875
  C     -4.757335   -0.680522   -1.568255
  C     -2.885065   -2.128225   -1.870894
  O     -3.617015   -2.803891   -2.572740
  C     -1.476561   -2.445225   -1.607403
  O     -1.025896   -3.539016   -2.211809
  H      4.590465   -0.454908    2.842756
  H      5.262562   -1.401760    1.516382
  H      6.195859   -0.062537    2.204739
  H      2.211570   -2.910105   -0.683056
  H      6.271486    1.857344    0.863024
  H      2.974435    2.996260   -1.619869
  H      1.710659    1.014570   -0.843056
  H      3.029180   -1.821460    0.640171
  H      2.441435   -0.898914    2.030927
  H      0.504124   -0.237989    0.763984
  H     -1.197771    2.026802    0.232139
  H     -1.443815    1.109441    1.724859
  H     -2.300940    2.641185    1.475970
  H     -3.587362   -0.193634    2.064806
  H     -4.964298    0.069748    0.980826
  H     -4.390088    1.384928    2.015302
  H     -4.185916    2.666069   -0.059186
  H     -3.116455    2.292560   -1.235069
  H     -4.905096   -0.837631   -2.637420
  H     -5.394088   -1.370451   -1.014021
  H     -4.989595    0.348269   -1.311880
  H     -0.096629   -3.736447   -2.018895

 Total Charge           Charge          ....    1
 Multiplicity           Mult            ....    1
 Number of Electrons    NEL             ....  184
 Basis Dimension        Dim             ....  625

ORBITAL ENERGIES
----------------

  NO   OCC          E(Eh)            E(eV)
   0   2.0000     -24.506268      -666.8494
   1   2.0000     -19.070395      -518.9318
   2   2.0000     -19.022411      -517.6261
   3   2.0000     -18.940785      -515.4050
   4   2.0000     -14.253611      -387.8605
   5   2.0000     -14.246835      -387.6761
   6   2.0000     -14.177598      -385.7921
   7   2.0000     -14.140106      -384.7719
   8   2.0000     -10.214960      -277.9632
   9   2.0000     -10.157627      -276.4031
  10   2.0000     -10.147619      -276.1308
  11   2.0000     -10.134701      -275.7792
  12   2.0000     -10.122306      -275.4419
  13   2.0000     -10.115110      -275.2461
  14   2.0000     -10.104812      -274.9659
  15   2.0000     -10.088257      -274.5154
  16   2.0000     -10.060101      -273.7493
  17   2.0000     -10.058185      -273.6971
  18   2.0000     -10.056322      -273.6464
  19   2.0000     -10.048762      -273.4407
  20   2.0000     -10.042821      -273.2790
  21   2.0000     -10.042045      -273.2579
  22   2.0000     -10.027387      -272.8591
  23   2.0000     -10.022939      -272.7380
  24   2.0000     -10.014211      -272.5005
  25   2.0000      -1.198736       -32.6193
  26   2.0000      -1.133365       -30.8404
  27   2.0000      -1.076606       -29.2959
  28   2.0000      -1.033273       -28.1168
  29   2.0000      -0.984257       -26.7830
  30   2.0000      -0.969002       -26.3679
  31   2.0000      -0.899106       -24.4659
  32   2.0000      -0.871294       -23.7091
  33   2.0000      -0.846891       -23.0451
  34   2.0000      -0.796792       -21.6818
  35   2.0000      -0.767217       -20.8770
  36   2.0000      -0.751819       -20.4580
  37   2.0000      -0.728592       -19.8260
  38   2.0000      -0.725568       -19.7437
  39   2.0000      -0.693105       -18.8604
  40   2.0000      -0.680590       -18.5198
  41   2.0000      -0.661365       -17.9967
  42   2.0000      -0.659015       -17.9327
  43   2.0000      -0.650320       -17.6961
  44   2.0000      -0.630625       -17.1602
  45   2.0000      -0.606413       -16.5013
  46   2.0000      -0.585734       -15.9386
  47   2.0000      -0.576720       -15.6933
  48   2.0000      -0.570079       -15.5126
  49   2.0000      -0.559633       -15.2284
  50   2.0000      -0.534145       -14.5348
  51   2.0000      -0.515871       -14.0376
  52   2.0000      -0.507640       -13.8136
  53   2.0000      -0.491913       -13.3856
  54   2.0000      -0.479899       -13.0587
  55   2.0000      -0.473680       -12.8895
  56   2.0000      -0.468243       -12.7415
  57   2.0000      -0.458796       -12.4845
  58   2.0000      -0.448882       -12.2147
  59   2.0000      -0.442879       -12.0513
  60   2.0000      -0.440419       -11.9844
  61   2.0000      -0.434858       -11.8331
  62   2.0000      -0.427663       -11.6373
  63   2.0000      -0.424075       -11.5397
  64   2.0000      -0.416865       -11.3435
  65   2.0000      -0.413236       -11.2447
  66   2.0000      -0.410648       -11.1743
  67   2.0000      -0.407897       -11.0994
  68   2.0000      -0.389497       -10.5987
  69   2.0000      -0.385059       -10.4780
  70   2.0000      -0.381495       -10.3810
  71   2.0000      -0.380652       -10.3581
  72   2.0000      -0.378842       -10.3088
  73   2.0000      -0.368202       -10.0193
  74   2.0000      -0.360899        -9.8206
  75   2.0000      -0.359174        -9.7736
  76   2.0000      -0.356459        -9.6997
  77   2.0000      -0.353680        -9.6241
  78   2.0000      -0.344132        -9.3643
  79   2.0000      -0.343097        -9.3362
  80   2.0000      -0.333489        -9.0747
  81   2.0000      -0.330965        -9.0060
  82   2.0000      -0.322223        -8.7681
  83   2.0000      -0.316332        -8.6078
  84   2.0000      -0.309705        -8.4275
  85   2.0000      -0.279314        -7.6005
  86   2.0000      -0.269433        -7.3316
  87   2.0000      -0.252530        -6.8717
  88   2.0000      -0.244910        -6.6643
  89   2.0000      -0.228603        -6.2206
  90   2.0000      -0.226292        -6.1577
  91   2.0000      -0.213812        -5.8181
  92   0.0000      -0.124319        -3.3829
  93   0.0000      -0.054092        -1.4719
  94   0.0000      -0.043453        -1.1824
  95   0.0000      -0.034349        -0.9347
  96   0.0000      -0.018785        -0.5112

MULLIKEN ATOMIC CHARGES
-----------------------
   0 C :   -0.593084
   1 C :    0.048157
   2 C :   -0.333748
   3 C :    0.375942
   4 F :   -0.231299
   5 C :   -0.339038
   6 C :   -0.148065
   7 C :    0.247838
   8 C :   -0.428930
   9 N :   -0.060455
  10 C :    0.204880
  11 O :   -0.388994
  12 C :    0.086868
  13 N :   -0.139746
  14 C :    0.045486
  15 C :    0.246101
  16 C :   -0.602938
  17 C :   -0.516749
  18 N :   -0.689727
  19 N :    0.244298
  20 C :   -0.464188
  21 C :    0.119029
  22 O :   -0.418030
  23 C :    0.139455
  24 O :   -0.348534
  25 H :    0.192680
  26 H :    0.190999
  27 H :    0.178172
  28 H :    0.381608
  29 H :    0.198810
  30 H :    0.197473
  31 H :    0.190090
  32 H :    0.180640
  33 H :    0.228417
  34 H :    0.351012
  35 H :    0.179442
  36 H :    0.179553
  37 H :    0.174460
  38 H :    0.186097
  39 H :    0.179936
  40 H :    0.183973
  41 H :    0.297589
  42 H :    0.290591
  43 H :    0.188397
  44 H :    0.199561
  45 H :    0.232471
  46 H :    0.363500
Sum of atomic charges:    1.0000000

LOEWDIN ATOMIC CHARGES
----------------------
   0 C :   -0.385683
   1 C :   -0.071129
   2 C :   -0.153556
   3 C :    0.206043
   4 F :   -0.292110
   5 C :   -0.164913
   6 C :   -0.132776
   7 C :   -0.069432
   8 C :    0.034443
   9 N :   -0.531582
  10 C :    0.461225
  11 O :   -0.347220
  12 C :    0.201511
  13 N :   -0.596581
  14 C :    0.386469
  15 C :    0.064247
  16 C :   -0.360389
  17 C :   -0.350464
  18 N :   -0.703868
  19 N :   -0.617739
  20 C :   -0.088793
  21 C :    0.387587
  22 O :   -0.435962
  23 C :    0.308444
  24 O :   -0.405233
  25 H :    0.176224
  26 H :    0.176178
  27 H :    0.171377
  28 H :    0.322765
  29 H :    0.196996
  30 H :    0.194942
  31 H :    0.195370
  32 H :    0.207654
  33 H :    0.226577
  34 H :    0.326220
  35 H :    0.171172
  36 H :    0.168731
  37 H :    0.164669
  38 H :    0.173050
  39 H :    0.172267
  40 H :    0.172268
  41 H :    0.257902
  42 H :    0.255220
  43 H :    0.204388
  44 H :    0.194873
  45 H :    0.218431
  46 H :    0.310188

  Mayer bond orders larger than 0.100000
B(  0-C ,  1-C ) :   0.8042 B(  0-C , 25-H ) :   0.9705 B(  0-C , 26-H ) :   0.9667
B(  0-C , 27-H ) :   0.9740 B(  1-C ,  2-C ) :   1.3801 B(  1-C ,  7-C ) :   1.3578
B(  2-C ,  3-C ) :   1.4238 B(  2-C , 29-H ) :   0.9066 B(  3-C ,  4-F ) :   0.8861
B(  3-C ,  5-C ) :   1.3927 B(  5-C ,  6-C ) :   1.3476 B(  5-C , 30-H ) :   0.9299
B(  6-C ,  7-C ) :   1.3663 B(  6-C , 31-H ) :   0.9533 B(  7-C ,  8-C ) :   0.7828
B(  8-C ,  9-N ) :   0.9613 B(  8-C , 32-H ) :   0.9578 B(  8-C , 33-H ) :   0.9350
B(  9-N , 10-C ) :   1.4574 B(  9-N , 34-H ) :   0.8471 B( 10-C , 11-O ) :   1.0289
B( 10-C , 12-C ) :   1.1205 B( 11-O , 12-C ) :   0.1053 B( 11-O , 28-H ) :   0.8268
B( 12-C , 13-N ) :   0.9737 B( 12-C , 23-C ) :   1.2022 B( 13-N , 14-C ) :   1.6422
B( 13-N , 15-C ) :  -0.1087 B( 13-N , 19-N ) :   0.1064 B( 14-C , 15-C ) :   0.9061
B( 14-C , 19-N ) :   1.2624 B( 14-C , 23-C ) :   0.1046 B( 15-C , 16-C ) :   0.9563
B( 15-C , 17-C ) :   0.9341 B( 15-C , 18-N ) :   0.7658 B( 16-C , 35-H ) :   0.9612
B( 16-C , 36-H ) :   0.9771 B( 16-C , 37-H ) :   0.9652 B( 17-C , 38-H ) :   0.9717
B( 17-C , 39-H ) :   0.9438 B( 17-C , 40-H ) :   0.9609 B( 18-N , 41-H ) :   0.9106
B( 18-N , 42-H ) :   0.9084 B( 19-N , 20-C ) :   0.8458 B( 19-N , 21-C ) :   1.0914
B( 20-C , 43-H ) :   0.9365 B( 20-C , 44-H ) :   0.9362 B( 20-C , 45-H ) :   0.9173
B( 21-C , 22-O ) :   1.8916 B( 21-C , 23-C ) :   0.9909 B( 23-C , 24-O ) :   1.1247
B( 24-O , 46-H ) :   0.8205

Dispersion correction           -0.021389706
FINAL SINGLE POINT ENERGY     -1205.247484192542

DIPOLE MOMENT
-------------
                                X             Y             Z
Electronic contribution:     15.36106      -5.25347     -13.14958
Nuclear contribution   :    -14.00982       4.24839      15.66599
                        -----------------------------------------
Total Dipole Moment    :      1.35124      -1.00508       2.51641
                        -----------------------------------------
Magnitude (a.u.)       :      3.02793
Magnitude (Debye)      :      7.69640

Rotational constants in cm-1:     0.011841     0.003598     0.003120
Rotational constants in MHz :   354.970940   107.876036    93.526393

                             ****ORCA TERMINATED NORMALLY****
TOTAL RUN TIME: 0 days 0 hours 2 minutes 16 seconds 527 msec
