   * xtb version 6.5.1 (579679a) compiled by 'ehlert@majestix' on 2022-07-11
          program call               : /lustre/hpc/kemi/ree/PhD/git/ReactivityQM/dep/xtb-6.5.1/bin/xtb --gfn 1 /lustre/hpc/kemi/ree/PhD/git/ReactivityQM/calculations/RaltegravirCLI/reac02prodN09/conf05/RaltegravirCLI_reac02prodN09_conf05_gfn1.xyz --opt --vfukui --chrg 1 --uhf 0 --alpb DMSO

   ID    Z sym.   atoms
    1    6 C      1-4, 6-9, 11, 13, 15-18, 21, 22, 24
    2    9 F      5
    3    7 N      10, 14, 19, 20
    4    8 O      12, 23, 25
    5    1 H      26-47

      * Solvation model:               ALPB
        Solvent                        DMSO
        Solvent mass                       7.8130E+01 g/mol
          :  Hamiltonian                  GFN1-xTB          :
 * total energy  :   -79.4751549 Eh     change       -0.5826450E-11 Eh
 * total energy  :   -79.4842545 Eh     change       -0.9099611E-02 Eh
 * total energy  :   -79.4867473 Eh     change       -0.2492768E-02 Eh
 * total energy  :   -79.4872380 Eh     change       -0.4906560E-03 Eh
 * total energy  :   -79.4879149 Eh     change       -0.6769449E-03 Eh
 * total energy  :   -79.4883629 Eh     change       -0.4480369E-03 Eh
 * total energy  :   -79.4889063 Eh     change       -0.5433276E-03 Eh
 * total energy  :   -79.4897067 Eh     change       -0.8003796E-03 Eh
 * total energy  :   -79.4910179 Eh     change       -0.1311260E-02 Eh
 * total energy  :   -79.4928909 Eh     change       -0.1873022E-02 Eh
 * total energy  :   -79.5468960 Eh     change       -0.4238204E-04 Eh
 * total energy  :   -79.5469329 Eh     change       -0.3685206E-04 Eh
 * total energy  :   -79.5469433 Eh     change       -0.1046309E-04 Eh
 * total energy  :   -79.5469531 Eh     change       -0.9784505E-05 Eh
 * total energy  :   -79.5469600 Eh     change       -0.6833666E-05 Eh
 * total energy  :   -79.5469651 Eh     change       -0.5175302E-05 Eh
 * total energy  :   -79.5469694 Eh     change       -0.4266876E-05 Eh
 * total energy  :   -79.5469732 Eh     change       -0.3778968E-05 Eh
 * total energy  :   -79.5469758 Eh     change       -0.2588447E-05 Eh
   *** GEOMETRY OPTIMIZATION CONVERGED AFTER 94 ITERATIONS ***

 final structure:
================
47
 xtb: 6.5.1 (579679a)
C            5.19444080386708       -0.39733180980562        1.93603603017783
C            4.56514110653696        0.54176506883386        0.94543188313727
C            5.27064156985411        1.65594469762938        0.50189189357947
C            4.68154131144922        2.51262466301320       -0.41000838253723
F            5.37473050806519        3.58002246775187       -0.82590850316341
C            3.40873403695714        2.30804506446888       -0.90700768001721
C            2.70853335876906        1.19449543422836       -0.46427732871788
C            3.27186748148087        0.31438095662391        0.45375288306509
C            2.51483017318639       -0.90584175527386        0.93893206307521
N            1.15503142592145       -0.94544354679301        0.42524956280271
C            0.63557668047269       -1.79597746387325       -0.41581010778555
O            1.28842005262669       -2.79357183413364       -0.95250874618258
C           -0.75716887026835       -1.62043591684488       -0.77519747477026
N           -1.33668501743934       -0.52645171776367       -0.19276842907397
C           -2.57593006723347       -0.21201374969021       -0.42627114815758
C           -3.10436218263345        1.00109725449505        0.32733108626907
C           -1.93018749789517        1.74269531500020        0.98532989969246
C           -4.07956145841078        0.53001709477525        1.41635299724514
N           -3.79201197693601        1.90218328462788       -0.59230167344281
N           -3.35143367835727       -0.97066325266780       -1.25487548386733
C           -4.75733513403995       -0.68052215050344       -1.56825538342656
C           -2.88506454308499       -2.12822475551420       -1.87089403687390
O           -3.61701470807597       -2.80389135954463       -2.57273961331077
C           -1.47656094157760       -2.44522468514344       -1.60740329705555
O           -1.02589630781688       -3.53901569862601       -2.21180949455909
H            4.59046527746715       -0.45490845505943        2.84275631930314
H            5.26256154762688       -1.40175965005523        1.51638243171746
H            6.19585941083129       -0.06253687751938        2.20473883564283
H            2.21157010790175       -2.91010541883310       -0.68305610713126
H            6.27148635391737        1.85734433106026        0.86302382785645
H            2.97443462047891        2.99625955567116       -1.61986882146331
H            1.71065893069915        1.01457036249247       -0.84305591924620
H            3.02918043280492       -1.82146001135267        0.64017119275721
H            2.44143519398862       -0.89891385285115        2.03092746518445
H            0.50412400850860       -0.23798890891848        0.76398417436566
H           -1.19777135270945        2.02680209154949        0.23213860439841
H           -1.44381453544532        1.10944146456262        1.72485941292187
H           -2.30094045642537        2.64118533192440        1.47597038493031
H           -3.58736182682184       -0.19363439855900        2.06480556275611
H           -4.96429778689219        0.06974842760700        0.98082606324229
H           -4.39008782641903        1.38492817817955        2.01530224013318
H           -4.18591626557593        2.66606863452189       -0.05918621218473
H           -3.11645540288547        2.29255983328881       -1.23506947748971
H           -4.90509620149937       -0.83763054069462       -2.63742007244252
H           -5.39408842580986       -1.37045051404656       -1.01402147016106
H           -4.98959487174669        0.34826937846603       -1.31188017906996
H           -0.09662905746019       -3.73644656669805       -2.01889477213246

          :  Hamiltonian                  GFN1-xTB          :
         :: total energy             -79.546975776073 Eh    ::
         :: gradient norm              0.000258300398 Eh/a0 ::
         :: HOMO-LUMO gap              1.654388389160 eV    ::
         :: SCC energy               -80.450480851555 Eh    ::
         :: -> Gsolv                  -0.123248487587 Eh    ::
         :: repulsion energy           0.934070309954 Eh    ::

    * Orbital Energies and Occupations

         #    Occupation            Energy/Eh            Energy/eV
      -------------------------------------------------------------
         1        2.0000           -0.8869712             -24.1357
       ...           ...                  ...                  ...
        55        2.0000           -0.5126850             -13.9509
        56        2.0000           -0.5102633             -13.8850
        57        2.0000           -0.5071807             -13.8011
        58        2.0000           -0.5034293             -13.6990
        59        2.0000           -0.4960670             -13.4987
        60        2.0000           -0.4864707             -13.2375
        61        2.0000           -0.4834247             -13.1547
        62        2.0000           -0.4760969             -12.9553
        63        2.0000           -0.4700637             -12.7911
        64        2.0000           -0.4562695             -12.4157
        65        2.0000           -0.4471625             -12.1679
        66        2.0000           -0.4452063             -12.1147
        67        2.0000           -0.4232668             -11.5177 (HOMO)
        68                         -0.3624691              -9.8633 (LUMO)
        69                         -0.3021009              -8.2206
        70                         -0.2819629              -7.6726
        71                         -0.2775007              -7.5512
        72                         -0.2762407              -7.5169
        73                         -0.1838429              -5.0026
        74                         -0.1791811              -4.8758
        75                         -0.1557685              -4.2387
        76                         -0.1463293              -3.9818
        77                         -0.1450447              -3.9469
        78                         -0.1414540              -3.8492
       ...                                ...                  ...
       144                          0.6908921              18.8001
      -------------------------------------------------------------
                  HL-Gap            0.0607977 Eh            1.6544 eV

Wiberg/Mayer (AO) data.
largest (>0.10) Wiberg bond orders for each atom

     #   Z sym  total        # sym  WBO       # sym  WBO       # sym  WBO
 ---------------------------------------------------------------------------
     1   6 C    3.993 --     2 C    1.027    28 H    0.982    27 H    0.969
                            26 H    0.968
     2   6 C    3.987 --     3 C    1.423     8 C    1.377     1 C    1.027
                             6 C    0.107
     3   6 C    3.989 --     2 C    1.423     4 C    1.398    30 H    0.967
                             7 C    0.106
     4   6 C    3.864 --     6 C    1.400     3 C    1.398     5 F    0.933
     5   9 F    1.064 --     4 C    0.933
     6   6 C    3.991 --     7 C    1.435     4 C    1.400    31 H    0.968
                             2 C    0.107
     7   6 C    3.994 --     6 C    1.435     8 C    1.429    32 H    0.968
                             3 C    0.106
     8   6 C    3.977 --     7 C    1.429     2 C    1.377     9 C    0.989
     9   6 C    3.915 --     8 C    0.989    33 H    0.960    34 H    0.953
                            10 N    0.925
    10   7 N    3.491 --    11 C    1.474     9 C    0.925    35 H    0.862
                            12 O    0.106
    11   6 C    3.871 --    10 N    1.474    12 O    1.169    13 C    1.101
    12   8 O    2.149 --    11 C    1.169    29 H    0.778    10 N    0.106
    13   6 C    3.959 --    24 C    1.442    14 N    1.172    11 C    1.101
    14   7 N    3.048 --    15 C    1.542    13 C    1.172
    15   6 C    3.913 --    14 N    1.542    20 N    1.194    16 C    0.975
    16   6 C    3.964 --    17 C    0.991    19 N    0.983    18 C    0.980
                            15 C    0.975
    17   6 C    3.994 --    16 C    0.991    36 H    0.984    38 H    0.983
                            37 H    0.983
    18   6 C    3.992 --    39 H    0.985    40 H    0.982    41 H    0.982
                            16 C    0.980
    19   7 N    2.995 --    16 C    0.983    43 H    0.939    42 H    0.936
    20   7 N    3.521 --    15 C    1.194    22 C    1.119    21 C    0.921
                            23 O    0.139
    21   6 C    3.909 --    44 H    0.975    45 H    0.975    46 H    0.966
                            20 N    0.921
    22   6 C    3.917 --    23 O    1.602    20 N    1.119    24 C    1.053
    23   8 O    1.911 --    22 C    1.602    20 N    0.139
    24   6 C    3.912 --    13 C    1.442    25 O    1.136    22 C    1.053
    25   8 O    2.117 --    24 C    1.136    47 H    0.798
    26   1 H    0.999 --     1 C    0.968
    27   1 H    0.999 --     1 C    0.969
    28   1 H    0.999 --     1 C    0.982
    29   1 H    0.806 --    12 O    0.778
    30   1 H    0.996 --     3 C    0.967
    31   1 H    0.996 --     6 C    0.968
    32   1 H    1.000 --     7 C    0.968
    33   1 H    0.998 --     9 C    0.960
    34   1 H    0.995 --     9 C    0.953
    35   1 H    0.946 --    10 N    0.862
    36   1 H    1.008 --    17 C    0.984
    37   1 H    1.009 --    17 C    0.983
    38   1 H    1.001 --    17 C    0.983
    39   1 H    1.002 --    18 C    0.985
    40   1 H    1.002 --    18 C    0.982
    41   1 H    0.998 --    18 C    0.982
    42   1 H    0.950 --    19 N    0.936
    43   1 H    0.953 --    19 N    0.939
    44   1 H    1.005 --    21 C    0.975
    45   1 H    1.002 --    21 C    0.975
    46   1 H    1.027 --    21 C    0.966
    47   1 H    0.838 --    25 O    0.798
 ---------------------------------------------------------------------------

           -------------------------------------------------
          | TOTAL ENERGY              -79.546975776073 Eh   |
          | GRADIENT NORM               0.000258300398 Eh/α |
          | HOMO-LUMO GAP               1.654388389160 eV   |
           -------------------------------------------------

 * finished run on 2023/06/20 at 15:28:42.168
