   * xtb version 6.5.1 (579679a) compiled by 'ehlert@majestix' on 2022-07-11
          program call               : /lustre/hpc/kemi/ree/PhD/git/ReactivityQM/dep/xtb-6.5.1/bin/xtb --gfn 1 /lustre/hpc/kemi/ree/PhD/git/ReactivityQM/calculations/R02deprot/reac01prodN12/conf08/R02deprot_reac01prodN12_conf08_gfn1.xyz --opt --vfukui --chrg 0 --uhf 0 --alpb DMSO

   ID    Z sym.   atoms
    1    6 C      1, 3, 5, 7-10, 12, 13, 15, 18, 19, 22, 24
    2    8 O      2, 4, 14, 20, 23, 25
    3    7 N      6, 11, 16, 17, 21
    4    1 H      26-42

      * Solvation model:               ALPB
        Solvent                        DMSO
        Solvent mass                       7.8130E+01 g/mol
          :  Hamiltonian                  GFN1-xTB          :
 * total energy  :   -82.8374041 Eh     change       -0.8094929E-09 Eh
 * total energy  :   -82.8507704 Eh     change       -0.1336635E-01 Eh
 * total energy  :   -82.8571708 Eh     change       -0.6400327E-02 Eh
 * total energy  :   -82.8589607 Eh     change       -0.1789928E-02 Eh
 * total energy  :   -82.8600504 Eh     change       -0.1089761E-02 Eh
 * total energy  :   -82.8605235 Eh     change       -0.4730941E-03 Eh
 * total energy  :   -82.8608679 Eh     change       -0.3443869E-03 Eh
 * total energy  :   -82.8610769 Eh     change       -0.2089804E-03 Eh
 * total energy  :   -82.8612260 Eh     change       -0.1490672E-03 Eh
 * total energy  :   -82.8613517 Eh     change       -0.1257091E-03 Eh
 * total energy  :   -82.8623939 Eh     change       -0.1088763E-04 Eh
 * total energy  :   -82.8624010 Eh     change       -0.7104141E-05 Eh
 * total energy  :   -82.8623510 Eh     change        0.5006008E-04 Eh
 * total energy  :   -82.8624040 Eh     change       -0.5300966E-04 Eh
 * total energy  :   -82.8623992 Eh     change        0.4783190E-05 Eh
 * total energy  :   -82.8624178 Eh     change       -0.1856391E-04 Eh
 * total energy  :   -82.8624248 Eh     change       -0.6975796E-05 Eh
 * total energy  :   -82.8624330 Eh     change       -0.8260472E-05 Eh
 * total energy  :   -82.8624354 Eh     change       -0.2410752E-05 Eh
   *** GEOMETRY OPTIMIZATION CONVERGED AFTER 44 ITERATIONS ***

 final structure:
================
42
 xtb: 6.5.1 (579679a)
C            4.63659675415918        2.93936817139380        1.56365075642658
O            3.80505345846415        1.91261984661661        1.01126552521412
C            4.40391883174552        0.77085152783030        0.69361975964231
O            5.58099572180755        0.56003647364735        0.85403266347648
C            3.43829694077635       -0.21827318724103        0.10607253885562
N            2.14662856054569        0.12444586706501        0.08376605316633
C            1.25748930073133       -0.78340217053356       -0.34612624306781
C           -0.19491606495682       -0.34801696361444       -0.25643167422698
C           -0.33936465300624        0.64534930194319       -1.44261581690776
C           -0.49805719408754        0.36698049634622        1.06575017177454
N           -1.00061455967953       -1.50550257984072       -0.42695183058316
C           -2.47420246978417       -1.51688496489301       -0.81824530556603
C           -3.01159868685944       -2.91521000411635       -0.47945716528002
O           -2.28027112536235       -1.25375882832875       -2.08873266761227
C           -3.25151548512102       -0.48968418067068       -0.01772637362689
N           -3.80226277422029       -0.67775601397350        1.13810570553890
N           -4.46320253701319        0.48152441289664        1.45212161317143
C           -4.27425172906989        1.29415409298358        0.46281464910362
C           -4.77262891077844        2.68007679042657        0.31769598236994
O           -3.51539730915789        0.73965302661353       -0.50144162152990
N            1.51614699331468       -1.95640643922658       -0.85788448434027
C            2.81266470160745       -2.37707245798476       -0.95842201915372
O            3.17355503664293       -3.43164812084673       -1.46127043028997
C            3.83361498872938       -1.45323546066677       -0.40300337522295
O            5.08569964778860       -1.83014675992511       -0.52770663007579
H            5.09286342873405        2.59174224958253        2.49313875644415
H            3.98903585629979        3.79234612945072        1.75348468199344
H            5.42076278308516        3.20704281534646        0.85194951473176
H           -1.35754485538876        1.02477466389162       -1.45284421632109
H            0.36177594397818        1.46666653174943       -1.31312028950481
H           -0.13633522032568        0.12084675321930       -2.37294148592724
H           -0.48229426505445       -0.35083746714879        1.88408738412528
H            0.26578566073349        1.12286787970669        1.23783155246401
H           -1.46988083263813        0.85147130351290        1.03384419615013
H           -0.51252996677407       -2.20404669398999       -0.99720786487931
H           -4.04633477509622       -2.98126188565308       -0.80890022423166
H           -2.95948700810416       -3.08475737836549        0.59341657348009
H           -2.42210691933328       -3.66373730364263       -1.00328886260851
H           -5.27801150062054        2.79824998735503       -0.64017765188002
H           -5.46095612586933        2.90763368030251        1.12806297851308
H           -3.93681962826118        3.37942626928825        0.34752293042226
H            5.11969798741672       -2.73649041050691       -0.89773675422723

          :  Hamiltonian                  GFN1-xTB          :
         :: total energy             -82.862435425575 Eh    ::
         :: gradient norm              0.000428262493 Eh/a0 ::
         :: HOMO-LUMO gap              0.163262020904 eV    ::
         :: SCC energy               -83.615492354511 Eh    ::
         :: -> Gsolv                  -0.051144531982 Eh    ::
         :: repulsion energy           0.779839099087 Eh    ::

    * Orbital Energies and Occupations

         #    Occupation            Energy/Eh            Energy/eV
      -------------------------------------------------------------
         1        2.0000           -0.8622736             -23.4637
       ...           ...                  ...                  ...
        55        2.0000           -0.5043679             -13.7246
        56        2.0000           -0.5025552             -13.6752
        57        2.0000           -0.5015760             -13.6486
        58        2.0000           -0.4906121             -13.3502
        59        2.0000           -0.4875850             -13.2679
        60        2.0000           -0.4808579             -13.0848
        61        2.0000           -0.4760521             -12.9540
        62        2.0000           -0.4696982             -12.7811
        63        2.0000           -0.4579239             -12.4607
        64        2.0000           -0.4530069             -12.3269
        65        2.0000           -0.4440341             -12.0828
        66        1.9991           -0.4359352             -11.8624
        67        1.9189           -0.4316138             -11.7448 (HOMO)
        68        0.0820           -0.4256140             -11.5815 (LUMO)
        69                         -0.3251344              -8.8474
        70                         -0.2934444              -7.9850
        71                         -0.2734295              -7.4404
        72                         -0.2530882              -6.8869
        73                         -0.2403592              -6.5405
        74                         -0.1690021              -4.5988
        75                         -0.1436130              -3.9079
        76                         -0.1408398              -3.8324
        77                         -0.1331947              -3.6244
        78                         -0.1264166              -3.4400
       ...                                ...                  ...
       134                          0.7334434              19.9580
      -------------------------------------------------------------
                  HL-Gap            0.0059998 Eh            0.1633 eV

Wiberg/Mayer (AO) data.
largest (>0.10) Wiberg bond orders for each atom

     #   Z sym  total        # sym  WBO       # sym  WBO       # sym  WBO
 ---------------------------------------------------------------------------
     1   6 C    3.864 --    27 H    0.986    26 H    0.979    28 H    0.979
                             2 O    0.891
     2   8 O    2.210 --     3 C    1.128     1 C    0.891     4 O    0.140
     3   6 C    3.849 --     4 O    1.672     2 O    1.128     5 C    0.974
     4   8 O    1.930 --     3 C    1.672     2 O    0.140
     5   6 C    3.933 --     6 N    1.362    24 C    1.331     3 C    0.974
     6   7 N    2.995 --     5 C    1.362     7 C    1.288
     7   6 C    3.937 --    21 N    1.486     6 N    1.288     8 C    0.958
     8   6 C    3.933 --    11 N    1.033    10 C    0.969     7 C    0.958
                             9 C    0.877
     9   6 C    3.944 --    30 H    0.984    31 H    0.979    29 H    0.967
                             8 C    0.877
    10   6 C    3.980 --    32 H    0.983    34 H    0.981    33 H    0.980
                             8 C    0.969
    11   7 N    3.286 --     8 C    1.033    35 H    0.872    12 C    0.760
                            14 O    0.182
    12   6 C    3.880 --    14 O    1.147    13 C    0.963    15 C    0.947
                            11 N    0.760
    13   6 C    3.989 --    37 H    0.986    38 H    0.983    36 H    0.981
                            12 C    0.963
    14   8 O    1.652 --    12 C    1.147    11 N    0.182
    15   6 C    3.869 --    16 N    1.648    20 O    1.063    12 C    0.947
    16   7 N    2.991 --    15 C    1.648    17 N    1.172
    17   7 N    2.979 --    18 C    1.633    16 N    1.172
    18   6 C    3.869 --    17 N    1.633    20 O    1.063    19 C    1.030
    19   6 C    3.987 --    18 C    1.030    40 H    0.982    39 H    0.967
                            41 H    0.962
    20   8 O    2.326 --    15 C    1.063    18 C    1.063
    21   7 N    3.064 --     7 C    1.486    22 C    1.161
    22   6 C    3.888 --    23 O    1.594    21 N    1.161    24 C    1.002
    23   8 O    1.875 --    22 C    1.594
    24   6 C    3.784 --     5 C    1.331    25 O    1.194    22 C    1.002
    25   8 O    2.091 --    24 C    1.194    42 H    0.785
    26   1 H    1.005 --     1 C    0.979
    27   1 H    1.010 --     1 C    0.986
    28   1 H    1.005 --     1 C    0.979
    29   1 H    1.014 --     9 C    0.967
    30   1 H    1.003 --     9 C    0.984
    31   1 H    1.010 --     9 C    0.979
    32   1 H    1.000 --    10 C    0.983
    33   1 H    1.011 --    10 C    0.980
    34   1 H    1.002 --    10 C    0.981
    35   1 H    0.952 --    11 N    0.872
    36   1 H    1.002 --    13 C    0.981
    37   1 H    1.009 --    13 C    0.986
    38   1 H    1.001 --    13 C    0.983
    39   1 H    0.997 --    19 C    0.967
    40   1 H    0.999 --    19 C    0.982
    41   1 H    0.998 --    19 C    0.962
    42   1 H    0.832 --    25 O    0.785
 ---------------------------------------------------------------------------

           -------------------------------------------------
          | TOTAL ENERGY              -82.862435425575 Eh   |
          | GRADIENT NORM               0.000428262493 Eh/α |
          | HOMO-LUMO GAP               0.163262020904 eV   |
           -------------------------------------------------

 * finished run on 2023/06/20 at 18:21:01.634
