   * xtb version 6.5.1 (579679a) compiled by 'ehlert@majestix' on 2022-07-11
          program call               : /lustre/hpc/kemi/ree/PhD/git/ReactivityQM/dep/xtb-6.5.1/bin/xtb --gfn 1 /lustre/hpc/kemi/ree/PhD/git/ReactivityQM/calculations/R02deprot/reac01prodN14/conf10/R02deprot_reac01prodN14_conf10_gfn1.xyz --opt --vfukui --chrg 0 --uhf 0 --alpb DMSO

   ID    Z sym.   atoms
    1    6 C      1, 3, 5, 7-10, 12, 14, 17-19, 22, 24
    2    8 O      2, 4, 13, 20, 23, 25
    3    7 N      6, 11, 15, 16, 21
    4    1 H      26-42

      * Solvation model:               ALPB
        Solvent                        DMSO
        Solvent mass                       7.8130E+01 g/mol
          :  Hamiltonian                  GFN1-xTB          :
 * total energy  :   -82.9141990 Eh     change       -0.5850609E-10 Eh
 * total energy  :   -82.9250570 Eh     change       -0.1085802E-01 Eh
 * total energy  :   -82.9286540 Eh     change       -0.3596987E-02 Eh
 * total energy  :   -82.9291601 Eh     change       -0.5060795E-03 Eh
 * total energy  :   -82.9295220 Eh     change       -0.3618980E-03 Eh
 * total energy  :   -82.9297128 Eh     change       -0.1907945E-03 Eh
 * total energy  :   -82.9299405 Eh     change       -0.2277263E-03 Eh
 * total energy  :   -82.9301804 Eh     change       -0.2399121E-03 Eh
 * total energy  :   -82.9303952 Eh     change       -0.2148059E-03 Eh
 * total energy  :   -82.9305528 Eh     change       -0.1576070E-03 Eh
 * total energy  :   -82.9324204 Eh     change       -0.7374512E-05 Eh
 * total energy  :   -82.9324268 Eh     change       -0.6400524E-05 Eh
 * total energy  :   -82.9324335 Eh     change       -0.6692483E-05 Eh
 * total energy  :   -82.9324406 Eh     change       -0.7024538E-05 Eh
 * total energy  :   -82.9324483 Eh     change       -0.7793842E-05 Eh
 * total energy  :   -82.9324567 Eh     change       -0.8394133E-05 Eh
 * total energy  :   -82.9324651 Eh     change       -0.8336269E-05 Eh
 * total energy  :   -82.9324728 Eh     change       -0.7716410E-05 Eh
 * total energy  :   -82.9324760 Eh     change       -0.3224877E-05 Eh
   *** GEOMETRY OPTIMIZATION CONVERGED AFTER 68 ITERATIONS ***

 final structure:
================
42
 xtb: 6.5.1 (579679a)
C           -6.90581639638968       -0.53610769285210       -1.56711315332318
O           -5.58626228340219       -0.87595590995709       -1.13340476395546
C           -4.73694895036810        0.13488943325877       -0.96189046223827
O           -5.03990273017354        1.29299615081174       -1.13905295919320
C           -3.37075526876150       -0.30765771689596       -0.54378947676092
N           -2.45949628073375        0.67998970733313       -0.46347767291073
C           -1.20397977268505        0.36863168739649       -0.13659266153071
C           -0.24153767527056        1.53982144132047       -0.08456047604729
C           -0.26122887206068        2.28297162091812       -1.42768373213459
C           -0.64925541335722        2.47314388535707        1.06484940851769
N            1.08890225691756        0.99042860864384        0.15813501950274
C            2.20464864782304        1.72209514256007        0.25034425271475
O            2.28679100587039        2.93870972730525        0.19379002320282
C            3.42145105535334        0.87402571786675        0.42421510391826
N            4.67854059630901        1.34607972237456        0.55311460142571
N            5.47691924895929        0.35174514585433        0.64308808827301
C            4.72786567279687       -0.87225741701127        0.56355146318655
C            4.88460554731931       -1.68806857190781        1.84812385401424
C            5.13459311718327       -1.66216137252723       -0.68351194371490
O            3.37452265220175       -0.43033771175147        0.42841879022591
N           -0.73225635175515       -0.82977617395723        0.13588033917338
C           -1.58705662926073       -1.89458846267274        0.10352158428670
O           -1.26221867764341       -3.05435898440207        0.36113809241364
C           -2.98674613464903       -1.60963877462310       -0.26763052994650
O           -3.79661267005076       -2.66082354934210       -0.29524795251335
H           -6.86390334128496       -0.04255023173426       -2.54111130219688
H           -7.45956707691676       -1.46973434314285       -1.64067441961316
H           -7.38029965266398        0.13146853875659       -0.84389149756263
H           -1.28649934137292        2.57053959095095       -1.65663197609926
H            0.36089413041241        3.17453503408225       -1.37660914670275
H            0.11143024257515        1.63138740224818       -2.21632589447027
H           -1.67894449464660        2.79299065257275        0.91073948697465
H           -0.00092303015613        3.34710057234744        1.08964372443332
H           -0.57726634473371        1.94579221554249        2.01462125483729
H            1.13147419290380       -0.02185270098835        0.23747466664328
H            5.92708642584113       -1.97436877931443        1.96102839443222
H            4.57527254115114       -1.08642013534975        2.69987969279463
H            4.26331388427261       -2.57812967231857        1.78483068021661
H            4.98732629697576       -1.04388399010497       -1.56640479605580
H            6.18185631238739       -1.94089640938213       -0.60102068546470
H            4.51943868926126       -2.55550378374933       -0.75654036881333
H           -3.26945412818777       -3.45427161352791       -0.06496564993172

          :  Hamiltonian                  GFN1-xTB          :
         :: total energy             -82.932476019377 Eh    ::
         :: gradient norm              0.000210180508 Eh/a0 ::
         :: HOMO-LUMO gap              0.061496882282 eV    ::
         :: SCC energy               -83.691395919442 Eh    ::
         :: -> Gsolv                  -0.055195064857 Eh    ::
         :: repulsion energy           0.784178528935 Eh    ::

    * Orbital Energies and Occupations

         #    Occupation            Energy/Eh            Energy/eV
      -------------------------------------------------------------
         1        2.0000           -0.8881442             -24.1676
       ...           ...                  ...                  ...
        55        2.0000           -0.5104884             -13.8911
        56        2.0000           -0.5017911             -13.6544
        57        2.0000           -0.5006140             -13.6224
        58        2.0000           -0.4943609             -13.4522
        59        2.0000           -0.4864185             -13.2361
        60        2.0000           -0.4802194             -13.0674
        61        2.0000           -0.4746789             -12.9167
        62        2.0000           -0.4677821             -12.7290
        63        2.0000           -0.4663623             -12.6904
        64        2.0000           -0.4568791             -12.4323
        65        2.0000           -0.4461374             -12.1400
        66        1.9991           -0.4166535             -11.3377
        67        1.5337           -0.4104529             -11.1690 (HOMO)
        68        0.4672           -0.4081930             -11.1075 (LUMO)
        69                         -0.3227544              -8.7826
        70                         -0.3082826              -8.3888
        71                         -0.2715775              -7.3900
        72                         -0.2244909              -6.1087
        73                         -0.2214788              -6.0267
        74                         -0.1475320              -4.0146
        75                         -0.1456490              -3.9633
        76                         -0.1402257              -3.8157
        77                         -0.1359546              -3.6995
        78                         -0.1213260              -3.3014
       ...                                ...                  ...
       134                          0.7297137              19.8565
      -------------------------------------------------------------
                  HL-Gap            0.0022600 Eh            0.0615 eV

Wiberg/Mayer (AO) data.
largest (>0.10) Wiberg bond orders for each atom

     #   Z sym  total        # sym  WBO       # sym  WBO       # sym  WBO
 ---------------------------------------------------------------------------
     1   6 C    3.872 --    27 H    0.986    28 H    0.979    26 H    0.979
                             2 O    0.897
     2   8 O    2.202 --     3 C    1.116     1 C    0.897     4 O    0.135
     3   6 C    3.845 --     4 O    1.659     2 O    1.116     5 C    0.990
     4   8 O    1.917 --     3 C    1.659     2 O    0.135
     5   6 C    3.917 --    24 C    1.377     6 N    1.313     3 C    0.990
     6   7 N    2.854 --     7 C    1.336     5 C    1.313
     7   6 C    3.911 --    21 N    1.452     6 N    1.336     8 C    0.982
     8   6 C    3.923 --     7 C    0.982     9 C    0.974    10 C    0.971
                            11 N    0.925
     9   6 C    3.982 --    31 H    0.986    29 H    0.982    30 H    0.982
                             8 C    0.974
    10   6 C    3.981 --    34 H    0.986    32 H    0.984    33 H    0.981
                             8 C    0.971
    11   7 N    3.383 --    12 C    1.293     8 C    0.925    35 H    0.866
                            13 O    0.202
    12   6 C    3.922 --    13 O    1.567    11 N    1.293    14 C    0.979
    13   8 O    1.885 --    12 C    1.567    11 N    0.202
    14   6 C    3.637 --    15 N    1.291    20 O    1.204    12 C    0.979
    15   7 N    2.993 --    16 N    1.565    14 C    1.291
    16   7 N    2.721 --    15 N    1.565    17 C    1.027
    17   6 C    3.833 --    16 N    1.027    18 C    0.937    19 C    0.933
                            20 O    0.870
    18   6 C    3.941 --    37 H    0.982    36 H    0.981    38 H    0.980
                            17 C    0.937
    19   6 C    3.939 --    39 H    0.982    40 H    0.981    41 H    0.980
                            17 C    0.933
    20   8 O    2.231 --    14 C    1.204    17 C    0.870
    21   7 N    2.968 --     7 C    1.452    22 C    1.180
    22   6 C    3.874 --    23 O    1.554    21 N    1.180    24 C    1.031
    23   8 O    1.781 --    22 C    1.554
    24   6 C    3.733 --     5 C    1.377    25 O    1.146    22 C    1.031
    25   8 O    2.058 --    24 C    1.146    42 H    0.795
    26   1 H    1.007 --     1 C    0.979
    27   1 H    1.011 --     1 C    0.986
    28   1 H    1.007 --     1 C    0.979
    29   1 H    1.010 --     9 C    0.982
    30   1 H    1.007 --     9 C    0.982
    31   1 H    1.001 --     9 C    0.986
    32   1 H    1.006 --    10 C    0.984
    33   1 H    1.007 --    10 C    0.981
    34   1 H    1.001 --    10 C    0.986
    35   1 H    0.956 --    11 N    0.866
    36   1 H    0.996 --    18 C    0.981
    37   1 H    0.996 --    18 C    0.982
    38   1 H    0.995 --    18 C    0.980
    39   1 H    0.996 --    19 C    0.982
    40   1 H    0.996 --    19 C    0.981
    41   1 H    0.995 --    19 C    0.980
    42   1 H    0.847 --    25 O    0.795
 ---------------------------------------------------------------------------

           -------------------------------------------------
          | TOTAL ENERGY              -82.932476019377 Eh   |
          | GRADIENT NORM               0.000210180508 Eh/α |
          | HOMO-LUMO GAP               0.061496882282 eV   |
           -------------------------------------------------

 * finished run on 2023/06/20 at 18:24:03.717
