   * xtb version 6.5.1 (579679a) compiled by 'ehlert@majestix' on 2022-07-11
          program call               : /lustre/hpc/kemi/ree/PhD/git/ReactivityQM/dep/xtb-6.5.1/bin/xtb --gfn 1 /lustre/hpc/kemi/ree/PhD/git/ReactivityQM/calculations/RaltegravirCLI/reac01prodE01/conf01/RaltegravirCLI_reac01prodE01_conf01_gfn1.xyz --opt --vfukui --chrg -1 --uhf 0 --alpb DMSO

   ID    Z sym.   atoms
    1    6 C      1, 2, 5-7
    2    7 N      3, 4
    3    8 O      8, 10
    4   17 Cl     9
    5    1 H      11-16

      * Solvation model:               ALPB
        Solvent                        DMSO
        Solvent mass                       7.8130E+01 g/mol
          :  Hamiltonian                  GFN1-xTB          :
 * total energy  :   -34.1593096 Eh     change       -0.1620037E-11 Eh
 * total energy  :   -34.1707112 Eh     change       -0.1140156E-01 Eh
 * total energy  :   -34.1815684 Eh     change       -0.1085717E-01 Eh
 * total energy  :   -34.1858521 Eh     change       -0.4283747E-02 Eh
 * total energy  :   -34.1929943 Eh     change       -0.7142241E-02 Eh
 * total energy  :   -34.1992250 Eh     change       -0.6230646E-02 Eh
 * total energy  :   -34.2029873 Eh     change       -0.3762295E-02 Eh
 * total energy  :   -34.2047074 Eh     change       -0.1720155E-02 Eh
 * total energy  :   -34.2065550 Eh     change       -0.1847595E-02 Eh
 * total energy  :   -34.2071858 Eh     change       -0.6307278E-03 Eh
 * total energy  :   -34.2088984 Eh     change       -0.2136116E-04 Eh
 * total energy  :   -34.2089086 Eh     change       -0.1013983E-04 Eh
 * total energy  :   -34.2089391 Eh     change       -0.3051757E-04 Eh
 * total energy  :   -34.2089518 Eh     change       -0.1268714E-04 Eh
 * total energy  :   -34.2089676 Eh     change       -0.1580289E-04 Eh
 * total energy  :   -34.2089847 Eh     change       -0.1710342E-04 Eh
 * total energy  :   -34.2089907 Eh     change       -0.6034081E-05 Eh
 * total energy  :   -34.2089915 Eh     change       -0.8264709E-06 Eh
 * total energy  :   -34.2089963 Eh     change       -0.4747012E-05 Eh
   *** GEOMETRY OPTIMIZATION CONVERGED AFTER 35 ITERATIONS ***

 final structure:
================
16
 xtb: 6.5.1 (579679a)
C            2.80903375429478       -0.60037028247386        0.25452603267458
C            1.64151987841654       -0.03801759820998       -0.45730795658690
N            1.64810198844113        0.78749131604122       -1.46171461550132
N            0.34966227297532        1.01030673291063       -1.79131634518959
C           -0.37584810992193        0.31205297311591       -0.96619871003516
C           -1.85342309588936        0.21179869038854       -0.91871286709762
C           -2.39390180532830       -0.50483078270133        0.27937574654085
O           -2.53867327553492        0.68372255914287       -1.79694121488485
Cl          -1.43664919916464        2.75513057689900        1.65544433487009
O            0.39852826805139       -0.37377872698097       -0.09649951962331
H            2.82742733567196       -0.24642278981021        1.28565800501101
H            2.74072386243100       -1.68715870129958        0.27432387763016
H            3.72447407361094       -0.29928254388186       -0.24817790558273
H           -2.20250065328521        0.11050271927511        1.16023529607302
H           -1.87600395097284       -1.45135320425590        0.41433405690675
H           -3.46247034379510       -0.66978993816259        0.17215978479434

          :  Hamiltonian                  GFN1-xTB          :
         :: total energy             -34.208996279700 Eh    ::
         :: gradient norm              0.000784180968 Eh/a0 ::
         :: HOMO-LUMO gap              3.341530251196 eV    ::
         :: SCC energy               -34.493393790664 Eh    ::
         :: -> Gsolv                  -0.113439830877 Eh    ::
         :: repulsion energy           0.291535508248 Eh    ::

    * Orbital Energies and Occupations

         #    Occupation            Energy/Eh            Energy/eV
      -------------------------------------------------------------
         1        2.0000           -0.8597244             -23.3943
       ...           ...                  ...                  ...
        16        2.0000           -0.5436432             -14.7933
        17        2.0000           -0.5381967             -14.6451
        18        2.0000           -0.5318187             -14.4715
        19        2.0000           -0.5194670             -14.1354
        20        2.0000           -0.5153204             -14.0226
        21        2.0000           -0.5008869             -13.6298
        22        2.0000           -0.4761925             -12.9579
        23        2.0000           -0.4737721             -12.8920
        24        2.0000           -0.4737292             -12.8908
        25        2.0000           -0.4727402             -12.8639
        26        2.0000           -0.4586756             -12.4812
        27        2.0000           -0.4514172             -12.2837
        28        2.0000           -0.4435362             -12.0692 (HOMO)
        29                         -0.3207372              -8.7277 (LUMO)
        30                         -0.2535365              -6.8991
        31                         -0.2080257              -5.6607
        32                         -0.1408668              -3.8332
        33                         -0.1221311              -3.3234
        34                         -0.0732993              -1.9946
        35                         -0.0723497              -1.9687
        36                         -0.0608456              -1.6557
        37                         -0.0515062              -1.4016
        38                          0.0367111               0.9990
        39                          0.0367149               0.9991
       ...                                ...                  ...
        57                          0.7189392              19.5633
      -------------------------------------------------------------
                  HL-Gap            0.1227990 Eh            3.3415 eV

Wiberg/Mayer (AO) data.
largest (>0.10) Wiberg bond orders for each atom

     #   Z sym  total        # sym  WBO       # sym  WBO       # sym  WBO
 ---------------------------------------------------------------------------
     1   6 C    3.987 --     2 C    1.032    13 H    0.983    12 H    0.966
                            11 H    0.961
     2   6 C    3.873 --     3 N    1.589    10 O    1.091     1 C    1.032
     3   7 N    2.982 --     2 C    1.589     4 N    1.216
     4   7 N    3.003 --     5 C    1.600     3 N    1.216
     5   6 C    3.868 --     4 N    1.600    10 O    1.046     6 C    1.010
     6   6 C    3.862 --     8 O    1.745     7 C    1.015     5 C    1.010
     7   6 C    3.992 --     6 C    1.015    16 H    0.983    15 H    0.964
                            14 H    0.943
     8   8 O    1.967 --     6 C    1.745
     9  17 Cl   0.023
    10   8 O    2.326 --     2 C    1.091     5 C    1.046
    11   1 H    0.996 --     1 C    0.961
    12   1 H    0.997 --     1 C    0.966
    13   1 H    0.999 --     1 C    0.983
    14   1 H    1.010 --     7 C    0.943
    15   1 H    1.002 --     7 C    0.964
    16   1 H    1.001 --     7 C    0.983
 ---------------------------------------------------------------------------

           -------------------------------------------------
          | TOTAL ENERGY              -34.208996279700 Eh   |
          | GRADIENT NORM               0.000784180968 Eh/α |
          | HOMO-LUMO GAP               3.341530251196 eV   |
           -------------------------------------------------

 * finished run on 2023/06/20 at 14:52:09.629
