   * xtb version 6.5.1 (579679a) compiled by 'ehlert@majestix' on 2022-07-11
          program call               : /lustre/hpc/kemi/ree/PhD/git/ReactivityQM/dep/xtb-6.5.1/bin/xtb --gfn 1 /lustre/hpc/kemi/ree/PhD/git/ReactivityQM/calculations/R02oxygendeprot/reac01prodE06/conf15/R02oxygendeprot_reac01prodE06_conf15_gfn1.xyz --opt --vfukui --chrg -2 --uhf 0 --alpb DMSO

   ID    Z sym.   atoms
    1    6 C      1, 3, 5, 6, 8, 11-15, 17, 19, 22, 23
    2    8 O      2, 4, 7, 9, 18, 24
    3    7 N      10, 16, 20, 21, 25
    4    1 H      26-42

      * Solvation model:               ALPB
        Solvent                        DMSO
        Solvent mass                       7.8130E+01 g/mol
          :  Hamiltonian                  GFN1-xTB          :
 * total energy  :   -83.6065632 Eh     change       -0.1047056E-09 Eh
 * total energy  :   -83.6179144 Eh     change       -0.1135122E-01 Eh
 * total energy  :   -83.6219070 Eh     change       -0.3992555E-02 Eh
 * total energy  :   -83.6228243 Eh     change       -0.9172982E-03 Eh
 * total energy  :   -83.6233809 Eh     change       -0.5566039E-03 Eh
 * total energy  :   -83.6236059 Eh     change       -0.2249995E-03 Eh
 * total energy  :   -83.6237560 Eh     change       -0.1501183E-03 Eh
 * total energy  :   -83.6238716 Eh     change       -0.1155747E-03 Eh
 * total energy  :   -83.6239630 Eh     change       -0.9141146E-04 Eh
 * total energy  :   -83.6240447 Eh     change       -0.8166112E-04 Eh
 * total energy  :   -83.6247326 Eh     change       -0.1483538E-04 Eh
 * total energy  :   -83.6247441 Eh     change       -0.1146487E-04 Eh
 * total energy  :   -83.6246979 Eh     change        0.4618592E-04 Eh
 * total energy  :   -83.6247680 Eh     change       -0.7009730E-04 Eh
 * total energy  :   -83.6247739 Eh     change       -0.5879914E-05 Eh
 * total energy  :   -83.6247810 Eh     change       -0.7119286E-05 Eh
 * total energy  :   -83.6247880 Eh     change       -0.6979155E-05 Eh
 * total energy  :   -83.6247906 Eh     change       -0.2669719E-05 Eh
 * total energy  :   -83.6247927 Eh     change       -0.2100227E-05 Eh
   *** GEOMETRY OPTIMIZATION CONVERGED AFTER 44 ITERATIONS ***

 final structure:
================
42
 xtb: 6.5.1 (579679a)
C           -3.51491848974508       -3.30081002757569       -1.26135409980425
O           -2.87356622281060       -2.07805940696626       -0.95773034951307
C           -3.30192576272124       -1.45369278729288        0.20316124322967
O           -4.17379310634505       -1.99450720686116        0.88084470584536
C           -2.60649878300028       -0.20366099681746        0.45570709997021
C           -2.88990525702316        0.54176737778662        1.64206739081981
O           -3.84506704349064        0.31818845452680        2.44744702263843
C           -1.90947460656975        1.62150886757665        1.95661775177625
O           -1.87161422165203        2.24781599738968        3.02652567853194
N           -0.91065415379939        1.83437264965878        1.02649597215619
C           -1.10153383528116        1.44608067889623       -0.36925686636002
C           -2.03637483909471        2.48287121633518       -1.04729152280787
C            0.30327431335221        1.38191884471026       -1.05950510785927
C            0.15928146989781        0.84565939872799       -2.49097888506230
C            1.04248657426884        2.72677983317713       -1.08128949229183
N            1.05188933995408        0.41880505363757       -0.25466415660758
C            2.35151511095363        0.06681611631916       -0.44522795759642
O            3.04057119243124        0.40987540951879       -1.42084714841877
C            2.82821438356574       -0.79531252924833        0.62567915571857
N            2.12430463183028       -1.20945660535878        1.66502492536332
N            2.95362897392365       -2.00385919558797        2.40761011868774
C            4.09434735160378       -2.03326576042830        1.79954964450940
C            5.31765030845258       -2.75625116788682        2.22255401811382
O            4.10133721720214       -1.29908888467608        0.66601087675093
N           -1.66044259514968        0.13173838383305       -0.46717318380892
H           -3.35418125935458       -4.04262939339298       -0.46969008884566
H           -3.08678398160479       -3.66967165065562       -2.19374913692234
H           -4.59453085766801       -3.15986378380951       -1.38958005683051
H           -0.38776198548605        2.68289826596393        1.17505414217502
H           -2.17928807469743        2.23308183508037       -2.09599055098163
H           -3.00613492181029        2.46007487286504       -0.54990673356166
H           -1.62903074328002        3.48833812866875       -0.96764531768534
H            1.13859991781912        0.62275302764442       -2.91184599398674
H           -0.44515385136246       -0.06309785715805       -2.48267330922101
H           -0.32388496338890        1.58670168291194       -3.12545927441429
H            0.48037708260865        3.46029036263325       -1.65577077255078
H            2.01857323760284        2.60397860987026       -1.54989121983579
H            1.19295622540472        3.10940475961137       -0.07290903215197
H            0.61921155957549        0.14888621884866        0.62439344055961
H            5.09909044935960       -3.36000983025981        3.09983643221393
H            5.67464503104822       -3.39888522554312        1.41879270877150
H            6.11056818449022       -2.04848073667009        2.46360792929116

          :  Hamiltonian                  GFN1-xTB          :
         :: total energy             -83.624792724853 Eh    ::
         :: gradient norm              0.000316140110 Eh/a0 ::
         :: HOMO-LUMO gap              0.086858513860 eV    ::
         :: SCC energy               -84.348029419528 Eh    ::
         :: -> Gsolv                  -0.282374893378 Eh    ::
         :: repulsion energy           0.750520448645 Eh    ::

    * Orbital Energies and Occupations

         #    Occupation            Energy/Eh            Energy/eV
      -------------------------------------------------------------
         1        2.0000           -0.8197039             -22.3053
       ...           ...                  ...                  ...
        56        2.0000           -0.4451648             -12.1136
        57        2.0000           -0.4429074             -12.0521
        58        2.0000           -0.4216836             -11.4746
        59        2.0000           -0.4195509             -11.4166
        60        2.0000           -0.4135258             -11.2526
        61        2.0000           -0.4097030             -11.1486
        62        2.0000           -0.4058029             -11.0425
        63        2.0000           -0.3983454             -10.8395
        64        2.0000           -0.3925982             -10.6831
        65        2.0000           -0.3810428             -10.3687
        66        2.0000           -0.3651482              -9.9362
        67        2.0000           -0.3342244              -9.0947
        68        1.6858           -0.2762433              -7.5170 (HOMO)
        69        0.3142           -0.2730513              -7.4301 (LUMO)
        70                         -0.2392784              -6.5111
        71                         -0.2235641              -6.0835
        72                         -0.1653851              -4.5004
        73                         -0.1526481              -4.1538
        74                         -0.1304012              -3.5484
        75                         -0.1140906              -3.1046
        76                         -0.1084538              -2.9512
        77                         -0.1011778              -2.7532
        78                         -0.0881656              -2.3991
        79                         -0.0840048              -2.2859
       ...                                ...                  ...
       134                          0.7544504              20.5296
      -------------------------------------------------------------
                  HL-Gap            0.0031920 Eh            0.0869 eV

Wiberg/Mayer (AO) data.
largest (>0.10) Wiberg bond orders for each atom

     #   Z sym  total        # sym  WBO       # sym  WBO       # sym  WBO
 ---------------------------------------------------------------------------
     1   6 C    3.914 --    27 H    0.987    26 H    0.980    28 H    0.980
                             2 O    0.943
     2   8 O    2.113 --     3 C    0.989     1 C    0.943
     3   6 C    3.814 --     4 O    1.557     5 C    1.124     2 O    0.989
     4   8 O    1.831 --     3 C    1.557
     5   6 C    3.915 --    25 N    1.274     6 C    1.224     3 C    1.124
     6   6 C    3.874 --     7 O    1.416     5 C    1.224     8 C    1.010
     7   8 O    1.663 --     6 C    1.416
     8   6 C    3.858 --     9 O    1.531    10 N    1.145     6 C    1.010
     9   8 O    1.797 --     8 C    1.531    10 N    0.124
    10   7 N    3.245 --     8 C    1.145    11 C    0.925    29 H    0.917
                             9 O    0.124
    11   6 C    3.942 --    25 N    1.024    12 C    0.964    13 C    0.948
                            10 N    0.925
    12   6 C    3.976 --    32 H    0.984    31 H    0.984    30 H    0.983
                            11 C    0.964
    13   6 C    3.933 --    14 C    0.996    15 C    0.994    11 C    0.948
                            16 N    0.931
    14   6 C    3.994 --    13 C    0.996    35 H    0.985    33 H    0.983
                            34 H    0.980
    15   6 C    3.993 --    13 C    0.994    36 H    0.984    38 H    0.982
                            37 H    0.980
    16   7 N    3.279 --    17 C    1.205    13 C    0.931    39 H    0.901
                            18 O    0.149
    17   6 C    3.833 --    18 O    1.474    16 N    1.205    19 C    1.071
    18   8 O    1.755 --    17 C    1.474    16 N    0.149
    19   6 C    3.737 --    20 N    1.476    17 C    1.071    24 O    1.004
    20   7 N    2.845 --    19 C    1.476    21 N    1.184
    21   7 N    2.980 --    22 C    1.627    20 N    1.184
    22   6 C    3.836 --    21 N    1.627    24 O    1.060    23 C    1.026
    23   6 C    3.992 --    22 C    1.026    40 H    0.985    41 H    0.971
                            42 H    0.968
    24   8 O    2.226 --    22 C    1.060    19 C    1.004
    25   7 N    2.650 --     5 C    1.274    11 C    1.024
    26   1 H    1.018 --     1 C    0.980
    27   1 H    1.019 --     1 C    0.987
    28   1 H    1.018 --     1 C    0.980
    29   1 H    0.969 --    10 N    0.917
    30   1 H    1.012 --    12 C    0.983
    31   1 H    1.011 --    12 C    0.984
    32   1 H    1.007 --    12 C    0.984
    33   1 H    1.018 --    14 C    0.983
    34   1 H    1.035 --    14 C    0.980
    35   1 H    1.008 --    14 C    0.985
    36   1 H    1.007 --    15 C    0.984
    37   1 H    1.016 --    15 C    0.980
    38   1 H    1.006 --    15 C    0.982
    39   1 H    0.992 --    16 N    0.901
    40   1 H    1.003 --    23 C    0.985
    41   1 H    1.000 --    23 C    0.971
    42   1 H    1.000 --    23 C    0.968
 ---------------------------------------------------------------------------

           -------------------------------------------------
          | TOTAL ENERGY              -83.624792724853 Eh   |
          | GRADIENT NORM               0.000316140110 Eh/α |
          | HOMO-LUMO GAP               0.086858513860 eV   |
           -------------------------------------------------

 * finished run on 2023/06/21 at 17:07:45.662
