   * xtb version 6.5.1 (579679a) compiled by 'ehlert@majestix' on 2022-07-11
          program call               : /lustre/hpc/kemi/ree/PhD/git/ReactivityQM/dep/xtb-6.5.1/bin/xtb --gfn 1 /lustre/hpc/kemi/ree/PhD/git/ReactivityQM/calculations/RaltegravirCLI/reac02prodE07/conf14/RaltegravirCLI_reac02prodE07_conf14_gfn1.xyz --opt --vfukui --chrg -1 --uhf 0 --alpb DMSO

   ID    Z sym.   atoms
    1    6 C      1-4, 6-9, 11, 13, 15-18, 21, 22, 24
    2    9 F      5
    3    7 N      10, 14, 19, 20
    4    8 O      12, 23, 25
    5    1 H      26-47

      * Solvation model:               ALPB
        Solvent                        DMSO
        Solvent mass                       7.8130E+01 g/mol
          :  Hamiltonian                  GFN1-xTB          :
 * total energy  :   -80.1794272 Eh     change       -0.1519709E-09 Eh
 * total energy  :   -80.1884418 Eh     change       -0.9014676E-02 Eh
 * total energy  :   -80.1907290 Eh     change       -0.2287192E-02 Eh
 * total energy  :   -80.1911144 Eh     change       -0.3853731E-03 Eh
 * total energy  :   -80.1914516 Eh     change       -0.3371459E-03 Eh
 * total energy  :   -80.1916471 Eh     change       -0.1955726E-03 Eh
 * total energy  :   -80.1918535 Eh     change       -0.2063500E-03 Eh
 * total energy  :   -80.1920620 Eh     change       -0.2085170E-03 Eh
 * total energy  :   -80.1922141 Eh     change       -0.1520829E-03 Eh
 * total energy  :   -80.1923078 Eh     change       -0.9371064E-04 Eh
 * total energy  :   -80.1928526 Eh     change       -0.2756050E-04 Eh
 * total energy  :   -80.1928720 Eh     change       -0.1937361E-04 Eh
 * total energy  :   -80.1928999 Eh     change       -0.2792439E-04 Eh
 * total energy  :   -80.1929174 Eh     change       -0.1756319E-04 Eh
 * total energy  :   -80.1929345 Eh     change       -0.1707581E-04 Eh
 * total energy  :   -80.1929426 Eh     change       -0.8042457E-05 Eh
 * total energy  :   -80.1929507 Eh     change       -0.8144837E-05 Eh
 * total energy  :   -80.1929557 Eh     change       -0.5004769E-05 Eh
 * total energy  :   -80.1929589 Eh     change       -0.3190388E-05 Eh
   *** GEOMETRY OPTIMIZATION CONVERGED AFTER 45 ITERATIONS ***

 final structure:
================
47
 xtb: 6.5.1 (579679a)
C            5.06679630928545        0.17135032580023       -1.40532061773081
C            3.92463405082822       -0.17408839402111       -0.40350776774012
C            4.31549473771142       -1.36847052576395        0.43789501580092
C            4.70453704435271       -1.19390390307511        1.72224807160680
F            5.14631825989881       -2.29357569607275        2.40963098140449
C            4.62827929785480        0.00737188574083        2.44166064803704
C            4.00066975011255        1.08326398823600        1.78386145085432
C            3.61434268530916        1.02799990518509        0.47359889058351
C            2.79557431168281        2.13828575198263       -0.13337229609931
N            1.37798066965743        1.97327839743544        0.24191423778879
C            0.52442336353837        1.26893516141720       -0.53299792891126
O            0.78661449697929        0.95870804639257       -1.69911913282358
C           -0.78894828456112        0.92064963398963        0.08157079597740
N           -1.54643399158500        0.05878882139537       -0.66994068095891
C           -2.72173219496552       -0.33123391632249       -0.30046716029710
C           -3.44566684923808       -1.27001068550510       -1.26089966460161
C           -4.37643577101784       -0.43786497783242       -2.15593842479697
C           -2.40892435805794       -1.98943086078955       -2.14096992991031
N           -4.23704463096760       -2.25908951883325       -0.53313391273408
N           -3.30891504878135        0.12120403194530        0.86099322385698
C           -4.64470285988540       -0.27140060743885        1.30296587881691
C           -2.62256105338087        0.99010129055802        1.70527160746946
O           -3.11393246391183        1.40164667562948        2.76570055935469
C           -1.31512537838249        1.38693941275451        1.26535707362421
O           -0.67170195558222        2.25515460934620        2.09416983035874
H            4.78102875558511        1.01358540672483       -2.03644987448808
H            5.27912506246631       -0.68809466585306       -2.04294435217875
H            5.97412708143243        0.43622359578412       -0.86089695472187
H            3.04247297127758       -0.42844914987772       -1.01764442211010
H            4.33646642515843       -2.34439705057830       -0.03120268239877
H            4.94747326112176        0.06789636107112        3.47207514505927
H            3.79826783122710        1.98743709949086        2.35537489065412
H            2.85051244613489        2.14185411391393       -1.22697000514628
H            3.11452650404668        3.12062313716961        0.23385623740029
H            1.18573120887765        2.07192259005920        1.22638912033274
H           -5.15348999028885        0.04864720162192       -1.56898468633976
H           -4.85333610514682       -1.08432840970175       -2.89121877874155
H           -3.80251930719798        0.32633664460921       -2.67988070732496
H           -2.92096744174858       -2.67839592411234       -2.81015986141865
H           -1.71512287300687       -2.55308845243705       -1.51792241180141
H           -1.84451060179103       -1.26896074929991       -2.73281938890761
H           -4.87844797593815       -2.70588381938880       -1.17149658507690
H           -3.63039596450715       -2.97841846538142       -0.16060990661856
H           -4.61711415061380       -1.27032516768076        1.73753652507126
H           -4.97722362429901        0.44364580358731        2.05611366736167
H           -5.33844088597571       -0.26627607249596        0.46766475173373
H           -1.26170376370960        2.43383512061939        2.84902153073452

          :  Hamiltonian                  GFN1-xTB          :
         :: total energy             -80.192958903538 Eh    ::
         :: gradient norm              0.000563655025 Eh/a0 ::
         :: HOMO-LUMO gap              0.175393984301 eV    ::
         :: SCC energy               -81.050849645676 Eh    ::
         :: -> Gsolv                  -0.105861323227 Eh    ::
         :: repulsion energy           0.888059436493 Eh    ::

    * Orbital Energies and Occupations

         #    Occupation            Energy/Eh            Energy/eV
      -------------------------------------------------------------
         1        2.0000           -0.8060463             -21.9336
       ...           ...                  ...                  ...
        56        2.0000           -0.4513656             -12.2823
        57        2.0000           -0.4460920             -12.1388
        58        2.0000           -0.4433894             -12.0652
        59        2.0000           -0.4413566             -12.0099
        60        2.0000           -0.4265384             -11.6067
        61        2.0000           -0.4231732             -11.5151
        62        2.0000           -0.4185400             -11.3891
        63        2.0000           -0.4128351             -11.2338
        64        2.0000           -0.4063282             -11.0568
        65        2.0000           -0.4042083             -10.9991
        66        2.0000           -0.3975393             -10.8176
        67        2.0000           -0.3802878             -10.3482
        68        1.9349           -0.2981310              -8.1126 (HOMO)
        69        0.0651           -0.2916854              -7.9372 (LUMO)
        70                         -0.2540614              -6.9134
        71                         -0.2053430              -5.5877
        72                         -0.1976143              -5.3774
        73                         -0.1292113              -3.5160
        74                         -0.1254716              -3.4143
        75                         -0.1237408              -3.3672
        76                         -0.1173854              -3.1942
        77                         -0.1110796              -3.0226
        78                         -0.0947568              -2.5785
        79                         -0.0938687              -2.5543
       ...                                ...                  ...
       144                          0.7109822              19.3468
      -------------------------------------------------------------
                  HL-Gap            0.0064456 Eh            0.1754 eV

Wiberg/Mayer (AO) data.
largest (>0.10) Wiberg bond orders for each atom

     #   Z sym  total        # sym  WBO       # sym  WBO       # sym  WBO
 ---------------------------------------------------------------------------
     1   6 C    3.976 --    28 H    0.989    27 H    0.987    26 H    0.985
                             2 C    0.965
     2   6 C    3.992 --     3 C    1.008     8 C    0.999    29 H    0.966
                             1 C    0.965
     3   6 C    3.854 --     4 C    1.602     2 C    1.008    30 H    0.975
     4   6 C    3.834 --     3 C    1.602     6 C    1.281     5 F    0.868
     5   9 F    0.980 --     4 C    0.868
     6   6 C    3.799 --     7 C    1.315     4 C    1.281    31 H    0.977
     7   6 C    3.995 --     8 C    1.595     6 C    1.315    32 H    0.971
     8   6 C    3.882 --     7 C    1.595     9 C    1.001     2 C    0.999
     9   6 C    3.940 --     8 C    1.001    34 H    0.978    33 H    0.977
                            10 N    0.915
    10   7 N    3.332 --    11 C    1.253     9 C    0.915    35 H    0.903
                            12 O    0.161
    11   6 C    3.907 --    12 O    1.527    10 N    1.253    13 C    1.019
    12   8 O    1.823 --    11 C    1.527    10 N    0.161
    13   6 C    3.900 --    24 C    1.440    14 N    1.185    11 C    1.019
    14   7 N    3.027 --    15 C    1.580    13 C    1.185
    15   6 C    3.904 --    14 N    1.580    20 N    1.152    16 C    0.975
    16   6 C    3.966 --    18 C    0.990    17 C    0.984    19 N    0.983
                            15 C    0.975
    17   6 C    3.993 --    38 H    0.986    16 C    0.984    37 H    0.983
                            36 H    0.980
    18   6 C    3.995 --    16 C    0.990    39 H    0.987    40 H    0.985
                            41 H    0.982
    19   7 N    2.977 --    16 C    0.983    43 H    0.943    42 H    0.942
    20   7 N    3.442 --    15 C    1.152    22 C    1.101    21 C    0.936
                            23 O    0.118
    21   6 C    3.933 --    46 H    0.979    44 H    0.977    45 H    0.976
                            20 N    0.936
    22   6 C    3.880 --    23 O    1.494    24 C    1.144    20 N    1.101
    23   8 O    1.831 --    22 C    1.494    20 N    0.118
    24   6 C    3.857 --    13 C    1.440    22 C    1.144    25 O    1.043
    25   8 O    2.028 --    24 C    1.043    47 H    0.814
    26   1 H    1.010 --     1 C    0.985
    27   1 H    1.011 --     1 C    0.987
    28   1 H    1.017 --     1 C    0.989
    29   1 H    1.020 --     2 C    0.966
    30   1 H    1.003 --     3 C    0.975
    31   1 H    1.004 --     6 C    0.977
    32   1 H    1.004 --     7 C    0.971
    33   1 H    1.019 --     9 C    0.977
    34   1 H    1.013 --     9 C    0.978
    35   1 H    0.965 --    10 N    0.903
    36   1 H    1.006 --    17 C    0.980
    37   1 H    1.001 --    17 C    0.983
    38   1 H    1.005 --    17 C    0.986
    39   1 H    1.005 --    18 C    0.987
    40   1 H    1.008 --    18 C    0.985
    41   1 H    1.017 --    18 C    0.982
    42   1 H    0.956 --    19 N    0.942
    43   1 H    0.959 --    19 N    0.943
    44   1 H    1.019 --    21 C    0.977
    45   1 H    1.013 --    21 C    0.976
    46   1 H    1.022 --    21 C    0.979
    47   1 H    0.860 --    25 O    0.814
 ---------------------------------------------------------------------------

           -------------------------------------------------
          | TOTAL ENERGY              -80.192958903538 Eh   |
          | GRADIENT NORM               0.000563655025 Eh/α |
          | HOMO-LUMO GAP               0.175393984301 eV   |
           -------------------------------------------------

 * finished run on 2023/06/20 at 15:05:51.195
