   * xtb version 6.5.1 (579679a) compiled by 'ehlert@majestix' on 2022-07-11
          program call               : /lustre/hpc/kemi/ree/PhD/git/ReactivityQM/dep/xtb-6.5.1/bin/xtb --gfn 1 /lustre/hpc/kemi/ree/PhD/git/ReactivityQM/calculations/R01/reac02prodN02/conf05/R01_reac02prodN02_conf05_gfn1.xyz --opt --vfukui --chrg 1 --uhf 0 --alpb DMSO

   ID    Z sym.   atoms
    1    6 C      1, 3-6, 8, 9, 12, 13, 15
    2    7 N      2, 7, 17
    3    8 O      10, 11, 14, 16
    4    1 H      18-33

      * Solvation model:               ALPB
        Solvent                        DMSO
        Solvent mass                       7.8130E+01 g/mol
          :  Hamiltonian                  GFN1-xTB          :
 * total energy  :   -57.8606910 Eh     change       -0.4447998E-11 Eh
 * total energy  :   -57.8700248 Eh     change       -0.9333809E-02 Eh
 * total energy  :   -57.8725802 Eh     change       -0.2555366E-02 Eh
 * total energy  :   -57.8729261 Eh     change       -0.3458988E-03 Eh
 * total energy  :   -57.8731587 Eh     change       -0.2326465E-03 Eh
 * total energy  :   -57.8733115 Eh     change       -0.1528421E-03 Eh
 * total energy  :   -57.8734829 Eh     change       -0.1713891E-03 Eh
 * total energy  :   -57.8736442 Eh     change       -0.1612501E-03 Eh
 * total energy  :   -57.8737672 Eh     change       -0.1230166E-03 Eh
 * total energy  :   -57.8738608 Eh     change       -0.9356518E-04 Eh
 * total energy  :   -57.8751601 Eh     change       -0.2070707E-04 Eh
 * total energy  :   -57.8751736 Eh     change       -0.1347059E-04 Eh
 * total energy  :   -57.8751864 Eh     change       -0.1280227E-04 Eh
 * total energy  :   -57.8752002 Eh     change       -0.1379643E-04 Eh
 * total energy  :   -57.8752125 Eh     change       -0.1230306E-04 Eh
 * total energy  :   -57.8752222 Eh     change       -0.9673997E-05 Eh
 * total energy  :   -57.8752297 Eh     change       -0.7498631E-05 Eh
 * total energy  :   -57.8752365 Eh     change       -0.6802542E-05 Eh
 * total energy  :   -57.8752398 Eh     change       -0.3351383E-05 Eh
   *** GEOMETRY OPTIMIZATION CONVERGED AFTER 44 ITERATIONS ***

 final structure:
================
33
 xtb: 6.5.1 (579679a)
C           -2.39971994223752       -0.71844646339394       -2.26053488076724
N           -1.54217666670647       -0.75467751725952       -1.05527574148951
C           -1.75305414583108        0.31883689016315       -0.01810054125759
C           -2.97281660172245       -0.04731497135357        0.82134879680990
C           -1.90712351490045        1.68447231227547       -0.69113790330248
C           -0.45906249924335        0.31240350383117        0.77128603066982
N            0.59269627799193       -0.15950980189363        0.19382034476592
C            1.79292065526186       -0.12950397523255        0.86601179579036
C            2.98070030996248       -0.66592386865131        0.16047526718419
O            4.08501963714915       -0.70052292439532        0.67088621869583
O            2.72722327751018       -1.09094163248157       -1.06620521001208
C            3.83983282530960       -1.60999802322893       -1.81009606040823
C            1.89696086410481        0.38656057374934        2.13459468889712
O            3.02845021624041        0.43304661647089        2.82682128014742
C            0.70887022361958        0.93805417981345        2.80317053997412
O            0.66353011843287        1.42575888328251        3.91236037526560
N           -0.43391827945521        0.85697552825428        2.01330576218011
H           -2.19982367689064       -1.62722650627903       -2.82293897524565
H           -3.44190140673407       -0.68701861596555       -1.95575052465323
H           -2.14537596807739        0.15366997705900       -2.85533751663049
H           -0.54855687433127       -0.69568689258248       -1.32541911196465
H           -1.66202957745604       -1.65606268440225       -0.59995012997376
H           -2.79826029577900       -0.97282859860712        1.36774553393617
H           -3.18469782023034        0.75074626086754        1.53064331377911
H           -3.84337745489775       -0.17093348114532        0.17995919433952
H           -1.89485231412244        2.45400013290123        0.07962616329915
H           -2.85135441161995        1.74593173916674       -1.22780239080634
H           -1.08205760500138        1.86280422382429       -1.37915380788603
H            4.27850605441774       -2.45747120503641       -1.27866985048272
H            3.44431249053432       -1.92532525082558       -2.77288585268288
H            4.59310569210737       -0.82984843264860       -1.94174535963042
H            3.76800648355279        0.04069565757126        2.30415137263231
H           -1.27997607095759        1.22158336615135        2.42479717882521

          :  Hamiltonian                  GFN1-xTB          :
         :: total energy             -57.875239840594 Eh    ::
         :: gradient norm              0.000192643188 Eh/a0 ::
         :: HOMO-LUMO gap              2.925796334117 eV    ::
         :: SCC energy               -58.453611157819 Eh    ::
         :: -> Gsolv                  -0.120369583732 Eh    ::
         :: repulsion energy           0.597322907153 Eh    ::

    * Orbital Energies and Occupations

         #    Occupation            Energy/Eh            Energy/eV
      -------------------------------------------------------------
         1        2.0000           -0.8851470             -24.0861
       ...           ...                  ...                  ...
        35        2.0000           -0.5631661             -15.3245
        36        2.0000           -0.5540234             -15.0757
        37        2.0000           -0.5473179             -14.8933
        38        2.0000           -0.5463968             -14.8682
        39        2.0000           -0.5325025             -14.4901
        40        2.0000           -0.5316861             -14.4679
        41        2.0000           -0.5228822             -14.2284
        42        2.0000           -0.5103059             -13.8861
        43        2.0000           -0.5043447             -13.7239
        44        2.0000           -0.5040858             -13.7169
        45        2.0000           -0.4836524             -13.1609
        46        2.0000           -0.4666532             -12.6983
        47        2.0000           -0.4482705             -12.1981 (HOMO)
        48                         -0.3407494              -9.2723 (LUMO)
        49                         -0.3078967              -8.3783
        50                         -0.2562689              -6.9734
        51                         -0.1790560              -4.8724
        52                         -0.1762096              -4.7949
        53                         -0.1707526              -4.6464
        54                         -0.1657113              -4.5092
        55                         -0.1500124              -4.0820
        56                         -0.1426916              -3.8828
        57                         -0.1364501              -3.7130
        58                         -0.1212634              -3.2997
       ...                                ...                  ...
       100                          0.7189424              19.5634
      -------------------------------------------------------------
                  HL-Gap            0.1075210 Eh            2.9258 eV

Wiberg/Mayer (AO) data.
largest (>0.10) Wiberg bond orders for each atom

     #   Z sym  total        # sym  WBO       # sym  WBO       # sym  WBO
 ---------------------------------------------------------------------------
     1   6 C    3.896 --    20 H    0.984    19 H    0.982    18 H    0.979
                             2 N    0.920
     2   7 N    3.599 --     1 C    0.920    22 H    0.893     3 C    0.888
                            21 H    0.861
     3   6 C    3.907 --     4 C    0.999     5 C    0.985     6 C    0.980
                             2 N    0.888
     4   6 C    3.983 --     3 C    0.999    23 H    0.981    25 H    0.977
                            24 H    0.975
     5   6 C    3.981 --     3 C    0.985    28 H    0.981    27 H    0.979
                            26 H    0.978
     6   6 C    3.943 --     7 N    1.583    17 N    1.192     3 C    0.980
     7   7 N    3.067 --     6 C    1.583     8 C    1.160
     8   6 C    3.957 --    13 C    1.489     7 N    1.160     9 C    1.016
     9   6 C    3.853 --    10 O    1.613    11 O    1.141     8 C    1.016
    10   8 O    1.952 --     9 C    1.613    11 O    0.132
    11   8 O    2.217 --     9 C    1.141    12 C    0.885    10 O    0.132
    12   6 C    3.859 --    30 H    0.986    29 H    0.979    31 H    0.979
                            11 O    0.885
    13   6 C    3.923 --     8 C    1.489    14 O    1.145    15 C    1.046
    14   8 O    2.110 --    13 C    1.145    32 H    0.769
    15   6 C    3.903 --    16 O    1.631    17 N    1.097    13 C    1.046
    16   8 O    1.928 --    15 C    1.631    17 N    0.132
    17   7 N    3.461 --     6 C    1.192    15 C    1.097    33 H    0.879
                            16 O    0.132
    18   1 H    0.989 --     1 C    0.979
    19   1 H    0.993 --     1 C    0.982
    20   1 H    0.994 --     1 C    0.984
    21   1 H    0.951 --     2 N    0.861
    22   1 H    0.922 --     2 N    0.893
    23   1 H    0.993 --     4 C    0.981
    24   1 H    0.993 --     4 C    0.975
    25   1 H    0.994 --     4 C    0.977
    26   1 H    0.995 --     5 C    0.978
    27   1 H    0.994 --     5 C    0.979
    28   1 H    0.994 --     5 C    0.981
    29   1 H    1.005 --    12 C    0.979
    30   1 H    1.009 --    12 C    0.986
    31   1 H    1.004 --    12 C    0.979
    32   1 H    0.845 --    14 O    0.769
    33   1 H    0.922 --    17 N    0.879
 ---------------------------------------------------------------------------

           -------------------------------------------------
          | TOTAL ENERGY              -57.875239840594 Eh   |
          | GRADIENT NORM               0.000192643188 Eh/α |
          | HOMO-LUMO GAP               2.925796334117 eV   |
           -------------------------------------------------

 * finished run on 2023/06/20 at 15:03:47.170
