   * xtb version 6.5.1 (579679a) compiled by 'ehlert@majestix' on 2022-07-11
          program call               : /lustre/hpc/kemi/ree/PhD/git/ReactivityQM/dep/xtb-6.5.1/bin/xtb --gfn 1 /lustre/hpc/kemi/ree/PhD/git/ReactivityQM/calculations/R01/reac02prodN10/conf14/R01_reac02prodN10_conf14_gfn1.xyz --opt --vfukui --chrg 1 --uhf 0 --alpb DMSO

   ID    Z sym.   atoms
    1    6 C      1, 3, 4, 6, 8-11, 14, 16
    2    8 O      2, 5, 15, 17
    3    7 N      7, 12, 13
    4    1 H      18-33

      * Solvation model:               ALPB
        Solvent                        DMSO
        Solvent mass                       7.8130E+01 g/mol
          :  Hamiltonian                  GFN1-xTB          :
 * total energy  :   -57.7948814 Eh     change       -0.1079314E-10 Eh
 * total energy  :   -57.8051816 Eh     change       -0.1030022E-01 Eh
 * total energy  :   -57.8079105 Eh     change       -0.2728935E-02 Eh
 * total energy  :   -57.8083217 Eh     change       -0.4111394E-03 Eh
 * total energy  :   -57.8086283 Eh     change       -0.3066581E-03 Eh
 * total energy  :   -57.8088989 Eh     change       -0.2706102E-03 Eh
 * total energy  :   -57.8091803 Eh     change       -0.2813444E-03 Eh
 * total energy  :   -57.8094291 Eh     change       -0.2488363E-03 Eh
 * total energy  :   -57.8096549 Eh     change       -0.2258129E-03 Eh
 * total energy  :   -57.8098759 Eh     change       -0.2209929E-03 Eh
 * total energy  :   -57.8109832 Eh     change       -0.3723926E-04 Eh
 * total energy  :   -57.8110209 Eh     change       -0.3775040E-04 Eh
 * total energy  :   -57.8110457 Eh     change       -0.2471547E-04 Eh
 * total energy  :   -57.8110938 Eh     change       -0.4812994E-04 Eh
 * total energy  :   -57.8111113 Eh     change       -0.1754336E-04 Eh
 * total energy  :   -57.8111544 Eh     change       -0.4309807E-04 Eh
 * total energy  :   -57.8111650 Eh     change       -0.1056860E-04 Eh
 * total energy  :   -57.8111866 Eh     change       -0.2163221E-04 Eh
 * total energy  :   -57.8111911 Eh     change       -0.4517866E-05 Eh
   *** GEOMETRY OPTIMIZATION CONVERGED AFTER 28 ITERATIONS ***

 final structure:
================
33
 xtb: 6.5.1 (579679a)
C           -4.25592092332591       -0.88018024837758        0.91212113780716
O           -3.19560825340967        0.04506787800155        0.53546753559428
C           -3.38754780270441        1.38818056805403        1.07052521123281
C           -1.81581794831147       -0.52858456440215        0.79323181953295
O           -1.74971258933574       -1.37196378935571        1.61702115606264
C           -0.80592727888570        0.03221863913763       -0.07319231446530
N            0.45694554291483       -0.40376861775808        0.26122012355151
C            1.47707757957020       -0.02538655052626       -0.43720733285624
C            2.85834882688631       -0.51777921275062       -0.02957053227356
C            3.06285231295036       -0.18963684458038        1.45614074475939
C            2.90593518785429       -2.03577277437424       -0.25801594935657
N            3.91890996127192        0.10257419459173       -0.79604675902332
N            1.35052863273493        0.78641447682207       -1.52650021433832
C            0.15248967153335        1.27156567110524       -1.97218802632223
O            0.02511726172414        1.98885075347567       -2.94681983927662
C           -0.99983225775483        0.85386088227969       -1.16012255244234
O           -2.17531856110644        1.31681999767556       -1.55608695300127
H           -4.06561602286753       -1.80744312985398        0.37660048190065
H           -5.18869081357672       -0.42654671549958        0.58852936484797
H           -4.24192508652618       -1.03584330037525        1.99088082552084
H           -3.49345596174089        1.33487333873285        2.15447869894298
H           -2.51889650324705        1.97545358555980        0.78778552131786
H           -4.28621200968128        1.78136968212770        0.60037368341194
H            4.03269787037829       -0.56426825809762        1.78038299107080
H            3.03048769536160        0.88829500395681        1.60701586622164
H            2.27661213837826       -0.65230104825238        2.05120561356225
H            2.12725001158407       -2.52548433809524        0.32517771693964
H            3.88033421231822       -2.41624866148746        0.04577496131075
H            2.75178434749227       -2.25977825737683       -1.31250815342078
H            3.89123169376391        1.10697579792826       -0.70697077924281
H            3.86123044257823       -0.14908638453497       -1.77132914289414
H            2.17610183570295        1.05912411972234       -2.04270735317302
H           -2.05545321251862        1.85842810653198       -2.36466855150222

          :  Hamiltonian                  GFN1-xTB          :
         :: total energy             -57.811191149948 Eh    ::
         :: gradient norm              0.000850183950 Eh/a0 ::
         :: HOMO-LUMO gap              1.302307701675 eV    ::
         :: SCC energy               -58.396475550482 Eh    ::
         :: -> Gsolv                  -0.103434529993 Eh    ::
         :: repulsion energy           0.604188895464 Eh    ::

    * Orbital Energies and Occupations

         #    Occupation            Energy/Eh            Energy/eV
      -------------------------------------------------------------
         1        2.0000           -0.9270794             -25.2271
       ...           ...                  ...                  ...
        35        2.0000           -0.5565528             -15.1446
        36        2.0000           -0.5525539             -15.0358
        37        2.0000           -0.5445934             -14.8191
        38        2.0000           -0.5247156             -14.2782
        39        2.0000           -0.5186879             -14.1142
        40        2.0000           -0.5167601             -14.0618
        41        2.0000           -0.5135602             -13.9747
        42        2.0000           -0.5061845             -13.7740
        43        2.0000           -0.4948381             -13.4652
        44        2.0000           -0.4870016             -13.2520
        45        2.0000           -0.4763145             -12.9612
        46        2.0000           -0.4572439             -12.4422
        47        2.0000           -0.4255721             -11.5804 (HOMO)
        48                         -0.3777132             -10.2781 (LUMO)
        49                         -0.3065554              -8.3418
        50                         -0.2861042              -7.7853
        51                         -0.1932804              -5.2594
        52                         -0.1797622              -4.8916
        53                         -0.1716832              -4.6717
        54                         -0.1393672              -3.7924
        55                         -0.1363062              -3.7091
        56                         -0.1300548              -3.5390
        57                         -0.1281190              -3.4863
        58                         -0.1259146              -3.4263
       ...                                ...                  ...
       100                          0.7521019              20.4657
      -------------------------------------------------------------
                  HL-Gap            0.0478589 Eh            1.3023 eV

Wiberg/Mayer (AO) data.
largest (>0.10) Wiberg bond orders for each atom

     #   Z sym  total        # sym  WBO       # sym  WBO       # sym  WBO
 ---------------------------------------------------------------------------
     1   6 C    3.790 --    20 H    0.979    19 H    0.977    18 H    0.977
                             2 O    0.819
     2   8 O    2.477 --     1 C    0.819     3 C    0.812     4 C    0.726
     3   6 C    3.788 --    21 H    0.980    23 H    0.976    22 H    0.975
                             2 O    0.812
     4   6 C    3.799 --     5 O    1.825     6 C    1.106     2 O    0.726
     5   8 O    2.089 --     4 C    1.825
     6   6 C    3.961 --    16 C    1.438     7 N    1.156     4 C    1.106
     7   7 N    3.016 --     8 C    1.577     6 C    1.156
     8   6 C    3.906 --     7 N    1.577    13 N    1.171     9 C    0.967
     9   6 C    3.965 --    12 N    1.002    10 C    0.982    11 C    0.977
                             8 C    0.967
    10   6 C    3.992 --    26 H    0.985    25 H    0.985    24 H    0.984
                             9 C    0.982
    11   6 C    3.992 --    27 H    0.986    29 H    0.985    28 H    0.983
                             9 C    0.977
    12   7 N    2.959 --     9 C    1.002    30 H    0.937    31 H    0.937
    13   7 N    3.484 --     8 C    1.171    14 C    1.156    32 H    0.869
                            15 O    0.142
    14   6 C    3.917 --    15 O    1.601    13 N    1.156    16 C    1.035
    15   8 O    1.928 --    14 C    1.601    13 N    0.142
    16   6 C    3.912 --     6 C    1.438    17 O    1.150    14 C    1.035
    17   8 O    2.127 --    16 C    1.150    33 H    0.780
    18   1 H    0.995 --     1 C    0.977
    19   1 H    0.994 --     1 C    0.977
    20   1 H    0.997 --     1 C    0.979
    21   1 H    0.992 --     3 C    0.980
    22   1 H    1.001 --     3 C    0.975
    23   1 H    0.995 --     3 C    0.976
    24   1 H    1.003 --    10 C    0.984
    25   1 H    1.001 --    10 C    0.985
    26   1 H    1.009 --    10 C    0.985
    27   1 H    1.005 --    11 C    0.986
    28   1 H    1.002 --    11 C    0.983
    29   1 H    1.000 --    11 C    0.985
    30   1 H    0.951 --    12 N    0.937
    31   1 H    0.951 --    12 N    0.937
    32   1 H    0.918 --    13 N    0.869
    33   1 H    0.822 --    17 O    0.780
 ---------------------------------------------------------------------------

           -------------------------------------------------
          | TOTAL ENERGY              -57.811191149948 Eh   |
          | GRADIENT NORM               0.000850183950 Eh/α |
          | HOMO-LUMO GAP               1.302307701675 eV   |
           -------------------------------------------------

 * finished run on 2023/06/20 at 15:10:14.690
