   * xtb version 6.5.1 (579679a) compiled by 'ehlert@majestix' on 2022-07-11
          program call               : /lustre/hpc/kemi/ree/PhD/git/ReactivityQM/dep/xtb-6.5.1/bin/xtb --gfn 1 /lustre/hpc/kemi/ree/PhD/git/ReactivityQM/calculations/R02oxygendeprot/reac01prodN01/conf01/R02oxygendeprot_reac01prodN01_conf01_gfn1.xyz --opt --vfukui --chrg 0 --uhf 0 --alpb DMSO

   ID    Z sym.   atoms
    1    6 C      1, 3, 5, 7-10, 12, 14, 17, 18, 20, 22, 24
    2    8 O      2, 4, 13, 19, 23, 25
    3    7 N      6, 11, 15, 16, 21
    4    1 H      26-42

      * Solvation model:               ALPB
        Solvent                        DMSO
        Solvent mass                       7.8130E+01 g/mol
          :  Hamiltonian                  GFN1-xTB          :
 * total energy  :   -82.8822269 Eh     change       -0.3379341E-10 Eh
 * total energy  :   -82.8991546 Eh     change       -0.1692770E-01 Eh
 * total energy  :   -82.9075528 Eh     change       -0.8398254E-02 Eh
 * total energy  :   -82.9100441 Eh     change       -0.2491316E-02 Eh
 * total energy  :   -82.9116337 Eh     change       -0.1589548E-02 Eh
 * total energy  :   -82.9124351 Eh     change       -0.8014565E-03 Eh
 * total energy  :   -82.9131348 Eh     change       -0.6996222E-03 Eh
 * total energy  :   -82.9137284 Eh     change       -0.5936432E-03 Eh
 * total energy  :   -82.9141526 Eh     change       -0.4242078E-03 Eh
 * total energy  :   -82.9144483 Eh     change       -0.2957326E-03 Eh
 * total energy  :   -82.9166871 Eh     change       -0.2281916E-04 Eh
 * total energy  :   -82.9166976 Eh     change       -0.1048444E-04 Eh
 * total energy  :   -82.9167100 Eh     change       -0.1241752E-04 Eh
 * total energy  :   -82.9167195 Eh     change       -0.9427076E-05 Eh
 * total energy  :   -82.9167260 Eh     change       -0.6509527E-05 Eh
 * total energy  :   -82.9167327 Eh     change       -0.6703157E-05 Eh
 * total energy  :   -82.9167406 Eh     change       -0.7941575E-05 Eh
 * total energy  :   -82.9167500 Eh     change       -0.9413147E-05 Eh
 * total energy  :   -82.9167540 Eh     change       -0.3992914E-05 Eh
   *** GEOMETRY OPTIMIZATION CONVERGED AFTER 44 ITERATIONS ***

 final structure:
================
42
 xtb: 6.5.1 (579679a)
C            2.81621716740232        3.35236468324848        0.55846857038813
O            2.62737723418415        1.97353478235873        0.26836832731329
C            3.77457540206797        1.23363795041290        0.14469883669400
O            4.86547731846442        1.76056994771182        0.28432209607411
C            3.50016619623354       -0.15969741778039       -0.15932324862681
N            2.15925107551943       -0.48186816119425       -0.26078243928254
C            1.78710222223112       -1.67547168965076       -0.53944858892783
C            0.30735882313822       -1.99259052414091       -0.64286625563069
C           -0.07009379958985       -2.37350750096302       -2.07993091849533
C           -0.09676745436898       -3.09037191289561        0.34802188416908
N           -0.36077777605022       -0.73767312073022       -0.27987397983189
C           -1.67067686425250       -0.56171101803243       -0.20776687766799
O           -2.54995599602708       -1.37634112601949       -0.43834763746857
C           -2.00014714390579        0.83723878707649        0.22313584685742
N           -1.21659304720300        1.80710902104568        0.50298532392711
N           -1.96813545471814        2.89140818360584        0.86817335529849
C           -3.20449439755316        2.57909903385465        0.81155986212120
C           -4.38935750398940        3.39869372622729        1.10781306938706
O           -3.32399202870321        1.24618192196479        0.39609275375518
C           -4.52260822959265        0.43650718457467        0.17944870439090
N            2.68851936280361       -2.69052451342984       -0.75729922975421
C            4.05287257431140       -2.52090595219390       -0.68017461014199
O            4.79341767675544       -3.47612565248050       -0.88296950116416
C            4.52862305332887       -1.12190066081129       -0.34370972696365
O            5.74908366348834       -0.91395773411414       -0.25518965468449
H            3.39922176678191        3.83920969327446       -0.23035550231803
H            1.82591433599221        3.80213476120610        0.61445750977190
H            3.33492452823933        3.48003720516980        1.51435474878003
H            0.18262315534151       -1.56114833206911       -2.75990525317731
H            0.47418983129792       -3.26869279524869       -2.37488081174151
H           -1.13779005404320       -2.57305412107806       -2.14460052711175
H            0.44672216625496       -4.00604515070543        0.12336111262599
H            0.13263830325446       -2.77845275716611        1.36595547496106
H           -1.16326307829677       -3.28993607739276        0.26893355382226
H            0.28450319489980        0.03065216671639       -0.07002483673241
H           -4.05815259324026        4.38914971103765        1.41525715090678
H           -5.02364912055601        3.48514851944484        0.22528438554281
H           -4.97661250976096        2.94715056971175        1.90752022309647
H           -5.37316074843022        1.07142837710497        0.40433390908866
H           -4.51810842276864        0.12055604074422       -0.86149857528175
H           -4.46596656659810       -0.41648774804428        0.85215916861564
H            2.35952473765474       -3.61534930035137       -0.97892069258659

          :  Hamiltonian                  GFN1-xTB          :
         :: total energy             -82.916754030142 Eh    ::
         :: gradient norm              0.000502408034 Eh/a0 ::
         :: HOMO-LUMO gap              0.448425280567 eV    ::
         :: SCC energy               -83.700219617495 Eh    ::
         :: -> Gsolv                  -0.124024765166 Eh    ::
         :: repulsion energy           0.809793273474 Eh    ::

    * Orbital Energies and Occupations

         #    Occupation            Energy/Eh            Energy/eV
      -------------------------------------------------------------
         1        2.0000           -0.9638450             -26.2276
       ...           ...                  ...                  ...
        55        2.0000           -0.5075413             -13.8109
        56        2.0000           -0.5013430             -13.6422
        57        2.0000           -0.4999596             -13.6046
        58        2.0000           -0.4930595             -13.4168
        59        2.0000           -0.4826086             -13.1324
        60        2.0000           -0.4721522             -12.8479
        61        2.0000           -0.4666073             -12.6970
        62        2.0000           -0.4643389             -12.6353
        63        2.0000           -0.4497817             -12.2392
        64        2.0000           -0.4446476             -12.0995
        65        2.0000           -0.4295428             -11.6885
        66        2.0000           -0.3862871             -10.5114
        67        1.9997           -0.3740284             -10.1778 (HOMO)
        68        0.0003           -0.3575491              -9.7294 (LUMO)
        69                         -0.3092915              -8.4163
        70                         -0.2779627              -7.5637
        71                         -0.2501523              -6.8070
        72                         -0.2356061              -6.4112
        73                         -0.2040716              -5.5531
        74                         -0.1873086              -5.0969
        75                         -0.1736067              -4.7241
        76                         -0.1341681              -3.6509
        77                         -0.1287096              -3.5024
        78                         -0.1253515              -3.4110
       ...                                ...                  ...
       134                          0.7652474              20.8234
      -------------------------------------------------------------
                  HL-Gap            0.0164793 Eh            0.4484 eV

Wiberg/Mayer (AO) data.
largest (>0.10) Wiberg bond orders for each atom

     #   Z sym  total        # sym  WBO       # sym  WBO       # sym  WBO
 ---------------------------------------------------------------------------
     1   6 C    3.898 --    27 H    0.987    28 H    0.980    26 H    0.980
                             2 O    0.925
     2   8 O    2.134 --     3 C    1.021     1 C    0.925     4 O    0.109
     3   6 C    3.850 --     4 O    1.599     5 C    1.118     2 O    1.021
     4   8 O    1.875 --     3 C    1.599     2 O    0.109
     5   6 C    3.911 --    24 C    1.263     6 N    1.147     3 C    1.118
                            25 O    0.129
     6   7 N    3.071 --     7 C    1.622     5 C    1.147
     7   6 C    3.936 --     6 N    1.622    21 N    1.107     8 C    0.977
     8   6 C    3.920 --    10 C    0.984     9 C    0.981     7 C    0.977
                            11 N    0.912
     9   6 C    3.988 --    29 H    0.985    30 H    0.983    31 H    0.981
                             8 C    0.981
    10   6 C    3.988 --    33 H    0.985     8 C    0.984    32 H    0.982
                            34 H    0.980
    11   7 N    3.419 --    12 C    1.339     8 C    0.912    35 H    0.854
                            13 O    0.201
    12   6 C    3.931 --    13 O    1.557    11 N    1.339    14 C    0.962
    13   8 O    1.922 --    12 C    1.557    11 N    0.201
    14   6 C    3.795 --    15 N    1.710    12 C    0.962    19 O    0.882
    15   7 N    3.042 --    14 C    1.710    16 N    1.142
    16   7 N    3.025 --    17 C    1.703    15 N    1.142
    17   6 C    3.804 --    16 N    1.703    18 C    1.043    19 O    0.874
    18   6 C    3.970 --    17 C    1.043    36 H    0.970    38 H    0.952
                            37 H    0.951
    19   8 O    2.653 --    14 C    0.882    17 C    0.874    20 C    0.749
    20   6 C    3.727 --    39 H    0.975    40 H    0.968    41 H    0.968
                            19 O    0.749
    21   7 N    3.424 --    22 C    1.146     7 C    1.107    42 H    0.895
                            23 O    0.133
    22   6 C    3.874 --    23 O    1.595    21 N    1.146    24 C    0.963
    23   8 O    1.872 --    22 C    1.595    21 N    0.133
    24   6 C    3.942 --    25 O    1.535     5 C    1.263    22 C    0.963
    25   8 O    1.838 --    24 C    1.535     5 C    0.129
    26   1 H    1.013 --     1 C    0.980
    27   1 H    1.017 --     1 C    0.987
    28   1 H    1.013 --     1 C    0.980
    29   1 H    1.002 --     9 C    0.985
    30   1 H    1.000 --     9 C    0.983
    31   1 H    1.005 --     9 C    0.981
    32   1 H    1.000 --    10 C    0.982
    33   1 H    1.002 --    10 C    0.985
    34   1 H    1.006 --    10 C    0.980
    35   1 H    0.967 --    11 N    0.854
    36   1 H    0.989 --    18 C    0.970
    37   1 H    0.988 --    18 C    0.951
    38   1 H    0.989 --    18 C    0.952
    39   1 H    0.991 --    20 C    0.975
    40   1 H    1.001 --    20 C    0.968
    41   1 H    1.001 --    20 C    0.968
    42   1 H    0.943 --    21 N    0.895
 ---------------------------------------------------------------------------

           -------------------------------------------------
          | TOTAL ENERGY              -82.916754030142 Eh   |
          | GRADIENT NORM               0.000502408034 Eh/α |
          | HOMO-LUMO GAP               0.448425280567 eV   |
           -------------------------------------------------

 * finished run on 2023/06/21 at 17:17:03.018
