   * xtb version 6.5.1 (579679a) compiled by 'ehlert@majestix' on 2022-07-11
          program call               : /lustre/hpc/kemi/ree/PhD/git/ReactivityQM/dep/xtb-6.5.1/bin/xtb --gfn 1 /lustre/hpc/kemi/ree/PhD/git/ReactivityQM/calculations/R02methylcation/reac01prodN01/conf14/R02methylcation_reac01prodN01_conf14_gfn1.xyz --opt --vfukui --chrg 0 --uhf 0 --alpb DMSO

   ID    Z sym.   atoms
    1    6 C      1, 3, 5, 7-10, 12, 14, 17, 18, 20, 22, 24
    2    8 O      2, 4, 13, 19, 23, 25
    3    7 N      6, 11, 15, 16, 21
    4    1 H      26-42

      * Solvation model:               ALPB
        Solvent                        DMSO
        Solvent mass                       7.8130E+01 g/mol
          :  Hamiltonian                  GFN1-xTB          :
 * total energy  :   -82.8824593 Eh     change       -0.1327294E-10 Eh
 * total energy  :   -82.8993313 Eh     change       -0.1687208E-01 Eh
 * total energy  :   -82.9079373 Eh     change       -0.8605978E-02 Eh
 * total energy  :   -82.9104989 Eh     change       -0.2561614E-02 Eh
 * total energy  :   -82.9121250 Eh     change       -0.1626055E-02 Eh
 * total energy  :   -82.9129268 Eh     change       -0.8018024E-03 Eh
 * total energy  :   -82.9135571 Eh     change       -0.6302962E-03 Eh
 * total energy  :   -82.9140433 Eh     change       -0.4861809E-03 Eh
 * total energy  :   -82.9143700 Eh     change       -0.3266819E-03 Eh
 * total energy  :   -82.9145997 Eh     change       -0.2297630E-03 Eh
 * total energy  :   -82.9165830 Eh     change       -0.2847218E-04 Eh
 * total energy  :   -82.9166454 Eh     change       -0.6243213E-04 Eh
 * total energy  :   -82.9166684 Eh     change       -0.2299984E-04 Eh
 * total energy  :   -82.9166963 Eh     change       -0.2785989E-04 Eh
 * total energy  :   -82.9167107 Eh     change       -0.1445442E-04 Eh
 * total energy  :   -82.9167157 Eh     change       -0.4963324E-05 Eh
 * total energy  :   -82.9167261 Eh     change       -0.1045506E-04 Eh
 * total energy  :   -82.9167323 Eh     change       -0.6201384E-05 Eh
 * total energy  :   -82.9167358 Eh     change       -0.3507708E-05 Eh
   *** GEOMETRY OPTIMIZATION CONVERGED AFTER 41 ITERATIONS ***

 final structure:
================
42
 xtb: 6.5.1 (579679a)
C           -2.70713747712312        3.45777921143455        0.28852556595340
O           -2.53395403658344        2.08829186563200       -0.05091048535294
C           -3.64653714227120        1.45491092920402       -0.54136314965561
O           -4.69451072151193        2.06456075550674       -0.67268296959975
C           -3.39406087305839        0.05800686610970       -0.84711981769149
N           -2.10348729316752       -0.36985476931125       -0.59718339302619
C           -1.75621857749235       -1.58390734110978       -0.81301112514088
C           -0.33225463672118       -2.01550013552655       -0.51594296988491
C            0.35357424303082       -2.58206195502001       -1.76438523995514
C           -0.29954236868222       -3.02276095552648        0.64043426513618
N            0.34348747313999       -0.77937759423851       -0.10558557842339
C            1.61494093143284       -0.68037158664518        0.24903737355205
O            2.44942398987867       -1.56940927207866        0.30505831588965
C            1.96364256916829        0.73710459431074        0.59488632234846
N            1.23193610040360        1.78429118675508        0.56014361523783
N            1.98290059915418        2.86133699602394        0.94631787056850
C            3.16733235785857        2.46794469695540        1.21462789864586
C            4.32992610000173        3.24825143439910        1.66474751255419
O            3.24987726080205        1.08424058204513        1.01220899994630
C            4.38555920376509        0.17894198771592        1.18440377625902
N           -2.63849842423415       -2.52143921242615       -1.29589151989651
C           -3.95171364315353       -2.23883270218205       -1.59860676132129
O           -4.67780616792041       -3.12682744686465       -2.03034969372361
C           -4.39538139758074       -0.80947867827881       -1.35919395468265
O           -5.56955049190229       -0.50015144222016       -1.61629681608471
H           -3.00080314921072        4.04243462466587       -0.58966149448977
H           -1.74875671851716        3.81408726782068        0.66350213890506
H           -3.47216253640741        3.57212266194509        1.06364573218014
H            1.38794333885009       -2.83325699061872       -1.53893785249083
H           -0.16104653742938       -3.48463506417570       -2.08812603014359
H            0.33199681152791       -1.84919856362854       -2.56968486627759
H            0.72760050757749       -3.30877020270715        0.85736795491381
H           -0.86212010879961       -3.91251787713117        0.36410796013151
H           -0.74310930403786       -2.58172825462444        1.53195757553136
H           -0.26820014430395        0.04335628176743       -0.09412188292530
H            5.15759403786122        3.13930544311314        0.96372538539138
H            4.04118882712344        4.29612773653714        1.72683513070258
H            4.66436213529213        2.90488537300273        2.64403979253892
H            4.09729179970364       -0.57100808716518        1.91864697848786
H            5.21675906223865        0.78385111848568        1.53150405312768
H            4.59170396082307       -0.27374179398446        0.21648350253633
H           -2.33219055953477       -3.46700268796102       -1.45315211977609

          :  Hamiltonian                  GFN1-xTB          :
         :: total energy             -82.916735833935 Eh    ::
         :: gradient norm              0.000637813801 Eh/a0 ::
         :: HOMO-LUMO gap              0.451392991823 eV    ::
         :: SCC energy               -83.700022918741 Eh    ::
         :: -> Gsolv                  -0.123919911621 Eh    ::
         :: repulsion energy           0.809633899497 Eh    ::

    * Orbital Energies and Occupations

         #    Occupation            Energy/Eh            Energy/eV
      -------------------------------------------------------------
         1        2.0000           -0.9639494             -26.2304
       ...           ...                  ...                  ...
        55        2.0000           -0.5075091             -13.8100
        56        2.0000           -0.5014091             -13.6440
        57        2.0000           -0.4999204             -13.6035
        58        2.0000           -0.4930491             -13.4166
        59        2.0000           -0.4825778             -13.1316
        60        2.0000           -0.4721670             -12.8483
        61        2.0000           -0.4664865             -12.6937
        62        2.0000           -0.4643330             -12.6351
        63        2.0000           -0.4498555             -12.2412
        64        2.0000           -0.4447042             -12.1010
        65        2.0000           -0.4295283             -11.6881
        66        2.0000           -0.3863142             -10.5121
        67        1.9997           -0.3740805             -10.1792 (HOMO)
        68        0.0003           -0.3574921              -9.7279 (LUMO)
        69                         -0.3092340              -8.4147
        70                         -0.2779979              -7.5647
        71                         -0.2502220              -6.8089
        72                         -0.2354794              -6.4077
        73                         -0.2041262              -5.5546
        74                         -0.1873537              -5.0982
        75                         -0.1735821              -4.7234
        76                         -0.1342807              -3.6540
        77                         -0.1287935              -3.5047
        78                         -0.1253147              -3.4100
       ...                                ...                  ...
       134                          0.7652529              20.8236
      -------------------------------------------------------------
                  HL-Gap            0.0165884 Eh            0.4514 eV

Wiberg/Mayer (AO) data.
largest (>0.10) Wiberg bond orders for each atom

     #   Z sym  total        # sym  WBO       # sym  WBO       # sym  WBO
 ---------------------------------------------------------------------------
     1   6 C    3.898 --    27 H    0.987    26 H    0.980    28 H    0.980
                             2 O    0.925
     2   8 O    2.133 --     3 C    1.021     1 C    0.925     4 O    0.109
     3   6 C    3.850 --     4 O    1.599     5 C    1.118     2 O    1.021
     4   8 O    1.875 --     3 C    1.599     2 O    0.109
     5   6 C    3.911 --    24 C    1.263     6 N    1.147     3 C    1.118
                            25 O    0.129
     6   7 N    3.072 --     7 C    1.622     5 C    1.147
     7   6 C    3.936 --     6 N    1.622    21 N    1.107     8 C    0.977
     8   6 C    3.920 --     9 C    0.984    10 C    0.981     7 C    0.977
                            11 N    0.912
     9   6 C    3.988 --    31 H    0.985     8 C    0.984    30 H    0.983
                            29 H    0.981
    10   6 C    3.988 --    34 H    0.985    33 H    0.983    32 H    0.981
                             8 C    0.981
    11   7 N    3.419 --    12 C    1.339     8 C    0.912    35 H    0.854
                            13 O    0.201
    12   6 C    3.931 --    13 O    1.557    11 N    1.339    14 C    0.962
    13   8 O    1.922 --    12 C    1.557    11 N    0.201
    14   6 C    3.795 --    15 N    1.709    12 C    0.962    19 O    0.883
    15   7 N    3.042 --    14 C    1.709    16 N    1.143
    16   7 N    3.024 --    17 C    1.702    15 N    1.143
    17   6 C    3.804 --    16 N    1.702    18 C    1.043    19 O    0.875
    18   6 C    3.970 --    17 C    1.043    37 H    0.970    36 H    0.952
                            38 H    0.951
    19   8 O    2.653 --    14 C    0.883    17 C    0.875    20 C    0.749
    20   6 C    3.727 --    40 H    0.975    39 H    0.968    41 H    0.968
                            19 O    0.749
    21   7 N    3.424 --    22 C    1.146     7 C    1.107    42 H    0.895
                            23 O    0.133
    22   6 C    3.874 --    23 O    1.595    21 N    1.146    24 C    0.963
    23   8 O    1.872 --    22 C    1.595    21 N    0.133
    24   6 C    3.942 --    25 O    1.535     5 C    1.263    22 C    0.963
    25   8 O    1.839 --    24 C    1.535     5 C    0.129
    26   1 H    1.013 --     1 C    0.980
    27   1 H    1.017 --     1 C    0.987
    28   1 H    1.013 --     1 C    0.980
    29   1 H    1.005 --     9 C    0.981
    30   1 H    0.999 --     9 C    0.983
    31   1 H    1.002 --     9 C    0.985
    32   1 H    1.005 --    10 C    0.981
    33   1 H    1.000 --    10 C    0.983
    34   1 H    1.002 --    10 C    0.985
    35   1 H    0.968 --    11 N    0.854
    36   1 H    0.989 --    18 C    0.952
    37   1 H    0.989 --    18 C    0.970
    38   1 H    0.988 --    18 C    0.951
    39   1 H    1.000 --    20 C    0.968
    40   1 H    0.991 --    20 C    0.975
    41   1 H    1.001 --    20 C    0.968
    42   1 H    0.943 --    21 N    0.895
 ---------------------------------------------------------------------------

           -------------------------------------------------
          | TOTAL ENERGY              -82.916735833935 Eh   |
          | GRADIENT NORM               0.000637813801 Eh/α |
          | HOMO-LUMO GAP               0.451392991823 eV   |
           -------------------------------------------------

 * finished run on 2023/06/21 at 17:29:31.449
