   * xtb version 6.5.1 (579679a) compiled by 'ehlert@majestix' on 2022-07-11
          program call               : /lustre/hpc/kemi/ree/PhD/git/ReactivityQM/dep/xtb-6.5.1/bin/xtb --gfn 1 /lustre/hpc/kemi/ree/PhD/git/ReactivityQM/calculations/R02methylcation/reac01prodN10/conf07/R02methylcation_reac01prodN10_conf07_gfn1.xyz --opt --vfukui --chrg 0 --uhf 0 --alpb DMSO

   ID    Z sym.   atoms
    1    6 C      1, 3, 5, 6, 8, 11-15, 17, 19, 22, 23
    2    8 O      2, 4, 7, 9, 18, 24
    3    7 N      10, 16, 20, 21, 25
    4    1 H      26-42

      * Solvation model:               ALPB
        Solvent                        DMSO
        Solvent mass                       7.8130E+01 g/mol
          :  Hamiltonian                  GFN1-xTB          :
 * total energy  :   -82.9628060 Eh     change       -0.1452349E-10 Eh
 * total energy  :   -82.9750946 Eh     change       -0.1228862E-01 Eh
 * total energy  :   -82.9806437 Eh     change       -0.5549077E-02 Eh
 * total energy  :   -82.9818690 Eh     change       -0.1225296E-02 Eh
 * total energy  :   -82.9825553 Eh     change       -0.6862774E-03 Eh
 * total energy  :   -82.9828959 Eh     change       -0.3405961E-03 Eh
 * total energy  :   -82.9830901 Eh     change       -0.1941791E-03 Eh
 * total energy  :   -82.9832027 Eh     change       -0.1126912E-03 Eh
 * total energy  :   -82.9832977 Eh     change       -0.9495996E-04 Eh
 * total energy  :   -82.9833841 Eh     change       -0.8640204E-04 Eh
 * total energy  :   -82.9838524 Eh     change       -0.7137526E-05 Eh
 * total energy  :   -82.9838599 Eh     change       -0.7491280E-05 Eh
 * total energy  :   -82.9838668 Eh     change       -0.6875718E-05 Eh
 * total energy  :   -82.9838825 Eh     change       -0.1573039E-04 Eh
 * total energy  :   -82.9838904 Eh     change       -0.7888346E-05 Eh
 * total energy  :   -82.9838973 Eh     change       -0.6853756E-05 Eh
 * total energy  :   -82.9838955 Eh     change        0.1824002E-05 Eh
 * total energy  :   -82.9839002 Eh     change       -0.4764597E-05 Eh
 * total energy  :   -82.9839043 Eh     change       -0.4100641E-05 Eh
   *** GEOMETRY OPTIMIZATION CONVERGED AFTER 38 ITERATIONS ***

 final structure:
================
42
 xtb: 6.5.1 (579679a)
C           -4.24767874964661        3.44718418681882       -0.49834765986700
O           -3.94666934506066        2.07105866507956       -0.23135012200453
C           -2.74683592405182        1.80432371715947        0.24845488487702
O           -1.89520779635523        2.62739521609804        0.46998792590382
C           -2.53390887395516        0.31938227424155        0.47590957268563
C           -3.68354408540432       -0.61005971161452        0.66878424882460
O           -4.77658503824488       -0.26079505455174        1.03396038776758
C           -3.34428604550498       -2.07953135819487        0.40816833518574
O           -4.19048578520134       -2.92062821069804        0.18447035064646
N           -2.02297310018896       -2.35374536152291        0.42995234715310
C           -0.95430188406522       -1.42859744618350        0.75184565384358
C           -0.61374785174939       -1.54831261476319        2.24624932027132
C            0.27372081498842       -1.71205762334067       -0.17368227835586
C            0.92089265901081       -3.06365195938711        0.13057824076145
C           -0.16619660354931       -1.62888965349659       -1.64034493486909
N            1.21993780804955       -0.63237577250038        0.10455886630533
C            2.43438912698390       -0.53076339073164       -0.47933054654468
O            2.96592686480579       -1.37723048504466       -1.17440490470860
C            3.06762128394661        0.77017042790379       -0.14113707916389
N            2.53153191144039        1.72535013112016        0.55731410738773
N            3.44493523646405        2.73458964873011        0.60884482622409
C            4.48033010596058        2.33116952455101       -0.06359643677521
C            5.73986709039248        3.06713832383927       -0.31011606817719
O            4.30209481529888        1.09938036813833       -0.56333141048292
N           -1.31969341038894       -0.06518406894712        0.52850274838894
H           -5.26903192198452        3.47301283991364       -0.87123076068808
H           -4.15864803433823        4.03213755734584        0.41952641482456
H           -3.55657324811555        3.83844612664782       -1.24774228388340
H           -1.77856264186690       -3.33084483406723        0.37692455544329
H           -1.46606591003254       -1.20900210005938        2.83223083817926
H           -0.40415406522747       -2.58589238930569        2.49211167797440
H            0.25347436915509       -0.93537520768019        2.48104866056040
H            0.17684208987793       -3.85656021991698        0.09780540464909
H            1.38910323549300       -3.05402045295000        1.11280939194270
H            1.68446686874804       -3.27976530526823       -0.61489296239893
H           -0.90062294276320       -2.40336897087136       -1.85309648929508
H           -0.60663685278865       -0.65308620706731       -1.84215542066823
H            0.69677101490573       -1.77201376716998       -2.28885680416625
H            0.83365414470022        0.20557573684415        0.52473893155487
H            6.59409828832064        2.43438314933439       -0.07192507433676
H            5.76416741610753        3.96629498849454        0.30133297359179
H            5.80858496583821        3.34475928307469       -1.36268442856126

          :  Hamiltonian                  GFN1-xTB          :
         :: total energy             -82.983904328183 Eh    ::
         :: gradient norm              0.000891161440 Eh/a0 ::
         :: HOMO-LUMO gap              1.751807736363 eV    ::
         :: SCC energy               -83.764458475180 Eh    ::
         :: -> Gsolv                  -0.053566231095 Eh    ::
         :: repulsion energy           0.807868541046 Eh    ::

    * Orbital Energies and Occupations

         #    Occupation            Energy/Eh            Energy/eV
      -------------------------------------------------------------
         1        2.0000           -0.8650648             -23.5396
       ...           ...                  ...                  ...
        55        2.0000           -0.5082525             -13.8303
        56        2.0000           -0.5072436             -13.8028
        57        2.0000           -0.5056802             -13.7603
        58        2.0000           -0.5024486             -13.6723
        59        2.0000           -0.4976061             -13.5406
        60        2.0000           -0.4842640             -13.1775
        61        2.0000           -0.4834978             -13.1566
        62        2.0000           -0.4714574             -12.8290
        63        2.0000           -0.4656772             -12.6717
        64        2.0000           -0.4610518             -12.5459
        65        2.0000           -0.4537597             -12.3474
        66        2.0000           -0.4484710             -12.2035
        67        2.0000           -0.4403191             -11.9817 (HOMO)
        68                         -0.3759414             -10.2299 (LUMO)
        69                         -0.3215816              -8.7507
        70                         -0.3126651              -8.5081
        71                         -0.2582850              -7.0283
        72                         -0.2527093              -6.8766
        73                         -0.2054022              -5.5893
        74                         -0.2008854              -5.4664
        75                         -0.1440280              -3.9192
        76                         -0.1437823              -3.9125
        77                         -0.1433028              -3.8995
        78                         -0.1389408              -3.7808
       ...                                ...                  ...
       134                          0.7657419              20.8369
      -------------------------------------------------------------
                  HL-Gap            0.0643777 Eh            1.7518 eV

Wiberg/Mayer (AO) data.
largest (>0.10) Wiberg bond orders for each atom

     #   Z sym  total        # sym  WBO       # sym  WBO       # sym  WBO
 ---------------------------------------------------------------------------
     1   6 C    3.859 --    26 H    0.985    28 H    0.979    27 H    0.978
                             2 O    0.884
     2   8 O    2.227 --     3 C    1.149     1 C    0.884     4 O    0.147
     3   6 C    3.854 --     4 O    1.684     2 O    1.149     5 C    0.944
     4   8 O    1.948 --     3 C    1.684     2 O    0.147
     5   6 C    3.952 --    25 N    1.788     6 C    0.994     3 C    0.944
     6   6 C    3.857 --     7 O    1.804     5 C    0.994     8 C    0.907
     7   8 O    2.010 --     6 C    1.804
     8   6 C    3.903 --     9 O    1.635    10 N    1.247     6 C    0.907
     9   8 O    1.929 --     8 C    1.635    10 N    0.185
    10   7 N    3.364 --     8 C    1.247    11 C    0.940    29 H    0.882
                             9 O    0.185
    11   6 C    3.913 --    25 N    1.002    12 C    0.947    10 N    0.940
                            13 C    0.927
    12   6 C    3.982 --    30 H    0.982    32 H    0.981    31 H    0.980
                            11 C    0.947
    13   6 C    3.929 --    14 C    1.000    15 C    0.991    16 N    0.934
                            11 C    0.927
    14   6 C    3.989 --    13 C    1.000    34 H    0.982    33 H    0.981
                            35 H    0.974
    15   6 C    3.990 --    13 C    0.991    37 H    0.984    36 H    0.984
                            38 H    0.981
    16   7 N    3.339 --    17 C    1.244    13 C    0.934    39 H    0.886
                            18 O    0.175
    17   6 C    3.916 --    18 O    1.599    16 N    1.244    19 C    0.989
    18   8 O    1.915 --    17 C    1.599    16 N    0.175
    19   6 C    3.875 --    20 N    1.610    24 O    1.064    17 C    0.989
    20   7 N    3.017 --    19 C    1.610    21 N    1.200
    21   7 N    2.981 --    22 C    1.604    20 N    1.200
    22   6 C    3.871 --    21 N    1.604    24 O    1.083    23 C    1.031
    23   6 C    3.986 --    22 C    1.031    41 H    0.982    40 H    0.967
                            42 H    0.960
    24   8 O    2.330 --    22 C    1.083    19 C    1.064
    25   7 N    3.065 --     5 C    1.788    11 C    1.002
    26   1 H    1.008 --     1 C    0.985
    27   1 H    1.004 --     1 C    0.978
    28   1 H    1.004 --     1 C    0.979
    29   1 H    0.930 --    10 N    0.882
    30   1 H    0.999 --    12 C    0.982
    31   1 H    0.999 --    12 C    0.980
    32   1 H    0.999 --    12 C    0.981
    33   1 H    0.998 --    14 C    0.981
    34   1 H    1.001 --    14 C    0.982
    35   1 H    1.009 --    14 C    0.974
    36   1 H    1.002 --    15 C    0.984
    37   1 H    1.004 --    15 C    0.984
    38   1 H    1.004 --    15 C    0.981
    39   1 H    0.970 --    16 N    0.886
    40   1 H    0.997 --    23 C    0.967
    41   1 H    0.998 --    23 C    0.982
    42   1 H    0.997 --    23 C    0.960
 ---------------------------------------------------------------------------

           -------------------------------------------------
          | TOTAL ENERGY              -82.983904328183 Eh   |
          | GRADIENT NORM               0.000891161440 Eh/α |
          | HOMO-LUMO GAP               1.751807736363 eV   |
           -------------------------------------------------

 * finished run on 2023/06/21 at 17:41:51.499
