   * xtb version 6.5.1 (579679a) compiled by 'ehlert@majestix' on 2022-07-11
          program call               : /lustre/hpc/kemi/ree/PhD/git/ReactivityQM/dep/xtb-6.5.1/bin/xtb --gfn 1 /lustre/hpc/kemi/ree/PhD/git/ReactivityQM/calculations/R02oxygendeprot/reac02prodN01/conf07/R02oxygendeprot_reac02prodN01_conf07_gfn1.xyz --opt --vfukui --chrg 1 --uhf 0 --alpb DMSO

   ID    Z sym.   atoms
    1    6 C      1, 4
    2    8 O      2, 5
    3    5 B      3
    4    1 H      6-13

      * Solvation model:               ALPB
        Solvent                        DMSO
        Solvent mass                       7.8130E+01 g/mol
          :  Hamiltonian                  GFN1-xTB          :
 * total energy  :   -19.0544559 Eh     change       -0.3598899E-10 Eh
 * total energy  :   -19.0633076 Eh     change       -0.8851690E-02 Eh
 * total energy  :   -19.0657929 Eh     change       -0.2485272E-02 Eh
 * total energy  :   -19.0662512 Eh     change       -0.4583517E-03 Eh
 * total energy  :   -19.0665750 Eh     change       -0.3237555E-03 Eh
 * total energy  :   -19.0666402 Eh     change       -0.6523989E-04 Eh
 * total energy  :   -19.0666740 Eh     change       -0.3377029E-04 Eh
 * total energy  :   -19.0666892 Eh     change       -0.1518292E-04 Eh
 * total energy  :   -19.0666968 Eh     change       -0.7612697E-05 Eh
 * total energy  :   -19.0666986 Eh     change       -0.1862293E-05 Eh
   *** GEOMETRY OPTIMIZATION CONVERGED AFTER 10 ITERATIONS ***

 final structure:
================
13
 xtb: 6.5.1 (579679a)
C            1.73023297083049       -0.20654197231133        0.15636266586284
O            0.64550011230522        0.66891092034339       -0.26319753672222
B           -0.82177048285990        0.41082192981013       -0.22406864997881
C           -1.31403659038882       -0.90984565826988        0.41277966114871
O           -1.57364752268823        1.35744815074592       -0.74514797882455
H            2.45492913324188        0.39494169035160        0.70139599794702
H            1.30068854017077       -0.96610689755282        0.80393176715169
H            2.17656820270446       -0.65943500592592       -0.72846161342029
H            0.96177124785469        1.47509253102008       -0.69330079475510
H           -0.99387091223574       -0.98985926077037        1.45147291297191
H           -2.40096060313790       -0.97059729808529        0.38337372061967
H           -0.90716246806108       -1.77244734451813       -0.11435980479503
H           -1.25824162773585        2.16761721516269       -1.14077934720584

          :  Hamiltonian                  GFN1-xTB          :
         :: total energy             -19.066698646983 Eh    ::
         :: gradient norm              0.000315493383 Eh/a0 ::
         :: HOMO-LUMO gap              7.744533282744 eV    ::
         :: SCC energy               -19.259446190828 Eh    ::
         :: -> Gsolv                  -0.101716898518 Eh    ::
         :: repulsion energy           0.196340828022 Eh    ::

    * Orbital Energies and Occupations

         #    Occupation            Energy/Eh            Energy/eV
      -------------------------------------------------------------
         1        2.0000           -0.9092553             -24.7421
       ...           ...                  ...                  ...
         3        2.0000           -0.7652833             -20.8244
         4        2.0000           -0.7514030             -20.4467
         5        2.0000           -0.6981184             -18.9968
         6        2.0000           -0.6868891             -18.6912
         7        2.0000           -0.6581726             -17.9098
         8        2.0000           -0.6551207             -17.8267
         9        2.0000           -0.6078834             -16.5414
        10        2.0000           -0.5996739             -16.3180
        11        2.0000           -0.5726808             -15.5834
        12        2.0000           -0.5538256             -15.0704
        13        2.0000           -0.5464469             -14.8696
        14        2.0000           -0.5426530             -14.7663
        15        2.0000           -0.5331666             -14.5082 (HOMO)
        16                         -0.2485602              -6.7637 (LUMO)
        17                         -0.1912246              -5.2035
        18                         -0.1801848              -4.9031
        19                         -0.1571467              -4.2762
        20                         -0.1134099              -3.0860
        21                         -0.1104359              -3.0051
        22                         -0.1031188              -2.8060
        23                         -0.0815098              -2.2180
        24                         -0.0695480              -1.8925
        25                         -0.0475631              -1.2943
        26                          0.0682715               1.8578
       ...                                ...                  ...
        36                          0.6191877              16.8490
      -------------------------------------------------------------
                  HL-Gap            0.2846064 Eh            7.7445 eV

Wiberg/Mayer (AO) data.
largest (>0.10) Wiberg bond orders for each atom

     #   Z sym  total        # sym  WBO       # sym  WBO       # sym  WBO
 ---------------------------------------------------------------------------
     1   6 C    3.786 --     7 H    0.981     8 H    0.980     6 H    0.980
                             2 O    0.817
     2   8 O    2.369 --     1 C    0.817     9 H    0.754     3 B    0.735
     3   5 B    3.140 --     5 O    1.286     4 C    1.044     2 O    0.735
     4   6 C    3.988 --     3 B    1.044    11 H    0.975    12 H    0.959
                            10 H    0.958
     5   8 O    2.157 --     3 B    1.286    13 H    0.790
     6   1 H    0.993 --     1 C    0.980
     7   1 H    0.997 --     1 C    0.981
     8   1 H    0.994 --     1 C    0.980
     9   1 H    0.782 --     2 O    0.754
    10   1 H    0.993 --     4 C    0.958
    11   1 H    0.993 --     4 C    0.975
    12   1 H    0.993 --     4 C    0.959
    13   1 H    0.812 --     5 O    0.790
 ---------------------------------------------------------------------------

           -------------------------------------------------
          | TOTAL ENERGY              -19.066698646983 Eh   |
          | GRADIENT NORM               0.000315493383 Eh/α |
          | HOMO-LUMO GAP               7.744533282744 eV   |
           -------------------------------------------------

 * finished run on 2023/06/21 at 17:40:21.012
