   * xtb version 6.5.1 (579679a) compiled by 'ehlert@majestix' on 2022-07-11
          program call               : /lustre/hpc/kemi/ree/PhD/git/ReactivityQM/dep/xtb-6.5.1/bin/xtb --gfn 1 /lustre/hpc/kemi/ree/PhD/git/ReactivityQM/calculations/R01/reac01prodE04/conf01/R01_reac01prodE04_conf01_gfn1.xyz --opt --vfukui --chrg -1 --uhf 0 --alpb DMSO

   ID    Z sym.   atoms
    1    6 C      1, 3, 5, 7, 8, 11
    2    8 O      2, 4, 6
    3    7 N      9, 10
    4    1 H      12-20

      * Solvation model:               ALPB
        Solvent                        DMSO
        Solvent mass                       7.8130E+01 g/mol
          :  Hamiltonian                  GFN1-xTB          :
 * total energy  :   -38.2881236 Eh     change       -0.5790923E-11 Eh
 * total energy  :   -38.3024999 Eh     change       -0.1437625E-01 Eh
 * total energy  :   -38.3063723 Eh     change       -0.3872464E-02 Eh
 * total energy  :   -38.3076713 Eh     change       -0.1299011E-02 Eh
 * total energy  :   -38.3108376 Eh     change       -0.3166292E-02 Eh
 * total energy  :   -38.3125517 Eh     change       -0.1714115E-02 Eh
 * total energy  :   -38.3163475 Eh     change       -0.3795798E-02 Eh
 * total energy  :   -38.3183122 Eh     change       -0.1964697E-02 Eh
 * total energy  :   -38.3192501 Eh     change       -0.9378910E-03 Eh
 * total energy  :   -38.3201624 Eh     change       -0.9122607E-03 Eh
 * total energy  :   -38.3246717 Eh     change       -0.8649873E-05 Eh
 * total energy  :   -38.3246873 Eh     change       -0.1561038E-04 Eh
 * total energy  :   -38.3246968 Eh     change       -0.9540384E-05 Eh
 * total energy  :   -38.3247034 Eh     change       -0.6627739E-05 Eh
 * total energy  :   -38.3247099 Eh     change       -0.6428665E-05 Eh
 * total energy  :   -38.3247212 Eh     change       -0.1130586E-04 Eh
 * total energy  :   -38.3247317 Eh     change       -0.1049231E-04 Eh
 * total energy  :   -38.3247406 Eh     change       -0.8938484E-05 Eh
 * total energy  :   -38.3247452 Eh     change       -0.4556256E-05 Eh
   *** GEOMETRY OPTIMIZATION CONVERGED AFTER 53 ITERATIONS ***

 final structure:
================
20
 xtb: 6.5.1 (579679a)
C            3.52144272224303       -0.91974197562804       -0.05253977060298
O            2.25644456503405       -0.36262954936547       -0.33517352704596
C            1.17476006083577       -0.97158524753010        0.38177886760140
O            1.42770257645850       -1.93943486849075        1.14236105891140
C            0.02194152961254       -0.23912267968552        0.25486622977896
O           -1.24643270757360       -0.74880962561905        0.67634671305014
C           -2.13162337734127       -0.15821504015944       -0.12987085603682
C           -3.57420196400583       -0.49441012745011        0.03753578057879
N           -1.68110951472365        0.66547500790633       -0.99778417958202
N           -0.24703832991907        0.71112312177474       -0.82898254185990
C            0.09857164869766        2.09205288676433       -0.45181244619739
H            3.78238318527641       -0.81171394964922        1.00918693632655
H            3.56046220461231       -1.98757877749652       -0.30882845781993
H            4.25755055914139       -0.38328924138769       -0.65513256695472
H           -3.89065069185006       -0.27337189988003        1.05686914460031
H           -4.17076777542901        0.08827622109890       -0.66068675741752
H           -3.73801346372548       -1.55679231519532       -0.14513868244779
H           -0.40032650314642        2.39332099725182        0.47481637661000
H            1.17818862158214        2.13752856344807       -0.31690601817537
H           -0.19928434577920        2.75891749929307       -1.25998930331715

          :  Hamiltonian                  GFN1-xTB          :
         :: total energy             -38.324745151757 Eh    ::
         :: gradient norm              0.000700586044 Eh/a0 ::
         :: HOMO-LUMO gap              2.430325842186 eV    ::
         :: SCC energy               -38.638977416691 Eh    ::
         :: -> Gsolv                  -0.102600193952 Eh    ::
         :: repulsion energy           0.322661560641 Eh    ::

    * Orbital Energies and Occupations

         #    Occupation            Energy/Eh            Energy/eV
      -------------------------------------------------------------
         1        2.0000           -0.7808174             -21.2471
       ...           ...                  ...                  ...
        19        2.0000           -0.5082297             -13.8296
        20        2.0000           -0.5036062             -13.7038
        21        2.0000           -0.4890164             -13.3068
        22        2.0000           -0.4831594             -13.1474
        23        2.0000           -0.4754054             -12.9364
        24        2.0000           -0.4682028             -12.7404
        25        2.0000           -0.4521455             -12.3035
        26        2.0000           -0.4255294             -11.5792
        27        2.0000           -0.4213642             -11.4659
        28        2.0000           -0.4159407             -11.3183
        29        2.0000           -0.3881902             -10.5632
        30        2.0000           -0.3848752             -10.4730
        31        2.0000           -0.2981038              -8.1118 (HOMO)
        32                         -0.2087909              -5.6815 (LUMO)
        33                         -0.1395631              -3.7977
        34                         -0.1235094              -3.3609
        35                         -0.1057207              -2.8768
        36                         -0.0930714              -2.5326
        37                         -0.0569446              -1.5495
        38                         -0.0563141              -1.5324
        39                         -0.0449899              -1.2242
        40                         -0.0422938              -1.1509
        41                         -0.0419248              -1.1408
        42                         -0.0373334              -1.0159
       ...                                ...                  ...
        62                          0.6986101              19.0101
      -------------------------------------------------------------
                  HL-Gap            0.0893128 Eh            2.4303 eV

Wiberg/Mayer (AO) data.
largest (>0.10) Wiberg bond orders for each atom

     #   Z sym  total        # sym  WBO       # sym  WBO       # sym  WBO
 ---------------------------------------------------------------------------
     1   6 C    3.923 --    14 H    0.986    12 H    0.981    13 H    0.980
                             2 O    0.957
     2   8 O    2.029 --     1 C    0.957     3 C    0.886
     3   6 C    3.880 --     5 C    1.487     4 O    1.391     2 O    0.886
     4   8 O    1.718 --     3 C    1.391     5 C    0.173
     5   6 C    3.634 --     3 C    1.487    10 N    0.950     6 O    0.875
                             4 O    0.173
     6   8 O    2.186 --     7 C    1.096     5 C    0.875     9 N    0.135
     7   6 C    3.908 --     9 N    1.708     6 O    1.096     8 C    1.014
     8   6 C    3.995 --     7 C    1.014    16 H    0.987    15 H    0.973
                            17 H    0.973
     9   7 N    2.944 --     7 C    1.708    10 N    0.983     6 O    0.135
    10   7 N    3.057 --     9 N    0.983    11 C    0.970     5 C    0.950
    11   6 C    3.982 --    20 H    0.989    19 H    0.987    18 H    0.984
                            10 N    0.970
    12   1 H    1.022 --     1 C    0.981
    13   1 H    1.024 --     1 C    0.980
    14   1 H    1.021 --     1 C    0.986
    15   1 H    1.003 --     8 C    0.973
    16   1 H    1.006 --     8 C    0.987
    17   1 H    1.004 --     8 C    0.973
    18   1 H    1.021 --    11 C    0.984
    19   1 H    1.032 --    11 C    0.987
    20   1 H    1.024 --    11 C    0.989
 ---------------------------------------------------------------------------

           -------------------------------------------------
          | TOTAL ENERGY              -38.324745151757 Eh   |
          | GRADIENT NORM               0.000700586044 Eh/α |
          | HOMO-LUMO GAP               2.430325842186 eV   |
           -------------------------------------------------

 * finished run on 2023/06/20 at 14:53:38.215
