   * xtb version 6.5.1 (579679a) compiled by 'ehlert@majestix' on 2022-07-11
          program call               : /lustre/hpc/kemi/ree/PhD/git/ReactivityQM/dep/xtb-6.5.1/bin/xtb --gfn 1 /lustre/hpc/kemi/ree/PhD/git/ReactivityQM/calculations/R02oxygendeprot/reac01prodE14/conf15/R02oxygendeprot_reac01prodE14_conf15_gfn1.xyz --opt --vfukui --chrg -2 --uhf 0 --alpb DMSO

   ID    Z sym.   atoms
    1    6 C      1, 3, 5, 7-10, 12, 14, 17, 18, 21, 23, 24
    2    8 O      2, 4, 13, 19, 22, 25
    3    7 N      6, 11, 15, 16, 20
    4    1 H      26-42

      * Solvation model:               ALPB
        Solvent                        DMSO
        Solvent mass                       7.8130E+01 g/mol
          :  Hamiltonian                  GFN1-xTB          :
 * total energy  :   -83.5854142 Eh     change       -0.1203517E-09 Eh
 * total energy  :   -83.6005645 Eh     change       -0.1515029E-01 Eh
 * total energy  :   -83.6066035 Eh     change       -0.6038973E-02 Eh
 * total energy  :   -83.6076868 Eh     change       -0.1083276E-02 Eh
 * total energy  :   -83.6084634 Eh     change       -0.7766187E-03 Eh
 * total energy  :   -83.6089414 Eh     change       -0.4780122E-03 Eh
 * total energy  :   -83.6094170 Eh     change       -0.4755818E-03 Eh
 * total energy  :   -83.6097931 Eh     change       -0.3761465E-03 Eh
 * total energy  :   -83.6099973 Eh     change       -0.2041852E-03 Eh
 * total energy  :   -83.6100899 Eh     change       -0.9262576E-04 Eh
 * total energy  :   -83.6113191 Eh     change       -0.8234597E-05 Eh
 * total energy  :   -83.6113294 Eh     change       -0.1026449E-04 Eh
 * total energy  :   -83.6113385 Eh     change       -0.9132937E-05 Eh
 * total energy  :   -83.6113491 Eh     change       -0.1061369E-04 Eh
 * total energy  :   -83.6113582 Eh     change       -0.9033545E-05 Eh
 * total energy  :   -83.6113657 Eh     change       -0.7525545E-05 Eh
 * total energy  :   -83.6113731 Eh     change       -0.7374318E-05 Eh
 * total energy  :   -83.6113799 Eh     change       -0.6839948E-05 Eh
 * total energy  :   -83.6113838 Eh     change       -0.3950258E-05 Eh
   *** GEOMETRY OPTIMIZATION CONVERGED AFTER 59 ITERATIONS ***

 final structure:
================
42
 xtb: 6.5.1 (579679a)
C           -4.67309788437765       -1.13464276871942        3.06977326357530
O           -4.18114480634199       -0.51137566474231        1.90424804555635
C           -2.92045270319560       -0.96448113172307        1.47843069077211
O           -2.36531332770462       -1.85159056995446        2.16274273037693
C           -2.40198712636731       -0.34181843064112        0.32933140237057
N           -1.20434956887312       -0.87911962518640       -0.07766183015665
C           -0.54344976334976       -0.42573662693392       -1.08228963169698
C            0.75463123484315       -1.09683658876044       -1.49189943333673
C            0.77945655614342       -2.51850644699508       -0.92319084345043
C            0.94468478987203       -1.15092144823691       -3.01141113855404
N            1.89936381112989       -0.38845078864269       -0.86521856422010
C            2.35442016513930        0.83364496106429       -1.19245322565664
O            1.93367962000953        1.54135980146912       -2.10725333926739
C            3.45448974281523        1.29644776201605       -0.31882332449620
N            4.06459710650542        2.44851841995706       -0.36512302655696
N            5.00973028167731        2.43303147779066        0.62135384333530
C            4.92334093903571        1.28109062076134        1.20550594606761
C            5.73991462353478        0.77689583307097        2.33215067182665
O            3.95995174590475        0.51050409641805        0.66647593422430
N           -0.92774307747367        0.74894618286593       -1.75176354449550
C           -2.00284868867981        1.47954261643372       -1.33214545785860
O           -2.09271830547143        2.66579089583385       -1.67790461427662
C           -3.13586410470450        0.67094201347286       -0.60689542955561
C           -3.93183537461186        1.72604830474925        0.23924841136615
O           -3.87879401484711        0.09439330131038       -1.56650220913184
H           -5.64176897286322       -0.68708457943487        3.29990386685819
H           -4.80338350425436       -2.21523320852013        2.92480943554420
H           -3.99802605691245       -0.98339830153071        3.92210450228441
H           -0.02052161096881       -3.10652074153262       -1.37162235263832
H            0.62524248770916       -2.49341614388122        0.15598035452709
H            1.73261699865116       -2.99718156741278       -1.13900781606427
H            1.88417713044044       -1.64855315012374       -3.24765277587373
H            0.12655405307909       -1.71761961392203       -3.45544125936493
H            0.96125827146510       -0.15623098276181       -3.45199803715974
H            2.36111827870167       -0.86784346837182       -0.11096933282302
H            6.27687214433340       -0.12222457823616        2.03112118215226
H            5.10057100245696        0.52006065488532        3.17664003604676
H            6.45306370647786        1.53956711110517        2.63443081783135
H           -0.22489234872809        1.23317850927166       -2.29185060086908
H           -3.38017621682200        2.02260004631200        1.13262955072193
H           -4.89652556087974        1.31286624436445        0.52671118332285
H           -4.11484267248329        2.60990357312634       -0.37451408125117

          :  Hamiltonian                  GFN1-xTB          :
         :: total energy             -83.611383844962 Eh    ::
         :: gradient norm              0.000558043406 Eh/a0 ::
         :: HOMO-LUMO gap              0.216947109269 eV    ::
         :: SCC energy               -84.344674048362 Eh    ::
         :: -> Gsolv                  -0.310043030695 Eh    ::
         :: repulsion energy           0.759216948070 Eh    ::

    * Orbital Energies and Occupations

         #    Occupation            Energy/Eh            Energy/eV
      -------------------------------------------------------------
         1        2.0000           -0.8459821             -23.0203
       ...           ...                  ...                  ...
        56        2.0000           -0.4395493             -11.9607
        57        2.0000           -0.4356806             -11.8555
        58        2.0000           -0.4303681             -11.7109
        59        2.0000           -0.4260064             -11.5922
        60        2.0000           -0.4212313             -11.4623
        61        2.0000           -0.4137734             -11.2593
        62        2.0000           -0.3975170             -10.8170
        63        2.0000           -0.3896836             -10.6038
        64        2.0000           -0.3835305             -10.4364
        65        2.0000           -0.3683997             -10.0247
        66        2.0000           -0.3061207              -8.3300
        67        1.9902           -0.2982495              -8.1158
        68        1.9749           -0.2973516              -8.0913 (HOMO)
        69        0.0350           -0.2893789              -7.8744 (LUMO)
        70                         -0.2413857              -6.5684
        71                         -0.2114491              -5.7538
        72                         -0.1758052              -4.7839
        73                         -0.1685167              -4.5856
        74                         -0.1359707              -3.7000
        75                         -0.1141012              -3.1049
        76                         -0.1059297              -2.8825
        77                         -0.1042755              -2.8375
        78                         -0.1036944              -2.8217
        79                         -0.0754893              -2.0542
       ...                                ...                  ...
       134                          0.7287878              19.8313
      -------------------------------------------------------------
                  HL-Gap            0.0079727 Eh            0.2169 eV

Wiberg/Mayer (AO) data.
largest (>0.10) Wiberg bond orders for each atom

     #   Z sym  total        # sym  WBO       # sym  WBO       # sym  WBO
 ---------------------------------------------------------------------------
     1   6 C    3.922 --    26 H    0.987    27 H    0.980    28 H    0.980
                             2 O    0.952
     2   8 O    2.083 --     1 C    0.952     3 C    0.935
     3   6 C    3.840 --     4 O    1.449     5 C    1.320     2 O    0.935
     4   8 O    1.741 --     3 C    1.449     5 C    0.103
     5   6 C    3.821 --     3 C    1.320     6 N    1.199    23 C    0.919
                             4 O    0.103
     6   7 N    3.051 --     7 C    1.600     5 C    1.199
     7   6 C    3.897 --     6 N    1.600    20 N    1.019     8 C    0.970
     8   6 C    3.924 --     9 C    1.002    10 C    0.995     7 C    0.970
                            11 N    0.892
     9   6 C    3.995 --     8 C    1.002    31 H    0.987    29 H    0.984
                            30 H    0.981
    10   6 C    3.992 --     8 C    0.995    32 H    0.986    33 H    0.986
                            34 H    0.979
    11   7 N    3.349 --    12 C    1.272    35 H    0.904     8 C    0.892
                            13 O    0.174
    12   6 C    3.905 --    13 O    1.524    11 N    1.272    14 C    1.010
    13   8 O    1.851 --    12 C    1.524    11 N    0.174
    14   6 C    3.830 --    15 N    1.584    19 O    1.031    12 C    1.010
    15   7 N    2.934 --    14 C    1.584    16 N    1.188
    16   7 N    2.980 --    17 C    1.623    15 N    1.188
    17   6 C    3.859 --    16 N    1.623    19 O    1.065    18 C    1.029
    18   6 C    3.989 --    17 C    1.029    38 H    0.984    37 H    0.966
                            36 H    0.965
    19   8 O    2.286 --    17 C    1.065    14 C    1.031
    20   7 N    3.364 --    21 C    1.185     7 C    1.019    39 H    0.899
                            22 O    0.117
    21   6 C    3.818 --    22 O    1.554    20 N    1.185    23 C    0.879
    22   8 O    1.823 --    21 C    1.554    20 N    0.117
    23   6 C    3.963 --    25 O    1.122    24 C    0.945     5 C    0.919
                            21 C    0.879
    24   6 C    3.988 --    40 H    0.990    41 H    0.987    42 H    0.985
                            23 C    0.945
    25   8 O    1.412 --    23 C    1.122
    26   1 H    1.020 --     1 C    0.987
    27   1 H    1.022 --     1 C    0.980
    28   1 H    1.022 --     1 C    0.980
    29   1 H    1.010 --     9 C    0.984
    30   1 H    1.023 --     9 C    0.981
    31   1 H    1.003 --     9 C    0.987
    32   1 H    1.004 --    10 C    0.986
    33   1 H    1.006 --    10 C    0.986
    34   1 H    1.016 --    10 C    0.979
    35   1 H    0.949 --    11 N    0.904
    36   1 H    0.998 --    18 C    0.965
    37   1 H    0.998 --    18 C    0.966
    38   1 H    1.000 --    18 C    0.984
    39   1 H    0.975 --    20 N    0.899
    40   1 H    1.017 --    24 C    0.990
    41   1 H    1.034 --    24 C    0.987
    42   1 H    1.027 --    24 C    0.985
 ---------------------------------------------------------------------------

           -------------------------------------------------
          | TOTAL ENERGY              -83.611383844962 Eh   |
          | GRADIENT NORM               0.000558043406 Eh/α |
          | HOMO-LUMO GAP               0.216947109269 eV   |
           -------------------------------------------------

 * finished run on 2023/06/21 at 17:16:20.076
