   * xtb version 6.5.1 (579679a) compiled by 'ehlert@majestix' on 2022-07-11
          program call               : /lustre/hpc/kemi/ree/PhD/git/ReactivityQM/dep/xtb-6.5.1/bin/xtb --gfn 1 /lustre/hpc/kemi/ree/PhD/git/ReactivityQM/calculations/R02/reac01prodE13/conf01/R02_reac01prodE13_conf01_gfn1.xyz --opt --vfukui --chrg -1 --uhf 0 --alpb DMSO

   ID    Z sym.   atoms
    1    6 C      1, 3, 5, 6, 8, 10, 12-15, 17, 19, 22, 23
    2    8 O      2, 4, 7, 9, 18, 24
    3    7 N      11, 16, 20, 21, 25
    4    1 H      26-43

      * Solvation model:               ALPB
        Solvent                        DMSO
        Solvent mass                       7.8130E+01 g/mol
          :  Hamiltonian                  GFN1-xTB          :
 * total energy  :   -83.8249106 Eh     change       -0.9720225E-11 Eh
 * total energy  :   -83.8416406 Eh     change       -0.1673000E-01 Eh
 * total energy  :   -83.8478410 Eh     change       -0.6200359E-02 Eh
 * total energy  :   -83.8490851 Eh     change       -0.1244123E-02 Eh
 * total energy  :   -83.8497518 Eh     change       -0.6667487E-03 Eh
 * total energy  :   -83.8499711 Eh     change       -0.2192266E-03 Eh
 * total energy  :   -83.8501068 Eh     change       -0.1357541E-03 Eh
 * total energy  :   -83.8502322 Eh     change       -0.1253505E-03 Eh
 * total energy  :   -83.8503941 Eh     change       -0.1619378E-03 Eh
 * total energy  :   -83.8506185 Eh     change       -0.2243761E-03 Eh
 * total energy  :   -83.8521084 Eh     change       -0.2454319E-04 Eh
 * total energy  :   -83.8521173 Eh     change       -0.8953839E-05 Eh
 * total energy  :   -83.8521369 Eh     change       -0.1957864E-04 Eh
 * total energy  :   -83.8521463 Eh     change       -0.9337801E-05 Eh
 * total energy  :   -83.8521597 Eh     change       -0.1348718E-04 Eh
 * total energy  :   -83.8521705 Eh     change       -0.1079981E-04 Eh
 * total energy  :   -83.8521765 Eh     change       -0.5922362E-05 Eh
 * total energy  :   -83.8521815 Eh     change       -0.5007879E-05 Eh
 * total energy  :   -83.8521853 Eh     change       -0.3859874E-05 Eh
   *** GEOMETRY OPTIMIZATION CONVERGED AFTER 31 ITERATIONS ***

 final structure:
================
43
 xtb: 6.5.1 (579679a)
C            4.96435497698736        3.35140533689169        0.86026340652826
O            3.83320386579367        2.50754004931101        0.76422567941634
C            3.98238102750557        1.41805991755290       -0.09677191556164
O            5.07373318633622        1.28622540475271       -0.72723943649856
C            2.89269761651583        0.56786845327397       -0.19125407338610
C            2.95155456136279       -0.63521853355247       -1.02932559418555
O            4.13420588128980       -0.90657368354951       -1.66817674397561
C            1.87731315515035       -1.43528710779375       -1.10768548579688
O            1.70078326288904       -2.63315280945101       -1.78506983907504
C            2.66035974952300       -3.00636386607854       -2.75727499103018
N            0.65388448785239       -1.06908211135068       -0.45748954735030
C            0.74653774562715       -0.00718875568280        0.47131286084606
C           -0.49283271252638        0.21169258709226        1.32017538726248
C           -0.46627868586208        1.61886755950849        1.92682665973317
C           -0.55673457126454       -0.85540688243204        2.42562250673979
N           -1.65525106817163        0.06945924598205        0.43376341155479
C           -2.93719216079080        0.16815831079958        0.84127250790984
O           -3.30604462444023        0.46315724782769        1.97315046012992
C           -3.87095166760448       -0.11341372465779       -0.27051046537281
N           -3.54214450174788       -0.42580376425098       -1.49465949638911
N           -4.70905279403295       -0.60990979706920       -2.17969623788287
C           -5.67139528420492       -0.40050122753018       -1.33679117255050
C           -7.12762613944740       -0.47174023688975       -1.59439422374252
O           -5.21417373227932       -0.08172438995719       -0.11422143342597
N            1.74151711211826        0.77802648077392        0.57548626914994
H            4.71648745559505        4.14482637572057        1.56754531296407
H            5.21395566690330        3.79691777043514       -0.11071837605420
H            5.84104243741908        2.80243633021970        1.22582738751433
H            4.73758044168015       -0.12373917241813       -1.44360993224176
H            3.62306660546319       -3.26200228674339       -2.29867592501659
H            2.81741985209595       -2.21264222854472       -3.49780137249424
H            2.26283537365882       -3.89040258523789       -3.26158122648722
H            0.14670518767481       -1.87865620851222       -0.12509342429206
H            0.44596821745604        1.73831394390678        2.51047633055509
H           -0.47313025088454        2.36684512426533        1.13394543946135
H           -1.32706894459993        1.77446312609605        2.57423620467503
H           -0.64146624944759       -1.84714855874397        1.98412022732454
H           -1.41570065898196       -0.68457395336107        3.07252645694398
H            0.35236904794423       -0.81126748747303        3.02379460543379
H           -1.48161738748694       -0.24073078043517       -0.51367887910225
H           -7.30224754218138       -0.78427659679927       -2.62079192118048
H           -7.59461625754602       -1.18152942043958       -0.91222804118897
H           -7.58442968134093        0.50407090454915       -1.42941535986027

          :  Hamiltonian                  GFN1-xTB          :
         :: total energy             -83.852185337321 Eh    ::
         :: gradient norm              0.000625997111 Eh/a0 ::
         :: HOMO-LUMO gap              0.144277256820 eV    ::
         :: SCC energy               -84.605597482061 Eh    ::
         :: -> Gsolv                  -0.105423496634 Eh    ::
         :: repulsion energy           0.778663626007 Eh    ::

    * Orbital Energies and Occupations

         #    Occupation            Energy/Eh            Energy/eV
      -------------------------------------------------------------
         1        2.0000           -0.8490257             -23.1032
       ...           ...                  ...                  ...
        56        2.0000           -0.4689613             -12.7611
        57        2.0000           -0.4637501             -12.6193
        58        2.0000           -0.4618144             -12.5666
        59        2.0000           -0.4480399             -12.1918
        60        2.0000           -0.4457602             -12.1298
        61        2.0000           -0.4409624             -11.9992
        62        2.0000           -0.4364036             -11.8751
        63        2.0000           -0.4272662             -11.6265
        64        2.0000           -0.4247169             -11.5571
        65        2.0000           -0.4070626             -11.0767
        66        2.0000           -0.3863289             -10.5125
        67        2.0000           -0.3794618             -10.3257
        68        1.8843           -0.3012932              -8.1986 (HOMO)
        69        0.1157           -0.2959911              -8.0543 (LUMO)
        70                         -0.2457144              -6.6862
        71                         -0.2262045              -6.1553
        72                         -0.1854505              -5.0464
        73                         -0.1815424              -4.9400
        74                         -0.1384382              -3.7671
        75                         -0.1170812              -3.1859
        76                         -0.1123369              -3.0568
        77                         -0.1112209              -3.0265
        78                         -0.1056245              -2.8742
        79                         -0.0959915              -2.6121
       ...                                ...                  ...
       136                          0.7201827              19.5972
      -------------------------------------------------------------
                  HL-Gap            0.0053021 Eh            0.1443 eV

Wiberg/Mayer (AO) data.
largest (>0.10) Wiberg bond orders for each atom

     #   Z sym  total        # sym  WBO       # sym  WBO       # sym  WBO
 ---------------------------------------------------------------------------
     1   6 C    3.914 --    26 H    0.987    27 H    0.981    28 H    0.981
                             2 O    0.945
     2   8 O    2.071 --     3 C    0.954     1 C    0.945
     3   6 C    3.853 --     5 C    1.385     4 O    1.358     2 O    0.954
     4   8 O    1.795 --     3 C    1.358    29 H    0.127     5 C    0.110
     5   6 C    3.821 --     3 C    1.385    25 N    1.085     6 C    1.064
                             4 O    0.110
     6   6 C    3.896 --     8 C    1.637     5 C    1.064     7 O    1.030
     7   8 O    1.971 --     6 C    1.030    29 H    0.743
     8   6 C    3.798 --     6 C    1.637    11 N    0.974     9 O    0.964
     9   8 O    2.061 --     8 C    0.964    10 C    0.934
    10   6 C    3.906 --    32 H    0.985    31 H    0.982    30 H    0.981
                             9 O    0.934
    11   7 N    3.177 --    12 C    1.032     8 C    0.974    33 H    0.914
                            25 N    0.101
    12   6 C    3.932 --    25 N    1.717    11 N    1.032    13 C    0.976
    13   6 C    3.931 --    14 C    0.994    15 C    0.981    12 C    0.976
                            16 N    0.915
    14   6 C    3.993 --    13 C    0.994    35 H    0.986    34 H    0.984
                            36 H    0.984
    15   6 C    3.990 --    39 H    0.986    37 H    0.984    38 H    0.982
                            13 C    0.981
    16   7 N    3.327 --    17 C    1.252    13 C    0.915    40 H    0.895
                            18 O    0.172
    17   6 C    3.884 --    18 O    1.551    16 N    1.252    19 C    1.007
    18   8 O    1.853 --    17 C    1.551    16 N    0.172
    19   6 C    3.824 --    20 N    1.573    24 O    1.046    17 C    1.007
    20   7 N    2.954 --    19 C    1.573    21 N    1.191
    21   7 N    2.979 --    22 C    1.616    20 N    1.191
    22   6 C    3.861 --    21 N    1.616    24 O    1.076    23 C    1.029
    23   6 C    3.989 --    22 C    1.029    41 H    0.983    42 H    0.967
                            43 H    0.965
    24   8 O    2.297 --    22 C    1.076    19 C    1.046
    25   7 N    3.034 --    12 C    1.717     5 C    1.085    11 N    0.101
    26   1 H    1.019 --     1 C    0.987
    27   1 H    1.019 --     1 C    0.981
    28   1 H    1.018 --     1 C    0.981
    29   1 H    0.883 --     7 O    0.743     4 O    0.127
    30   1 H    1.021 --    10 C    0.981
    31   1 H    1.016 --    10 C    0.982
    32   1 H    1.018 --    10 C    0.985
    33   1 H    0.959 --    11 N    0.914
    34   1 H    1.018 --    14 C    0.984
    35   1 H    1.011 --    14 C    0.986
    36   1 H    1.014 --    14 C    0.984
    37   1 H    1.004 --    15 C    0.984
    38   1 H    1.011 --    15 C    0.982
    39   1 H    1.005 --    15 C    0.986
    40   1 H    0.969 --    16 N    0.895
    41   1 H    1.000 --    23 C    0.983
    42   1 H    0.998 --    23 C    0.967
    43   1 H    0.998 --    23 C    0.965
 ---------------------------------------------------------------------------

           -------------------------------------------------
          | TOTAL ENERGY              -83.852185337321 Eh   |
          | GRADIENT NORM               0.000625997111 Eh/α |
          | HOMO-LUMO GAP               0.144277256820 eV   |
           -------------------------------------------------

 * finished run on 2023/06/20 at 15:16:06.301
