   * xtb version 6.5.1 (579679a) compiled by 'ehlert@majestix' on 2022-07-11
          program call               : /lustre/hpc/kemi/ree/PhD/git/ReactivityQM/dep/xtb-6.5.1/bin/xtb --gfn 1 /lustre/hpc/kemi/ree/PhD/git/ReactivityQM/calculations/R01/reac01/conf04/R01_reac01_conf04_gfn1.xyz --opt --vfukui --chrg 0 --uhf 0 --alpb DMSO

   ID    Z sym.   atoms
    1    6 C      1, 3, 5, 8, 9
    2    8 O      2, 4, 10
    3    7 N      6, 7
    4    1 H      11-16

      * Solvation model:               ALPB
        Solvent                        DMSO
        Solvent mass                       7.8130E+01 g/mol
          :  Hamiltonian                  GFN1-xTB          :
 * total energy  :   -34.2857838 Eh     change       -0.1961098E-11 Eh
 * total energy  :   -34.2931157 Eh     change       -0.7331956E-02 Eh
 * total energy  :   -34.2957123 Eh     change       -0.2596585E-02 Eh
 * total energy  :   -34.2960226 Eh     change       -0.3103042E-03 Eh
 * total energy  :   -34.2961345 Eh     change       -0.1118393E-03 Eh
 * total energy  :   -34.2961482 Eh     change       -0.1370859E-04 Eh
 * total energy  :   -34.2961562 Eh     change       -0.8003584E-05 Eh
 * total energy  :   -34.2961617 Eh     change       -0.5527773E-05 Eh
 * total energy  :   -34.2961806 Eh     change       -0.1891804E-04 Eh
 * total energy  :   -34.2961914 Eh     change       -0.1080489E-04 Eh
 * total energy  :   -34.2962141 Eh     change       -0.2271431E-04 Eh
 * total energy  :   -34.2962372 Eh     change       -0.2311399E-04 Eh
 * total energy  :   -34.2962546 Eh     change       -0.1739601E-04 Eh
 * total energy  :   -34.2962629 Eh     change       -0.8260362E-05 Eh
 * total energy  :   -34.2962690 Eh     change       -0.6091705E-05 Eh
 * total energy  :   -34.2962762 Eh     change       -0.7213232E-05 Eh
 * total energy  :   -34.2962816 Eh     change       -0.5438568E-05 Eh
 * total energy  :   -34.2962827 Eh     change       -0.1013649E-05 Eh
 * total energy  :   -34.2962844 Eh     change       -0.1724163E-05 Eh
   *** GEOMETRY OPTIMIZATION CONVERGED AFTER 19 ITERATIONS ***

 final structure:
================
16
 xtb: 6.5.1 (579679a)
C           -3.59835747980967       -0.20510436972214       -0.49150508824002
O           -2.21217563893104       -0.14716994365966       -0.85074049810203
C           -1.34612977000852       -0.03671328763555        0.15000030429989
O           -1.64871494318383        0.02484594186481        1.31572998001359
C            0.04724986873687       -0.00137561078841       -0.35717316602244
N            0.45527323915481       -0.06049515014808       -1.59020584525831
N            1.81057183650973        0.00593148918409       -1.55725600548021
C            2.15085272075689        0.10123041037450       -0.30550325062011
C            3.51533893638757        0.20097960275045        0.25458234200980
O            1.08235764061466        0.10225949295806        0.49996040768154
H           -3.78955172605747       -1.10023025718034        0.10394274244004
H           -3.87188296585518        0.68084993984083        0.08522428956625
H           -4.15750421316149       -0.24130782504020       -1.42368095306197
H            3.71091925839631       -0.64802411077500        0.90924013786862
H            4.24285408524202        0.21363218338710       -0.55294746953045
H            3.60889815120840        1.11069249458954        0.84708307243578

          :  Hamiltonian                  GFN1-xTB          :
         :: total energy             -34.296284383935 Eh    ::
         :: gradient norm              0.000451818200 Eh/a0 ::
         :: HOMO-LUMO gap              3.715679650243 eV    ::
         :: SCC energy               -34.589401144335 Eh    ::
         :: -> Gsolv                  -0.020305333606 Eh    ::
         :: repulsion energy           0.299068914568 Eh    ::

    * Orbital Energies and Occupations

         #    Occupation            Energy/Eh            Energy/eV
      -------------------------------------------------------------
         1        2.0000           -0.8707295             -23.6938
       ...           ...                  ...                  ...
        15        2.0000           -0.5967198             -16.2376
        16        2.0000           -0.5710490             -15.5390
        17        2.0000           -0.5653493             -15.3839
        18        2.0000           -0.5493084             -14.9474
        19        2.0000           -0.5478878             -14.9088
        20        2.0000           -0.5374484             -14.6247
        21        2.0000           -0.5214418             -14.1892
        22        2.0000           -0.5125159             -13.9463
        23        2.0000           -0.5042658             -13.7218
        24        2.0000           -0.4963711             -13.5069
        25        2.0000           -0.4827178             -13.1354
        26        2.0000           -0.4619277             -12.5697
        27        2.0000           -0.4600316             -12.5181 (HOMO)
        28                         -0.3234829              -8.8024 (LUMO)
        29                         -0.2624184              -7.1408
        30                         -0.2090581              -5.6888
        31                         -0.1449114              -3.9432
        32                         -0.1412045              -3.8424
        33                         -0.0776172              -2.1121
        34                         -0.0768213              -2.0904
        35                         -0.0766066              -2.0846
        36                         -0.0763188              -2.0767
        37                          0.0005442               0.0148
        38                          0.0345673               0.9406
       ...                                ...                  ...
        52                          0.7331299              19.9495
      -------------------------------------------------------------
                  HL-Gap            0.1365487 Eh            3.7157 eV

Wiberg/Mayer (AO) data.
largest (>0.10) Wiberg bond orders for each atom

     #   Z sym  total        # sym  WBO       # sym  WBO       # sym  WBO
 ---------------------------------------------------------------------------
     1   6 C    3.861 --    13 H    0.986    12 H    0.979    11 H    0.979
                             2 O    0.888
     2   8 O    2.207 --     3 C    1.124     1 C    0.888     4 O    0.141
     3   6 C    3.866 --     4 O    1.670     2 O    1.124     5 C    0.990
     4   8 O    1.941 --     3 C    1.670     2 O    0.141
     5   6 C    3.879 --     6 N    1.607    10 O    1.057     3 C    0.990
     6   7 N    3.004 --     5 C    1.607     7 N    1.217
     7   7 N    2.982 --     8 C    1.589     6 N    1.217
     8   6 C    3.868 --     7 N    1.589    10 O    1.091     9 C    1.033
     9   6 C    3.985 --     8 C    1.033    15 H    0.982    16 H    0.963
                            14 H    0.961
    10   8 O    2.331 --     8 C    1.091     5 C    1.057
    11   1 H    1.004 --     1 C    0.979
    12   1 H    1.005 --     1 C    0.979
    13   1 H    1.009 --     1 C    0.986
    14   1 H    0.996 --     9 C    0.961
    15   1 H    0.998 --     9 C    0.982
    16   1 H    0.996 --     9 C    0.963
 ---------------------------------------------------------------------------

           -------------------------------------------------
          | TOTAL ENERGY              -34.296284383935 Eh   |
          | GRADIENT NORM               0.000451818200 Eh/α |
          | HOMO-LUMO GAP               3.715679650243 eV   |
           -------------------------------------------------

 * finished run on 2023/06/20 at 14:51:55.381
