   * xtb version 6.5.1 (579679a) compiled by 'ehlert@majestix' on 2022-07-11
          program call               : /lustre/hpc/kemi/ree/PhD/git/ReactivityQM/dep/xtb-6.5.1/bin/xtb --gfn 1 /lustre/hpc/kemi/ree/PhD/git/ReactivityQM/calculations/R02oxygendeprot/reac01prodN03/conf18/R02oxygendeprot_reac01prodN03_conf18_gfn1.xyz --opt --vfukui --chrg 0 --uhf 0 --alpb DMSO

   ID    Z sym.   atoms
    1    6 C      1, 3, 5, 6, 8-11, 13, 15, 18, 19, 22, 24
    2    8 O      2, 4, 14, 20, 23, 25
    3    7 N      7, 12, 16, 17, 21
    4    1 H      26-42

      * Solvation model:               ALPB
        Solvent                        DMSO
        Solvent mass                       7.8130E+01 g/mol
          :  Hamiltonian                  GFN1-xTB          :
 * total energy  :   -82.9860712 Eh     change       -0.6480150E-11 Eh
 * total energy  :   -82.9965638 Eh     change       -0.1049255E-01 Eh
 * total energy  :   -83.0004254 Eh     change       -0.3861695E-02 Eh
 * total energy  :   -83.0012173 Eh     change       -0.7918619E-03 Eh
 * total energy  :   -83.0017689 Eh     change       -0.5516119E-03 Eh
 * total energy  :   -83.0020407 Eh     change       -0.2717927E-03 Eh
 * total energy  :   -83.0022809 Eh     change       -0.2401957E-03 Eh
 * total energy  :   -83.0024800 Eh     change       -0.1991019E-03 Eh
 * total energy  :   -83.0026557 Eh     change       -0.1756954E-03 Eh
 * total energy  :   -83.0028099 Eh     change       -0.1542298E-03 Eh
 * total energy  :   -83.0039991 Eh     change       -0.1429400E-04 Eh
 * total energy  :   -83.0040212 Eh     change       -0.2203634E-04 Eh
 * total energy  :   -83.0040388 Eh     change       -0.1765103E-04 Eh
 * total energy  :   -83.0040572 Eh     change       -0.1841820E-04 Eh
 * total energy  :   -83.0040670 Eh     change       -0.9786758E-05 Eh
 * total energy  :   -83.0040730 Eh     change       -0.5936635E-05 Eh
 * total energy  :   -83.0040798 Eh     change       -0.6859433E-05 Eh
 * total energy  :   -83.0040840 Eh     change       -0.4193248E-05 Eh
 * total energy  :   -83.0040865 Eh     change       -0.2535441E-05 Eh
   *** GEOMETRY OPTIMIZATION CONVERGED AFTER 44 ITERATIONS ***

 final structure:
================
42
 xtb: 6.5.1 (579679a)
C            5.87852396811204        0.11990667011476       -0.76212837723624
O            4.78331300941517        0.78439791482298       -0.11124621340540
C            3.58159458925844        0.28302575797247       -0.29573265016085
O            3.32232850302267       -0.67651847545854       -0.97194068999781
C            2.48939449098166        1.10844280161838        0.44703495789490
C            3.06195111974958        1.86462899635468        1.64547026966943
N            1.51581301829722        0.14059637482501        0.89479975989182
C            0.54554813925143       -0.19035724671363        0.15122057413112
C           -0.35863435818386       -1.33529378246932        0.55369587590306
C            0.06122634160878       -2.55547603896994       -0.28046735035027
C           -0.22887509203275       -1.61625840631727        2.05310983383330
N           -1.73549812602516       -0.94159053205246        0.23811179036187
C           -2.79201181515689       -1.77123626248989        0.40595084265939
O           -2.72551019757707       -2.95793897858175        0.67212563394822
C           -4.08891150915730       -1.07580825832408        0.21326493691937
N           -5.28099723045079       -1.57941973388562        0.29360954599948
N           -6.15561947649839       -0.55918585878169        0.06917341023513
C           -5.44414483160258        0.50585044441255       -0.13286550017600
C           -5.91951095415809        1.87635882190908       -0.42037847587064
O           -4.12788942499405        0.24801585594281       -0.05509174853676
N            0.27316523863228        0.39112441703699       -1.08161883606679
C            0.89447604265082        1.50775422433606       -1.55385515467097
O            0.60142389808884        2.02436090095601       -2.60748740201847
C            1.98075695163661        2.06018082577274       -0.62225402210289
O            2.42592286780523        3.16762328077277       -0.76990876013776
H            5.78322955688077        0.22801331676305       -1.84405034313368
H            5.87883228249936       -0.93878614637197       -0.49730185777814
H            6.78469153195489        0.60451978338317       -0.40695702567064
H            3.55471703804147        1.16747173651644        2.31883106065953
H            2.25013027323656        2.36002169957433        2.17476007562212
H            3.77730708011053        2.61131591839112        1.30649462962149
H            1.13061635220010       -2.72049886163211       -0.15314810748009
H           -0.47871125711984       -3.44176816514516        0.04621339685400
H           -0.14675388392576       -2.37791072152861       -1.33388577821567
H            0.80538062317302       -1.86189858083394        2.28806732119966
H           -0.52036436297234       -0.73519187668757        2.62182521635434
H           -0.86906642035965       -2.45183201103214        2.33008627606897
H           -1.92786231294930        0.04323452476915        0.15586058739012
H           -5.53348926934089        2.56755735758888        0.32822963700470
H           -7.00645036247823        1.89760623529350       -0.41287183547465
H           -5.55361105577309        2.19854523683543       -1.39511691437435
H           -0.48643097585400        0.02641684131431       -1.63649558936476

          :  Hamiltonian                  GFN1-xTB          :
         :: total energy             -83.004086542227 Eh    ::
         :: gradient norm              0.000306488115 Eh/a0 ::
         :: HOMO-LUMO gap              2.394293581779 eV    ::
         :: SCC energy               -83.792493144139 Eh    ::
         :: -> Gsolv                  -0.055459999167 Eh    ::
         :: repulsion energy           0.815026017883 Eh    ::

    * Orbital Energies and Occupations

         #    Occupation            Energy/Eh            Energy/eV
      -------------------------------------------------------------
         1        2.0000           -0.8663970             -23.5759
       ...           ...                  ...                  ...
        55        2.0000           -0.5114286             -13.9167
        56        2.0000           -0.5067871             -13.7904
        57        2.0000           -0.5058544             -13.7650
        58        2.0000           -0.5015992             -13.6492
        59        2.0000           -0.4915403             -13.3755
        60        2.0000           -0.4809822             -13.0882
        61        2.0000           -0.4710226             -12.8172
        62        2.0000           -0.4647540             -12.6466
        63        2.0000           -0.4617145             -12.5639
        64        2.0000           -0.4588708             -12.4865
        65        2.0000           -0.4529242             -12.3247
        66        2.0000           -0.4501259             -12.2485
        67        2.0000           -0.4402433             -11.9796 (HOMO)
        68                         -0.3522546              -9.5853 (LUMO)
        69                         -0.3127593              -8.5106
        70                         -0.2967900              -8.0761
        71                         -0.2697209              -7.3395
        72                         -0.2573725              -7.0035
        73                         -0.2244819              -6.1085
        74                         -0.2004726              -5.4551
        75                         -0.1466111              -3.9895
        76                         -0.1421920              -3.8692
        77                         -0.1278746              -3.4796
        78                         -0.1249488              -3.4000
       ...                                ...                  ...
       134                          0.7598765              20.6773
      -------------------------------------------------------------
                  HL-Gap            0.0879887 Eh            2.3943 eV

Wiberg/Mayer (AO) data.
largest (>0.10) Wiberg bond orders for each atom

     #   Z sym  total        # sym  WBO       # sym  WBO       # sym  WBO
 ---------------------------------------------------------------------------
     1   6 C    3.852 --    28 H    0.985    27 H    0.980    26 H    0.979
                             2 O    0.874
     2   8 O    2.231 --     3 C    1.158     1 C    0.874     4 O    0.140
     3   6 C    3.845 --     4 O    1.695     2 O    1.158     5 C    0.864
     4   8 O    1.966 --     3 C    1.695     2 O    0.140
     5   6 C    3.964 --     6 C    0.982     7 N    0.981    24 C    0.948
                             3 C    0.864
     6   6 C    3.985 --    29 H    0.985    30 H    0.983    31 H    0.982
                             5 C    0.982
     7   7 N    3.028 --     8 C    1.759     5 C    0.981
     8   6 C    3.927 --     7 N    1.759    21 N    1.066     9 C    0.979
     9   6 C    3.933 --    11 C    0.990     8 C    0.979    10 C    0.975
                            12 N    0.924
    10   6 C    3.987 --    32 H    0.984    34 H    0.984    33 H    0.977
                             9 C    0.975
    11   6 C    3.988 --     9 C    0.990    36 H    0.985    35 H    0.983
                            37 H    0.982
    12   7 N    3.331 --    13 C    1.240     9 C    0.924    38 H    0.894
                            14 O    0.172
    13   6 C    3.915 --    14 O    1.597    12 N    1.240    15 C    0.993
    14   8 O    1.911 --    13 C    1.597    12 N    0.172
    15   6 C    3.872 --    16 N    1.622    20 O    1.046    13 C    0.993
    16   7 N    3.001 --    15 C    1.622    17 N    1.199
    17   7 N    2.982 --    18 C    1.610    16 N    1.199
    18   6 C    3.868 --    17 N    1.610    20 O    1.072    19 C    1.032
    19   6 C    3.986 --    18 C    1.032    40 H    0.982    39 H    0.963
                            41 H    0.962
    20   8 O    2.316 --    18 C    1.072    15 C    1.046
    21   7 N    3.430 --    22 C    1.186     8 C    1.066    42 H    0.880
                            23 O    0.149
    22   6 C    3.893 --    23 O    1.675    21 N    1.186    24 C    0.906
    23   8 O    1.959 --    22 C    1.675    21 N    0.149
    24   6 C    3.847 --    25 O    1.813     5 C    0.948    22 C    0.906
    25   8 O    2.027 --    24 C    1.813
    26   1 H    1.003 --     1 C    0.979
    27   1 H    1.004 --     1 C    0.980
    28   1 H    1.007 --     1 C    0.985
    29   1 H    1.003 --     6 C    0.985
    30   1 H    1.001 --     6 C    0.983
    31   1 H    1.008 --     6 C    0.982
    32   1 H    1.004 --    10 C    0.984
    33   1 H    1.011 --    10 C    0.977
    34   1 H    1.000 --    10 C    0.984
    35   1 H    1.009 --    11 C    0.983
    36   1 H    1.003 --    11 C    0.985
    37   1 H    1.005 --    11 C    0.982
    38   1 H    0.938 --    12 N    0.894
    39   1 H    0.997 --    19 C    0.963
    40   1 H    0.998 --    19 C    0.982
    41   1 H    0.996 --    19 C    0.962
    42   1 H    0.926 --    21 N    0.880
 ---------------------------------------------------------------------------

           -------------------------------------------------
          | TOTAL ENERGY              -83.004086542227 Eh   |
          | GRADIENT NORM               0.000306488115 Eh/α |
          | HOMO-LUMO GAP               2.394293581779 eV   |
           -------------------------------------------------

 * finished run on 2023/06/21 at 17:19:20.387
