   * xtb version 6.5.1 (579679a) compiled by 'ehlert@majestix' on 2022-07-11
          program call               : /lustre/hpc/kemi/ree/PhD/git/ReactivityQM/dep/xtb-6.5.1/bin/xtb --gfn 1 /lustre/hpc/kemi/ree/PhD/git/ReactivityQM/calculations/R02methylcation/reac01prodE06/conf17/R02methylcation_reac01prodE06_conf17_gfn1.xyz --opt --vfukui --chrg -2 --uhf 0 --alpb DMSO

   ID    Z sym.   atoms
    1    6 C      1, 3, 5, 6, 8, 11-15, 17, 19, 22, 23
    2    8 O      2, 4, 7, 9, 18, 24
    3    7 N      10, 16, 20, 21, 25
    4    1 H      26-42

      * Solvation model:               ALPB
        Solvent                        DMSO
        Solvent mass                       7.8130E+01 g/mol
          :  Hamiltonian                  GFN1-xTB          :
 * total energy  :   -83.6050625 Eh     change       -0.1855881E-08 Eh
 * total energy  :   -83.6162732 Eh     change       -0.1121075E-01 Eh
 * total energy  :   -83.6201453 Eh     change       -0.3872047E-02 Eh
 * total energy  :   -83.6210250 Eh     change       -0.8797533E-03 Eh
 * total energy  :   -83.6216225 Eh     change       -0.5974046E-03 Eh
 * total energy  :   -83.6218787 Eh     change       -0.2562044E-03 Eh
 * total energy  :   -83.6220592 Eh     change       -0.1805473E-03 Eh
 * total energy  :   -83.6222108 Eh     change       -0.1515888E-03 Eh
 * total energy  :   -83.6223416 Eh     change       -0.1308009E-03 Eh
 * total energy  :   -83.6224681 Eh     change       -0.1264758E-03 Eh
 * total energy  :   -83.6252083 Eh     change       -0.1642193E-04 Eh
 * total energy  :   -83.6252190 Eh     change       -0.1063686E-04 Eh
 * total energy  :   -83.6252333 Eh     change       -0.1433852E-04 Eh
 * total energy  :   -83.6252405 Eh     change       -0.7216142E-05 Eh
 * total energy  :   -83.6252490 Eh     change       -0.8460043E-05 Eh
 * total energy  :   -83.6252564 Eh     change       -0.7388549E-05 Eh
 * total energy  :   -83.6252630 Eh     change       -0.6628967E-05 Eh
 * total energy  :   -83.6252716 Eh     change       -0.8626605E-05 Eh
 * total energy  :   -83.6252762 Eh     change       -0.4552745E-05 Eh
   *** GEOMETRY OPTIMIZATION CONVERGED AFTER 88 ITERATIONS ***

 final structure:
================
42
 xtb: 6.5.1 (579679a)
C           -5.64060455912870        2.12747765181864       -0.29245654843639
O           -4.42280825795439        1.40841651127137       -0.27808771082551
C           -4.44421923385323        0.21872994606620        0.43081053098402
O           -5.48505748253444       -0.12185619981640        0.98871767187644
C           -3.16821552322630       -0.47574041201971        0.39708668999592
C           -3.02506250698725       -1.72797119426633        1.06529530035128
O           -3.90446165918740       -2.29010855673854        1.78120616858537
C           -1.71593805436572       -2.42239766013066        0.84494898707325
O           -1.46642970044639       -3.58027623924158        1.21721139724022
N           -0.76775139684530       -1.72845193312319        0.15548476413448
C           -0.88797763068351       -0.36426719368722       -0.33641960219247
C           -0.31770555151105       -0.34724097405626       -1.76925633592887
C           -0.00408035139805        0.59710315679815        0.62968250529157
C           -0.48125726959907        0.40472940717987        2.07629265589753
C           -0.22690858772640        2.05913955245505        0.23744573533961
N            1.39110748245003        0.22052898289481        0.60084152117811
C            2.35302604782891        0.56846478952696       -0.31226020743256
O            2.20908395518793        1.41004018782166       -1.22001890159475
C            3.57645706380575       -0.16803276150983       -0.07330864711574
N            3.76851899619064       -1.08720953202013        0.86178230670943
N            5.05983901676454       -1.52140923894673        0.72320644275535
C            5.57706342014166       -0.86251050455727       -0.26174835814171
C            6.95744253138713       -0.98153453106534       -0.79112988208091
O            4.71103930613334        0.01215921916692       -0.81963356160568
N           -2.20638752347479        0.12871615313885       -0.36213446964938
H           -5.93736633469309        2.42380363597355        0.72051677039296
H           -5.48357382166980        3.02015092585867       -0.89847761887427
H           -6.44878007090344        1.52929924696533       -0.72960577755926
H            0.11172405467050       -2.19396091495225        0.00286196766314
H           -0.95164502837689       -0.97102333508886       -2.39931558063807
H            0.69472512330225       -0.74299769630118       -1.79295465333040
H           -0.31863517344591        0.66409825290446       -2.16871444088728
H           -0.32155233966744       -0.62208996935295        2.40531273457365
H            0.07058810080037        1.06915028092884        2.74062833635222
H           -1.54318775637059        0.63868011374921        2.15286216048878
H            0.10370760894409        2.27021893119360       -0.77662540350783
H            0.31000555407126        2.71831848165038        0.91965985875417
H           -1.29510250362370        2.27372610261697        0.30221812975475
H            1.65556812909019       -0.52669126747290        1.23068857435814
H            7.47568561440771       -1.78472225480208       -0.27219250925206
H            6.93594023086012       -1.19329714503125       -1.86021494832030
H            7.50318608163922       -0.04916201578685       -0.64391405237865

          :  Hamiltonian                  GFN1-xTB          :
         :: total energy             -83.625276162791 Eh    ::
         :: gradient norm              0.000982990073 Eh/a0 ::
         :: HOMO-LUMO gap              0.284539375550 eV    ::
         :: SCC energy               -84.350438072817 Eh    ::
         :: -> Gsolv                  -0.272675028144 Eh    ::
         :: repulsion energy           0.752996083948 Eh    ::

    * Orbital Energies and Occupations

         #    Occupation            Energy/Eh            Energy/eV
      -------------------------------------------------------------
         1        2.0000           -0.8154456             -22.1894
       ...           ...                  ...                  ...
        56        2.0000           -0.4460302             -12.1371
        57        2.0000           -0.4402633             -11.9802
        58        2.0000           -0.4179787             -11.3738
        59        2.0000           -0.4164530             -11.3323
        60        2.0000           -0.4139596             -11.2644
        61        2.0000           -0.4110997             -11.1866
        62        2.0000           -0.4050290             -11.0214
        63        2.0000           -0.4025396             -10.9537
        64        2.0000           -0.3913382             -10.6489
        65        2.0000           -0.3736554             -10.1677
        66        2.0000           -0.3687132             -10.0332
        67        2.0000           -0.3359045              -9.1404
        68        1.9919           -0.2790321              -7.5928 (HOMO)
        69        0.0081           -0.2685754              -7.3083 (LUMO)
        70                         -0.2373793              -6.4594
        71                         -0.2199914              -5.9863
        72                         -0.1645269              -4.4770
        73                         -0.1489394              -4.0528
        74                         -0.1278882              -3.4800
        75                         -0.1131972              -3.0803
        76                         -0.0997396              -2.7141
        77                         -0.0924544              -2.5158
        78                         -0.0889642              -2.4208
        79                         -0.0798506              -2.1728
       ...                                ...                  ...
       134                          0.7577213              20.6186
      -------------------------------------------------------------
                  HL-Gap            0.0104566 Eh            0.2845 eV

Wiberg/Mayer (AO) data.
largest (>0.10) Wiberg bond orders for each atom

     #   Z sym  total        # sym  WBO       # sym  WBO       # sym  WBO
 ---------------------------------------------------------------------------
     1   6 C    3.913 --    27 H    0.987    26 H    0.980    28 H    0.980
                             2 O    0.942
     2   8 O    2.115 --     3 C    0.991     1 C    0.942
     3   6 C    3.813 --     4 O    1.559     5 C    1.125     2 O    0.991
     4   8 O    1.828 --     3 C    1.559
     5   6 C    3.917 --    25 N    1.250     6 C    1.235     3 C    1.125
                             7 O    0.101
     6   6 C    3.878 --     7 O    1.432     5 C    1.235     8 C    0.994
     7   8 O    1.681 --     6 C    1.432     5 C    0.101
     8   6 C    3.872 --     9 O    1.518    10 N    1.196     6 C    0.994
     9   8 O    1.788 --     8 C    1.518    10 N    0.142
    10   7 N    3.308 --     8 C    1.196    11 C    0.926    29 H    0.915
                             9 O    0.142
    11   6 C    3.935 --    25 N    1.071    12 C    0.980    10 N    0.926
                            13 C    0.855
    12   6 C    3.995 --    31 H    0.986    30 H    0.986    32 H    0.982
                            11 C    0.980
    13   6 C    3.925 --    15 C    1.002    14 C    0.999    16 N    0.959
                            11 C    0.855
    14   6 C    3.996 --    13 C    0.999    34 H    0.987    33 H    0.983
                            35 H    0.983
    15   6 C    3.994 --    13 C    1.002    37 H    0.986    38 H    0.982
                            36 H    0.977
    16   7 N    3.309 --    17 C    1.166    13 C    0.959    39 H    0.910
                            18 O    0.142
    17   6 C    3.879 --    18 O    1.451    16 N    1.166    19 C    1.094
    18   8 O    1.775 --    17 C    1.451    16 N    0.142
    19   6 C    3.747 --    20 N    1.461    17 C    1.094    24 O    1.004
    20   7 N    2.837 --    19 C    1.461    21 N    1.179
    21   7 N    2.980 --    22 C    1.632    20 N    1.179
    22   6 C    3.839 --    21 N    1.632    24 O    1.057    23 C    1.025
    23   6 C    3.993 --    22 C    1.025    40 H    0.985    41 H    0.971
                            42 H    0.968
    24   8 O    2.227 --    22 C    1.057    19 C    1.004
    25   7 N    2.722 --     5 C    1.250    11 C    1.071
    26   1 H    1.018 --     1 C    0.980
    27   1 H    1.019 --     1 C    0.987
    28   1 H    1.018 --     1 C    0.980
    29   1 H    0.964 --    10 N    0.915
    30   1 H    1.019 --    12 C    0.986
    31   1 H    1.009 --    12 C    0.986
    32   1 H    1.020 --    12 C    0.982
    33   1 H    1.009 --    14 C    0.983
    34   1 H    1.007 --    14 C    0.987
    35   1 H    1.014 --    14 C    0.983
    36   1 H    1.025 --    15 C    0.977
    37   1 H    1.006 --    15 C    0.986
    38   1 H    1.029 --    15 C    0.982
    39   1 H    0.975 --    16 N    0.910
    40   1 H    1.003 --    23 C    0.985
    41   1 H    1.000 --    23 C    0.971
    42   1 H    1.000 --    23 C    0.968
 ---------------------------------------------------------------------------

           -------------------------------------------------
          | TOTAL ENERGY              -83.625276162791 Eh   |
          | GRADIENT NORM               0.000982990073 Eh/α |
          | HOMO-LUMO GAP               0.284539375550 eV   |
           -------------------------------------------------

 * finished run on 2023/06/21 at 17:15:33.246
