                         Program Version 5.0.1 -  RELEASE  -
|  1> # ORCA input file
|  2> ! SP r2SCAN-3c CPCM
|  3>
|  4> %maxcore 1875.0
|  5> %pal nprocs 4 end
|  6> %cpcm smd true SMDsolvent "DMSO" end
|  7>
|  8> *xyz -2 1
|  9> C      -3.598136    2.788690    2.123065
| 10> O      -3.558520    1.733126    1.189313
| 11> C      -2.289498    1.145104    1.011159
| 12> O      -1.337656    1.621142    1.671800
| 13> C      -2.239772    0.054634    0.133405
| 14> N      -0.958431   -0.426785   -0.053539
| 15> C      -0.716077   -1.489064   -0.728382
| 16> C       0.713807   -1.944936   -0.963296
| 17> C       1.003734   -3.267044   -0.233107
| 18> C       0.996981   -2.090001   -2.466486
| 19> N       1.550912   -0.886590   -0.399577
| 20> C       2.885641   -0.857385   -0.419505
| 21> O       3.619889   -1.704616   -0.920508
| 22> C       3.408322    0.368635    0.243587
| 23> N       2.698960    1.325222    0.764593
| 24> N       3.578460    2.251227    1.247790
| 25> C       4.765476    1.802299    0.990357
| 26> C       6.060210    2.441494    1.315084
| 27> O       4.731616    0.618473    0.356796
| 28> N      -1.740817   -2.305797   -1.240951
| 29> C      -3.056049   -2.003093   -1.000139
| 30> O      -3.899590   -2.904176   -1.090927
| 31> C      -3.366213   -0.476440   -0.811209
| 32> C      -4.766636   -0.414760   -0.108856
| 33> O      -3.365646    0.087383   -2.029759
| 34> H      -3.284831    2.455594    3.121563
| 35> H      -4.628975    3.144201    2.175586
| 36> H      -2.948450    3.621383    1.821329
| 37> H       2.042936   -3.559218   -0.374871
| 38> H       0.365590   -4.054823   -0.628621
| 39> H       0.808438   -3.155481    0.832949
| 40> H       2.011580   -2.447260   -2.632163
| 41> H       0.300680   -2.805630   -2.900287
| 42> H       0.874074   -1.128719   -2.965485
| 43> H       1.030574   -0.145988    0.083300
| 44> H       5.886558    3.342601    1.897672
| 45> H       6.684808    1.753770    1.883703
| 46> H       6.591858    2.700009    0.399430
| 47> H      -1.529415   -3.271951   -1.424605
| 48> H      -5.449307   -1.095023   -0.621186
| 49> H      -5.171959    0.592202   -0.191039
| 50> H      -4.705122   -0.699977    0.942018
| 51> **                         ****END OF INPUT****

CARTESIAN COORDINATES (ANGSTROEM)
---------------------------------
  C     -3.598136    2.788690    2.123065
  O     -3.558520    1.733126    1.189313
  C     -2.289498    1.145104    1.011159
  O     -1.337656    1.621142    1.671800
  C     -2.239772    0.054634    0.133405
  N     -0.958431   -0.426785   -0.053539
  C     -0.716077   -1.489064   -0.728382
  C      0.713807   -1.944936   -0.963296
  C      1.003734   -3.267044   -0.233107
  C      0.996981   -2.090001   -2.466486
  N      1.550912   -0.886590   -0.399577
  C      2.885641   -0.857385   -0.419505
  O      3.619889   -1.704616   -0.920508
  C      3.408322    0.368635    0.243587
  N      2.698960    1.325222    0.764593
  N      3.578460    2.251227    1.247790
  C      4.765476    1.802299    0.990357
  C      6.060210    2.441494    1.315084
  O      4.731616    0.618473    0.356796
  N     -1.740817   -2.305797   -1.240951
  C     -3.056049   -2.003093   -1.000139
  O     -3.899590   -2.904176   -1.090927
  C     -3.366213   -0.476440   -0.811209
  C     -4.766636   -0.414760   -0.108856
  O     -3.365646    0.087383   -2.029759
  H     -3.284831    2.455594    3.121563
  H     -4.628975    3.144201    2.175586
  H     -2.948450    3.621383    1.821329
  H      2.042936   -3.559218   -0.374871
  H      0.365590   -4.054823   -0.628621
  H      0.808438   -3.155481    0.832949
  H      2.011580   -2.447260   -2.632163
  H      0.300680   -2.805630   -2.900287
  H      0.874074   -1.128719   -2.965485
  H      1.030574   -0.145988    0.083300
  H      5.886558    3.342601    1.897672
  H      6.684808    1.753770    1.883703
  H      6.591858    2.700009    0.399430
  H     -1.529415   -3.271951   -1.424605
  H     -5.449307   -1.095023   -0.621186
  H     -5.171959    0.592202   -0.191039
  H     -4.705122   -0.699977    0.942018

 Total Charge           Charge          ....   -2
 Multiplicity           Mult            ....    1
 Number of Electrons    NEL             ....  186
 Basis Dimension        Dim             ....  615

ORBITAL ENERGIES
----------------

  NO   OCC          E(Eh)            E(eV)
   0   2.0000     -19.056446      -518.5522
   1   2.0000     -18.933851      -515.2163
   2   2.0000     -18.917556      -514.7729
   3   2.0000     -18.878279      -513.7041
   4   2.0000     -18.856523      -513.1121
   5   2.0000     -18.794493      -511.4242
   6   2.0000     -14.196397      -386.3036
   7   2.0000     -14.190446      -386.1417
   8   2.0000     -14.175105      -385.7242
   9   2.0000     -14.160108      -385.3161
  10   2.0000     -14.111526      -383.9942
  11   2.0000     -10.139883      -275.9203
  12   2.0000     -10.138799      -275.8907
  13   2.0000     -10.134134      -275.7638
  14   2.0000     -10.078071      -274.2382
  15   2.0000     -10.076688      -274.2006
  16   2.0000     -10.076639      -274.1993
  17   2.0000     -10.053518      -273.5701
  18   2.0000     -10.046203      -273.3711
  19   2.0000     -10.040711      -273.2216
  20   2.0000     -10.027159      -272.8529
  21   2.0000     -10.008398      -272.3424
  22   2.0000     -10.007092      -272.3068
  23   2.0000      -9.979818      -271.5647
  24   2.0000      -9.966374      -271.1988
  25   2.0000      -1.144585       -31.1457
  26   2.0000      -1.003434       -27.3048
  27   2.0000      -0.991532       -26.9810
  28   2.0000      -0.966605       -26.3027
  29   2.0000      -0.961320       -26.1588
  30   2.0000      -0.907894       -24.7050
  31   2.0000      -0.895772       -24.3752
  32   2.0000      -0.879807       -23.9408
  33   2.0000      -0.836826       -22.7712
  34   2.0000      -0.823200       -22.4004
  35   2.0000      -0.810231       -22.0475
  36   2.0000      -0.749047       -20.3826
  37   2.0000      -0.704951       -19.1827
  38   2.0000      -0.673196       -18.3186
  39   2.0000      -0.652501       -17.7555
  40   2.0000      -0.646835       -17.6013
  41   2.0000      -0.635300       -17.2874
  42   2.0000      -0.627117       -17.0647
  43   2.0000      -0.602047       -16.3825
  44   2.0000      -0.574965       -15.6456
  45   2.0000      -0.571260       -15.5448
  46   2.0000      -0.541426       -14.7330
  47   2.0000      -0.523795       -14.2532
  48   2.0000      -0.505114       -13.7449
  49   2.0000      -0.487506       -13.2657
  50   2.0000      -0.485137       -13.2012
  51   2.0000      -0.459537       -12.5046
  52   2.0000      -0.451185       -12.2774
  53   2.0000      -0.430045       -11.7021
  54   2.0000      -0.423486       -11.5236
  55   2.0000      -0.411598       -11.2002
  56   2.0000      -0.410225       -11.1628
  57   2.0000      -0.398071       -10.8321
  58   2.0000      -0.396947       -10.8015
  59   2.0000      -0.394250       -10.7281
  60   2.0000      -0.389796       -10.6069
  61   2.0000      -0.385297       -10.4845
  62   2.0000      -0.377444       -10.2708
  63   2.0000      -0.374832       -10.1997
  64   2.0000      -0.372050       -10.1240
  65   2.0000      -0.360016        -9.7965
  66   2.0000      -0.349941        -9.5224
  67   2.0000      -0.342211        -9.3120
  68   2.0000      -0.340560        -9.2671
  69   2.0000      -0.336100        -9.1458
  70   2.0000      -0.335074        -9.1178
  71   2.0000      -0.334460        -9.1011
  72   2.0000      -0.317229        -8.6322
  73   2.0000      -0.310959        -8.4616
  74   2.0000      -0.310455        -8.4479
  75   2.0000      -0.307080        -8.3561
  76   2.0000      -0.302393        -8.2285
  77   2.0000      -0.291312        -7.9270
  78   2.0000      -0.277544        -7.5524
  79   2.0000      -0.269621        -7.3367
  80   2.0000      -0.261729        -7.1220
  81   2.0000      -0.260097        -7.0776
  82   2.0000      -0.256387        -6.9766
  83   2.0000      -0.229159        -6.2357
  84   2.0000      -0.227246        -6.1837
  85   2.0000      -0.217874        -5.9287
  86   2.0000      -0.211452        -5.7539
  87   2.0000      -0.209803        -5.7090
  88   2.0000      -0.194915        -5.3039
  89   2.0000      -0.176210        -4.7949
  90   2.0000      -0.118396        -3.2217
  91   2.0000      -0.110585        -3.0092
  92   2.0000      -0.097734        -2.6595
  93   0.0000      -0.074245        -2.0203
  94   0.0000      -0.013019        -0.3543
  95   0.0000       0.005054         0.1375
  96   0.0000       0.050519         1.3747
  97   0.0000       0.059509         1.6193

MULLIKEN ATOMIC CHARGES
-----------------------
   0 C :   -0.357420
   1 O :   -0.158342
   2 C :    0.042415
   3 O :   -0.491720
   4 C :   -0.239259
   5 N :   -0.236604
   6 C :    0.254788
   7 C :   -0.189535
   8 C :   -0.626827
   9 C :   -0.626818
  10 N :    0.044474
  11 C :   -0.148991
  12 O :   -0.466297
  13 C :    0.371659
  14 N :   -0.142828
  15 N :   -0.320754
  16 C :    0.414061
  17 C :   -0.643885
  18 O :   -0.032225
  19 N :   -0.044553
  20 C :   -0.138678
  21 O :   -0.419301
  22 C :    0.225544
  23 C :   -0.725640
  24 O :   -0.537587
  25 H :    0.148636
  26 H :    0.148018
  27 H :    0.148698
  28 H :    0.190682
  29 H :    0.176255
  30 H :    0.178694
  31 H :    0.190876
  32 H :    0.176888
  33 H :    0.177646
  34 H :    0.315385
  35 H :    0.203131
  36 H :    0.197180
  37 H :    0.200337
  38 H :    0.284560
  39 H :    0.149616
  40 H :    0.161479
  41 H :    0.146241
Sum of atomic charges:   -2.0000000

LOEWDIN ATOMIC CHARGES
----------------------
   0 C :   -0.077361
   1 O :   -0.682174
   2 C :    0.349507
   3 O :   -0.587270
   4 C :    0.064189
   5 N :   -0.654496
   6 C :    0.284845
   7 C :    0.103509
   8 C :   -0.359855
   9 C :   -0.360320
  10 N :   -0.596943
  11 C :    0.372748
  12 O :   -0.484439
  13 C :    0.421087
  14 N :   -0.365097
  15 N :   -0.367222
  16 C :    0.371693
  17 C :   -0.319461
  18 O :   -0.365910
  19 N :   -0.539433
  20 C :    0.334870
  21 O :   -0.545275
  22 C :    0.120336
  23 C :   -0.417943
  24 O :   -0.837493
  25 H :    0.162643
  26 H :    0.167007
  27 H :    0.162468
  28 H :    0.173494
  29 H :    0.164617
  30 H :    0.168959
  31 H :    0.173318
  32 H :    0.167296
  33 H :    0.169718
  34 H :    0.316692
  35 H :    0.189888
  36 H :    0.189414
  37 H :    0.190564
  38 H :    0.283299
  39 H :    0.152093
  40 H :    0.158788
  41 H :    0.147651

  Mayer bond orders larger than 0.100000
B(  0-C ,  1-O ) :   0.8651 B(  0-C , 25-H ) :   0.9703 B(  0-C , 26-H ) :   0.9726
B(  0-C , 27-H ) :   0.9687 B(  1-O ,  2-C ) :   0.9875 B(  2-C ,  3-O ) :   1.7697
B(  2-C ,  4-C ) :   1.3431 B(  4-C ,  5-N ) :   1.0141 B(  4-C , 20-C ) :   0.1069
B(  4-C , 22-C ) :   0.6850 B(  4-C , 24-O ) :  -0.2523 B(  5-N ,  6-C ) :   1.7596
B(  5-N ,  7-C ) :   0.1151 B(  6-C ,  7-C ) :   0.7721 B(  6-C , 10-N ) :  -0.1289
B(  6-C , 19-N ) :   0.9708 B(  6-C , 24-O ) :   0.1203 B(  7-C ,  8-C ) :   0.9198
B(  7-C ,  9-C ) :   0.8944 B(  7-C , 10-N ) :   0.9530 B(  8-C , 28-H ) :   0.9648
B(  8-C , 29-H ) :   0.9627 B(  8-C , 30-H ) :   0.9758 B(  9-C , 31-H ) :   0.9659
B(  9-C , 32-H ) :   0.9634 B(  9-C , 33-H ) :   0.9777 B( 10-N , 11-C ) :   1.1968
B( 10-N , 34-H ) :   0.8203 B( 11-C , 12-O ) :   1.8968 B( 11-C , 13-C ) :   0.8519
B( 13-C , 14-N ) :   1.6751 B( 13-C , 18-O ) :   1.1210 B( 14-N , 15-N ) :   1.2041
B( 15-N , 16-C ) :   1.6200 B( 16-C , 17-C ) :   0.8295 B( 16-C , 18-O ) :   1.0728
B( 17-C , 35-H ) :   0.9901 B( 17-C , 36-H ) :   0.9481 B( 17-C , 37-H ) :   0.9401
B( 19-N , 20-C ) :   1.0745 B( 19-N , 38-H ) :   0.8700 B( 20-C , 21-O ) :   2.0855
B( 20-C , 22-C ) :   0.8625 B( 20-C , 24-O ) :   0.1297 B( 22-C , 23-C ) :   0.7472
B( 22-C , 24-O ) :   1.7225 B( 23-C , 39-H ) :   0.9735 B( 23-C , 40-H ) :   1.0066
B( 23-C , 41-H ) :   0.9896

Dispersion correction           -0.019200787
FINAL SINGLE POINT ENERGY     -1268.838865992958

DIPOLE MOMENT
-------------
                                X             Y             Z
Electronic contribution:     11.14712       1.30330      -0.22282
Nuclear contribution   :     -1.41714      -1.65576       2.15633
                        -----------------------------------------
Total Dipole Moment    :      9.72999      -0.35246       1.93351
                        -----------------------------------------
Magnitude (a.u.)       :      9.92650
Magnitude (Debye)      :     25.23115

Rotational constants in cm-1:     0.011151     0.004375     0.003303
Rotational constants in MHz :   334.306431   131.166471    99.010888

                             ****ORCA TERMINATED NORMALLY****
TOTAL RUN TIME: 0 days 0 hours 1 minutes 23 seconds 235 msec
