   * xtb version 6.5.1 (579679a) compiled by 'ehlert@majestix' on 2022-07-11
          program call               : /lustre/hpc/kemi/ree/PhD/git/ReactivityQM/dep/xtb-6.5.1/bin/xtb --gfn 1 /lustre/hpc/kemi/ree/PhD/git/ReactivityQM/calculations/R02oxygendeprot/reac01prodE14/conf09/R02oxygendeprot_reac01prodE14_conf09_gfn1.xyz --opt --vfukui --chrg -2 --uhf 0 --alpb DMSO

   ID    Z sym.   atoms
    1    6 C      1, 3, 5, 7-10, 12, 14, 17, 18, 21, 23, 24
    2    8 O      2, 4, 13, 19, 22, 25
    3    7 N      6, 11, 15, 16, 20
    4    1 H      26-42

      * Solvation model:               ALPB
        Solvent                        DMSO
        Solvent mass                       7.8130E+01 g/mol
          :  Hamiltonian                  GFN1-xTB          :
 * total energy  :   -83.5862477 Eh     change       -0.3962256E-08 Eh
 * total energy  :   -83.6023406 Eh     change       -0.1609289E-01 Eh
 * total energy  :   -83.6091674 Eh     change       -0.6826824E-02 Eh
 * total energy  :   -83.6105554 Eh     change       -0.1387971E-02 Eh
 * total energy  :   -83.6113366 Eh     change       -0.7812076E-03 Eh
 * total energy  :   -83.6117268 Eh     change       -0.3902206E-03 Eh
 * total energy  :   -83.6120334 Eh     change       -0.3065515E-03 Eh
 * total energy  :   -83.6122730 Eh     change       -0.2395924E-03 Eh
 * total energy  :   -83.6124916 Eh     change       -0.2186212E-03 Eh
 * total energy  :   -83.6127321 Eh     change       -0.2404952E-03 Eh
 * total energy  :   -83.6148124 Eh     change       -0.2313108E-04 Eh
 * total energy  :   -83.6148294 Eh     change       -0.1693394E-04 Eh
 * total energy  :   -83.6148495 Eh     change       -0.2008716E-04 Eh
 * total energy  :   -83.6148655 Eh     change       -0.1605443E-04 Eh
 * total energy  :   -83.6148754 Eh     change       -0.9896927E-05 Eh
 * total energy  :   -83.6148846 Eh     change       -0.9208523E-05 Eh
 * total energy  :   -83.6148922 Eh     change       -0.7551394E-05 Eh
 * total energy  :   -83.6148981 Eh     change       -0.5900713E-05 Eh
 * total energy  :   -83.6149029 Eh     change       -0.4829519E-05 Eh
   *** GEOMETRY OPTIMIZATION CONVERGED AFTER 35 ITERATIONS ***

 final structure:
================
42
 xtb: 6.5.1 (579679a)
C           -3.59813604424287        2.78869000660156        2.12306468903063
O           -3.55852038319820        1.73312559497946        1.18931310412721
C           -2.28949812285914        1.14510441745818        1.01115918548124
O           -1.33765589088358        1.62114153234254        1.67180045542626
C           -2.23977194991672        0.05463362754116        0.13340459922376
N           -0.95843144596355       -0.42678502418612       -0.05353879893333
C           -0.71607671131932       -1.48906449378668       -0.72838170545569
C            0.71380749473443       -1.94493639524289       -0.96329598701479
C            1.00373362762417       -3.26704361847030       -0.23310670473318
C            0.99698055102650       -2.09000060117367       -2.46648610168468
N            1.55091239003200       -0.88658965050941       -0.39957717262013
C            2.88564073383088       -0.85738452799451       -0.41950480735134
O            3.61988946878505       -1.70461572945158       -0.92050786907946
C            3.40832183151819        0.36863456865959        0.24358678215318
N            2.69895959927384        1.32522164756210        0.76459280778601
N            3.57845988837993        2.25122689232761        1.24779014316130
C            4.76547645062764        1.80229901059347        0.99035687702128
C            6.06020969145521        2.44149395493842        1.31508425445066
O            4.73161560092418        0.61847282564398        0.35679565422113
N           -1.74081746262679       -2.30579653363419       -1.24095110983137
C           -3.05604851784307       -2.00309326987054       -1.00013881278962
O           -3.89958991591407       -2.90417572402584       -1.09092740291037
C           -3.36621291810017       -0.47643972196316       -0.81120862281557
C           -4.76663566139956       -0.41475964276216       -0.10885610614856
O           -3.36564642491361        0.08738276783923       -2.02975927150639
H           -3.28483072906387        2.45559394431311        3.12156258333367
H           -4.62897547261830        3.14420096654235        2.17558569291115
H           -2.94844995158908        3.62138279831037        1.82132904210424
H            2.04293618316890       -3.55921838530418       -0.37487101797491
H            0.36558991950258       -4.05482339006614       -0.62862050080337
H            0.80843790310863       -3.15548076842653        0.83294904256778
H            2.01157995418034       -2.44725956925187       -2.63216270245595
H            0.30067960323426       -2.80562969630424       -2.90028733288209
H            0.87407360376826       -1.12871946186509       -2.96548546532438
H            1.03057417249297       -0.14598765770612        0.08329961924440
H            5.88655845876158        3.34260059270842        1.89767185953416
H            6.68480763456202        1.75377019788411        1.88370271683762
H            6.59185786139792        2.70000921755625        0.39942995535116
H           -1.52941519771823       -3.27195058613067       -1.42460512424980
H           -5.44930727000732       -1.09502274853504       -0.62118625612785
H           -5.17195940110848        0.59220200877343       -0.19103916580912
H           -4.70512215108359       -0.69997737592341        0.94201797453515

          :  Hamiltonian                  GFN1-xTB          :
         :: total energy             -83.614902897821 Eh    ::
         :: gradient norm              0.000531904663 Eh/a0 ::
         :: HOMO-LUMO gap              0.195375684829 eV    ::
         :: SCC energy               -84.349601483522 Eh    ::
         :: -> Gsolv                  -0.302676309925 Eh    ::
         :: repulsion energy           0.760585306848 Eh    ::

    * Orbital Energies and Occupations

         #    Occupation            Energy/Eh            Energy/eV
      -------------------------------------------------------------
         1        2.0000           -0.8480221             -23.0759
       ...           ...                  ...                  ...
        56        2.0000           -0.4427122             -12.0468
        57        2.0000           -0.4365965             -11.8804
        58        2.0000           -0.4316341             -11.7454
        59        2.0000           -0.4250936             -11.5674
        60        2.0000           -0.4202236             -11.4349
        61        2.0000           -0.4145301             -11.2799
        62        2.0000           -0.4001266             -10.8880
        63        2.0000           -0.3919511             -10.6655
        64        2.0000           -0.3832714             -10.4293
        65        2.0000           -0.3728195             -10.1449
        66        2.0000           -0.3067845              -8.3480
        67        1.9942           -0.2989561              -8.1350
        68        1.9581           -0.2970598              -8.0834 (HOMO)
        69        0.0477           -0.2898799              -7.8880 (LUMO)
        70                         -0.2435921              -6.6285
        71                         -0.2129238              -5.7940
        72                         -0.1775564              -4.8316
        73                         -0.1717633              -4.6739
        74                         -0.1379262              -3.7532
        75                         -0.1140807              -3.1043
        76                         -0.1104078              -3.0043
        77                         -0.1048462              -2.8530
        78                         -0.1014905              -2.7617
        79                         -0.0758628              -2.0643
       ...                                ...                  ...
       134                          0.7267891              19.7769
      -------------------------------------------------------------
                  HL-Gap            0.0071799 Eh            0.1954 eV

Wiberg/Mayer (AO) data.
largest (>0.10) Wiberg bond orders for each atom

     #   Z sym  total        # sym  WBO       # sym  WBO       # sym  WBO
 ---------------------------------------------------------------------------
     1   6 C    3.923 --    27 H    0.987    28 H    0.980    26 H    0.980
                             2 O    0.954
     2   8 O    2.079 --     1 C    0.954     3 C    0.927
     3   6 C    3.851 --     4 O    1.437     5 C    1.347     2 O    0.927
     4   8 O    1.741 --     3 C    1.437     5 C    0.111
     5   6 C    3.835 --     3 C    1.347     6 N    1.171    23 C    0.917
                             4 O    0.111
     6   7 N    3.085 --     7 C    1.620     5 C    1.171
     7   6 C    3.903 --     6 N    1.620    20 N    1.013     8 C    0.974
     8   6 C    3.929 --    10 C    0.985     9 C    0.982     7 C    0.974
                            11 N    0.923
     9   6 C    3.990 --    31 H    0.986    30 H    0.984    29 H    0.983
                             8 C    0.982
    10   6 C    3.991 --    34 H    0.986    33 H    0.986     8 C    0.985
                            32 H    0.983
    11   7 N    3.379 --    12 C    1.300     8 C    0.923    35 H    0.869
                            13 O    0.184
    12   6 C    3.911 --    13 O    1.543    11 N    1.300    14 C    0.989
    13   8 O    1.858 --    12 C    1.543    11 N    0.184
    14   6 C    3.846 --    15 N    1.604    19 O    1.050    12 C    0.989
    15   7 N    2.986 --    14 C    1.604    16 N    1.189
    16   7 N    2.981 --    17 C    1.619    15 N    1.189
    17   6 C    3.870 --    16 N    1.619    19 O    1.077    18 C    1.029
    18   6 C    3.989 --    17 C    1.029    36 H    0.983    37 H    0.968
                            38 H    0.964
    19   8 O    2.307 --    17 C    1.077    14 C    1.050
    20   7 N    3.349 --    21 C    1.169     7 C    1.013    39 H    0.913
                            22 O    0.115
    21   6 C    3.814 --    22 O    1.560    20 N    1.169    23 C    0.879
    22   8 O    1.830 --    21 C    1.560    20 N    0.115
    23   6 C    3.964 --    25 O    1.124    24 C    0.947     5 C    0.917
                            21 C    0.879
    24   6 C    3.988 --    42 H    0.990    41 H    0.987    40 H    0.986
                            23 C    0.947
    25   8 O    1.418 --    23 C    1.124
    26   1 H    1.023 --     1 C    0.980
    27   1 H    1.020 --     1 C    0.987
    28   1 H    1.023 --     1 C    0.980
    29   1 H    1.011 --     9 C    0.983
    30   1 H    1.005 --     9 C    0.984
    31   1 H    1.008 --     9 C    0.986
    32   1 H    1.013 --    10 C    0.983
    33   1 H    1.007 --    10 C    0.986
    34   1 H    1.007 --    10 C    0.986
    35   1 H    0.992 --    11 N    0.869
    36   1 H    1.000 --    18 C    0.983
    37   1 H    0.998 --    18 C    0.968
    38   1 H    0.998 --    18 C    0.964
    39   1 H    0.968 --    20 N    0.913
    40   1 H    1.027 --    24 C    0.986
    41   1 H    1.034 --    24 C    0.987
    42   1 H    1.018 --    24 C    0.990
 ---------------------------------------------------------------------------

           -------------------------------------------------
          | TOTAL ENERGY              -83.614902897821 Eh   |
          | GRADIENT NORM               0.000531904663 Eh/α |
          | HOMO-LUMO GAP               0.195375684829 eV   |
           -------------------------------------------------

 * finished run on 2023/06/21 at 17:16:11.970
