   * xtb version 6.5.1 (579679a) compiled by 'ehlert@majestix' on 2022-07-11
          program call               : /lustre/hpc/kemi/ree/PhD/git/ReactivityQM/dep/xtb-6.5.1/bin/xtb --gfn 1 /lustre/hpc/kemi/ree/PhD/git/ReactivityQM/calculations/R02deprot/reac01prodE05/conf15/R02deprot_reac01prodE05_conf15_gfn1.xyz --opt --vfukui --chrg -2 --uhf 0 --alpb DMSO

   ID    Z sym.   atoms
    1    6 C      1, 3, 5, 6, 8, 11-14, 16, 18, 21, 22, 25
    2    8 O      2, 4, 7, 9, 17, 23
    3    7 N      10, 15, 19, 20, 24
    4    1 H      26-42

      * Solvation model:               ALPB
        Solvent                        DMSO
        Solvent mass                       7.8130E+01 g/mol
          :  Hamiltonian                  GFN1-xTB          :
 * total energy  :   -83.5610462 Eh     change       -0.2287948E-09 Eh
 * total energy  :   -83.5743672 Eh     change       -0.1332096E-01 Eh
 * total energy  :   -83.5794727 Eh     change       -0.5105491E-02 Eh
 * total energy  :   -83.5804031 Eh     change       -0.9304462E-03 Eh
 * total energy  :   -83.5809875 Eh     change       -0.5843541E-03 Eh
 * total energy  :   -83.5811900 Eh     change       -0.2025844E-03 Eh
 * total energy  :   -83.5813504 Eh     change       -0.1603321E-03 Eh
 * total energy  :   -83.5814581 Eh     change       -0.1077366E-03 Eh
 * total energy  :   -83.5815509 Eh     change       -0.9277586E-04 Eh
 * total energy  :   -83.5816243 Eh     change       -0.7339769E-04 Eh
 * total energy  :   -83.5828827 Eh     change       -0.1275964E-04 Eh
 * total energy  :   -83.5829031 Eh     change       -0.2047479E-04 Eh
 * total energy  :   -83.5829140 Eh     change       -0.1089710E-04 Eh
 * total energy  :   -83.5829311 Eh     change       -0.1702530E-04 Eh
 * total energy  :   -83.5829446 Eh     change       -0.1356433E-04 Eh
 * total energy  :   -83.5829546 Eh     change       -0.9917287E-05 Eh
 * total energy  :   -83.5829601 Eh     change       -0.5571644E-05 Eh
 * total energy  :   -83.5829690 Eh     change       -0.8918640E-05 Eh
 * total energy  :   -83.5829725 Eh     change       -0.3416923E-05 Eh
   *** GEOMETRY OPTIMIZATION CONVERGED AFTER 46 ITERATIONS ***

 final structure:
================
42
 xtb: 6.5.1 (579679a)
C           -5.18011325957392       -2.15050931298632       -0.75747632410598
O           -4.01893130327432       -1.36313749650842       -0.59319676409740
C           -4.07820368848690       -0.09346027727934       -1.21585880252400
O           -5.12419433571125        0.21357383656980       -1.82622610410687
C           -2.91362243106379        0.68085602793766       -1.07076475383137
C           -2.80484411815210        2.04437850046268       -1.45428418352954
O           -3.74238603207019        2.62640252517293       -2.28891641418283
C           -1.78994041709568        2.88758284609272       -0.97964713548062
O           -1.69618678236148        4.10579274045472       -1.32782898020452
N           -0.89287124197281        2.33688187183611       -0.04368487455231
C           -0.87112912186884        1.06840132787495        0.18338599493798
C            0.16802050583129        0.58070215104109        1.20597004084332
C           -0.47227017069415       -0.40078654997395        2.19899188801986
C            0.70751450065895        1.79910092709802        1.97721697847116
N            1.26392396572761       -0.05474037810607        0.46058793589151
C            2.40262544991979       -0.52817264261462        1.14570580615091
O            2.37437195920140       -0.89620837327854        2.34125137201472
C            3.53422219499938       -0.58719333897937        0.28392617238641
N            3.57881135661045       -0.17348769613024       -0.99130436704680
N            4.86065996563315       -0.38280911737162       -1.42108924039600
C            5.52208740330911       -0.89288465390140       -0.43473542201979
C            6.95377741319642       -1.28551206536324       -0.42881406861937
O            4.77248757458284       -1.05937066295255        0.68315950250063
N           -1.75809111588688        0.16938848402351       -0.36784726536112
C           -1.32456503595549       -1.18387808286417       -0.72690388689836
H           -5.01311574114768       -3.09130941842097       -0.23032467517876
H           -6.06396041494106       -1.65430988095549       -0.33611812538050
H           -5.37502531884319       -2.36150749766454       -1.81686339041307
H           -3.45550193655204        3.55306986281309       -2.38867609488197
H           -1.47223332471316       -0.05517635184807        2.46273286719607
H            0.12291601580789       -0.46444390888311        3.10853182817559
H           -0.54416666354729       -1.40032595440081        1.77566380640013
H            1.18032612880666        2.50293001336303        1.29231420150487
H            1.43865937063978        1.47757193263398        2.71769263700221
H           -0.11184560760985        2.30655010223045        2.48559277795114
H            1.52074282333698        0.47202637363012       -0.37061774047210
H            7.50748923905221       -0.70144778355098        0.30703290156436
H            7.05903629851775       -2.33920905937172       -0.17021009205996
H            7.38013802355545       -1.11348712958320       -1.41420326975582
H           -0.23737000649244       -1.25661364034577       -0.69049430790771
H           -1.65588204958863       -1.40566937142602       -1.74387249610459
H           -1.75135807179809       -1.92956087847235       -0.05324693188138

          :  Hamiltonian                  GFN1-xTB          :
         :: total energy             -83.582972457446 Eh    ::
         :: gradient norm              0.000612645880 Eh/a0 ::
         :: HOMO-LUMO gap              0.027608832246 eV    ::
         :: SCC energy               -84.305644629852 Eh    ::
         :: -> Gsolv                  -0.260593474120 Eh    ::
         :: repulsion energy           0.749309193179 Eh    ::

    * Orbital Energies and Occupations

         #    Occupation            Energy/Eh            Energy/eV
      -------------------------------------------------------------
         1        2.0000           -0.7977321             -21.7074
       ...           ...                  ...                  ...
        56        2.0000           -0.4359024             -11.8615
        57        2.0000           -0.4348372             -11.8325
        58        2.0000           -0.4268511             -11.6152
        59        2.0000           -0.4062001             -11.0533
        60        2.0000           -0.4015234             -10.9260
        61        2.0000           -0.4004763             -10.8975
        62        2.0000           -0.3984264             -10.8417
        63        2.0000           -0.3947266             -10.7411
        64        2.0000           -0.3909354             -10.6379
        65        2.0000           -0.3843146             -10.4577
        66        2.0000           -0.3556785              -9.6785
        67        2.0000           -0.3504025              -9.5349
        68        1.2608           -0.2666589              -7.2562 (HOMO)
        69        0.7392           -0.2656443              -7.2285 (LUMO)
        70                         -0.2224198              -6.0524
        71                         -0.2077247              -5.6525
        72                         -0.1547428              -4.2108
        73                         -0.1379193              -3.7530
        74                         -0.1235854              -3.3629
        75                         -0.1098806              -2.9900
        76                         -0.1047283              -2.8498
        77                         -0.0957794              -2.6063
        78                         -0.0899945              -2.4489
        79                         -0.0807260              -2.1967
       ...                                ...                  ...
       134                          0.7069063              19.2359
      -------------------------------------------------------------
                  HL-Gap            0.0010146 Eh            0.0276 eV

Wiberg/Mayer (AO) data.
largest (>0.10) Wiberg bond orders for each atom

     #   Z sym  total        # sym  WBO       # sym  WBO       # sym  WBO
 ---------------------------------------------------------------------------
     1   6 C    3.917 --    26 H    0.987    28 H    0.980    27 H    0.980
                             2 O    0.948
     2   8 O    2.052 --     1 C    0.948     3 C    0.918
     3   6 C    3.751 --     4 O    1.439     5 C    1.298     2 O    0.918
     4   8 O    1.682 --     3 C    1.439
     5   6 C    3.735 --     3 C    1.298     6 C    1.235    24 N    0.959
     6   6 C    3.734 --     8 C    1.290     5 C    1.235     7 O    1.003
     7   8 O    1.957 --     6 C    1.003    29 H    0.844
     8   6 C    3.818 --     9 O    1.369     6 C    1.290    10 N    1.048
     9   8 O    1.623 --     8 C    1.369
    10   7 N    2.987 --    11 C    1.619     8 C    1.048    24 N    0.121
    11   6 C    3.917 --    10 N    1.619    24 N    1.160    12 C    0.964
    12   6 C    3.949 --    13 C    0.994    14 C    0.991    11 C    0.964
                            15 N    0.938
    13   6 C    3.994 --    12 C    0.994    30 H    0.988    32 H    0.982
                            31 H    0.981
    14   6 C    3.993 --    12 C    0.991    35 H    0.987    34 H    0.984
                            33 H    0.984
    15   7 N    3.141 --    16 C    1.057    12 C    0.938    36 H    0.921
                            17 O    0.101
    16   6 C    3.739 --    17 O    1.441    18 C    1.171    15 N    1.057
    17   8 O    1.677 --    16 C    1.441    15 N    0.101
    18   6 C    3.687 --    19 N    1.375    16 C    1.171    23 O    0.971
    19   7 N    2.727 --    18 C    1.375    20 N    1.185
    20   7 N    2.980 --    21 C    1.629    19 N    1.185
    21   6 C    3.817 --    20 N    1.629    23 O    1.047    22 C    1.023
    22   6 C    3.994 --    21 C    1.023    39 H    0.986    38 H    0.972
                            37 H    0.971
    23   8 O    2.175 --    21 C    1.047    18 C    0.971
    24   7 N    3.283 --    11 C    1.160     5 C    0.959    25 C    0.943
                            10 N    0.121
    25   6 C    3.954 --    41 H    0.983    42 H    0.981    40 H    0.978
                            24 N    0.943
    26   1 H    1.019 --     1 C    0.987
    27   1 H    1.021 --     1 C    0.980
    28   1 H    1.020 --     1 C    0.980
    29   1 H    0.899 --     7 O    0.844
    30   1 H    1.009 --    13 C    0.988
    31   1 H    1.025 --    13 C    0.981
    32   1 H    1.011 --    13 C    0.982
    33   1 H    1.023 --    14 C    0.984
    34   1 H    1.013 --    14 C    0.984
    35   1 H    1.014 --    14 C    0.987
    36   1 H    0.984 --    15 N    0.921
    37   1 H    1.001 --    22 C    0.971
    38   1 H    1.001 --    22 C    0.972
    39   1 H    1.005 --    22 C    0.986
    40   1 H    1.022 --    25 C    0.978
    41   1 H    1.015 --    25 C    0.983
    42   1 H    1.028 --    25 C    0.981
 ---------------------------------------------------------------------------

           -------------------------------------------------
          | TOTAL ENERGY              -83.582972457446 Eh   |
          | GRADIENT NORM               0.000612645880 Eh/α |
          | HOMO-LUMO GAP               0.027608832246 eV   |
           -------------------------------------------------

 * finished run on 2023/06/20 at 17:41:19.070
