   * xtb version 6.5.1 (579679a) compiled by 'ehlert@majestix' on 2022-07-11
          program call               : /lustre/hpc/kemi/ree/PhD/git/ReactivityQM/dep/xtb-6.5.1/bin/xtb --gfn 1 /lustre/hpc/kemi/ree/PhD/git/ReactivityQM/calculations/R01/reac01prodN06/conf12/R01_reac01prodN06_conf12_gfn1.xyz --opt --vfukui --chrg 1 --uhf 0 --alpb DMSO

   ID    Z sym.   atoms
    1    6 C      1, 3, 5, 6, 9, 10
    2    8 O      2, 4, 11
    3    7 N      7, 8
    4    1 H      12-20

      * Solvation model:               ALPB
        Solvent                        DMSO
        Solvent mass                       7.8130E+01 g/mol
          :  Hamiltonian                  GFN1-xTB          :
 * total energy  :   -37.5793401 Eh     change       -0.6032508E-11 Eh
 * total energy  :   -37.5908925 Eh     change       -0.1155243E-01 Eh
 * total energy  :   -37.5958317 Eh     change       -0.4939142E-02 Eh
 * total energy  :   -37.5966552 Eh     change       -0.8234837E-03 Eh
 * total energy  :   -37.5972406 Eh     change       -0.5854146E-03 Eh
 * total energy  :   -37.5974358 Eh     change       -0.1952559E-03 Eh
 * total energy  :   -37.5976166 Eh     change       -0.1807467E-03 Eh
 * total energy  :   -37.5977296 Eh     change       -0.1130574E-03 Eh
 * total energy  :   -37.5978168 Eh     change       -0.8712711E-04 Eh
 * total energy  :   -37.5979327 Eh     change       -0.1158825E-03 Eh
 * total energy  :   -37.5983101 Eh     change       -0.1477012E-03 Eh
 * total energy  :   -37.5983384 Eh     change       -0.2825484E-04 Eh
 * total energy  :   -37.5983741 Eh     change       -0.3571715E-04 Eh
 * total energy  :   -37.5983948 Eh     change       -0.2070392E-04 Eh
 * total energy  :   -37.5984070 Eh     change       -0.1223310E-04 Eh
 * total energy  :   -37.5984183 Eh     change       -0.1129711E-04 Eh
 * total energy  :   -37.5984238 Eh     change       -0.5505074E-05 Eh
 * total energy  :   -37.5984286 Eh     change       -0.4772422E-05 Eh
 * total energy  :   -37.5984316 Eh     change       -0.3046911E-05 Eh
   *** GEOMETRY OPTIMIZATION CONVERGED AFTER 22 ITERATIONS ***

 final structure:
================
20
 xtb: 6.5.1 (579679a)
C            3.29934817296953        0.65445082376499        0.22911724849166
O            2.14752602814246       -0.00659952717156       -0.35504832072826
C            0.97467306299816        0.37327963468150        0.00566261142817
O            0.62073845741309        1.21000613481386        0.76842368876974
C           -0.14645187454990       -0.48623793800253       -0.79964891617490
C            0.37448587626703       -1.81155861471159       -1.31436718784305
N           -0.56216901610191        0.48023257490106       -1.74431679744126
N           -1.65638598812227        0.98603341662714       -1.37452456826264
C           -2.06137609340459        0.32637837098487       -0.23514535423410
C           -3.26547541064843        0.62945872415414        0.52517814061023
O           -1.23125552598016       -0.59512863240452        0.08347336683295
H            3.43815979211532        1.61456847293242       -0.26762014944146
H            4.14236635302454       -0.00622740027098        0.04413464241566
H            3.13375312093028        0.79678101956706        1.29661641276187
H           -0.44356388472796       -2.34809581630275       -1.79134382385373
H            0.76317492061420       -2.39742309640342       -0.48461374626269
H            1.16633814227258       -1.62423177538066       -2.03559242227705
H           -3.45747163303351       -0.13676226442306        1.27279409737184
H           -4.11256834590221        0.74581458160003       -0.15277710744814
H           -3.12384815427613        1.59526231104360        1.02055918528488

          :  Hamiltonian                  GFN1-xTB          :
         :: total energy             -37.598431626956 Eh    ::
         :: gradient norm              0.000579824931 Eh/a0 ::
         :: HOMO-LUMO gap              2.275784470678 eV    ::
         :: SCC energy               -37.940529484367 Eh    ::
         :: -> Gsolv                  -0.078526830764 Eh    ::
         :: repulsion energy           0.350921539419 Eh    ::

    * Orbital Energies and Occupations

         #    Occupation            Energy/Eh            Energy/eV
      -------------------------------------------------------------
         1        2.0000           -0.9413819             -25.6163
       ...           ...                  ...                  ...
        18        2.0000           -0.6149565             -16.7338
        19        2.0000           -0.6096422             -16.5892
        20        2.0000           -0.6008203             -16.3492
        21        2.0000           -0.5978796             -16.2691
        22        2.0000           -0.5865916             -15.9620
        23        2.0000           -0.5813794             -15.8201
        24        2.0000           -0.5727112             -15.5843
        25        2.0000           -0.5681846             -15.4611
        26        2.0000           -0.5638571             -15.3433
        27        2.0000           -0.5512171             -14.9994
        28        2.0000           -0.5421671             -14.7531
        29        2.0000           -0.5329394             -14.5020
        30        2.0000           -0.5154140             -14.0251 (HOMO)
        31                         -0.4317805             -11.7493 (LUMO)
        32                         -0.3416951              -9.2980
        33                         -0.3147013              -8.5635
        34                         -0.1792199              -4.8768
        35                         -0.1666277              -4.5342
        36                         -0.1598182              -4.3489
        37                         -0.1126596              -3.0656
        38                         -0.1111580              -3.0248
        39                         -0.1079616              -2.9378
        40                         -0.0993515              -2.7035
        41                         -0.0988105              -2.6888
       ...                                ...                  ...
        62                          0.7592606              20.6605
      -------------------------------------------------------------
                  HL-Gap            0.0836335 Eh            2.2758 eV

Wiberg/Mayer (AO) data.
largest (>0.10) Wiberg bond orders for each atom

     #   Z sym  total        # sym  WBO       # sym  WBO       # sym  WBO
 ---------------------------------------------------------------------------
     1   6 C    3.804 --    13 H    0.980    14 H    0.979    12 H    0.975
                             2 O    0.828
     2   8 O    2.273 --     3 C    1.236     1 C    0.828     4 O    0.153
     3   6 C    3.862 --     4 O    1.753     2 O    1.236     5 C    0.713
     4   8 O    2.084 --     3 C    1.753     2 O    0.153
     5   6 C    3.835 --     7 N    1.079     6 C    0.953    11 O    0.910
                             3 C    0.713
     6   6 C    3.951 --    16 H    0.977    17 H    0.975    15 H    0.972
                             5 C    0.953
     7   7 N    3.009 --     8 N    1.670     5 C    1.079
     8   7 N    3.021 --     7 N    1.670     9 C    1.183
     9   6 C    3.797 --    11 O    1.297     8 N    1.183    10 C    1.084
    10   6 C    3.964 --     9 C    1.084    18 H    0.969    19 H    0.934
                            20 H    0.905
    11   8 O    2.390 --     9 C    1.297     5 C    0.910
    12   1 H    0.997 --     1 C    0.975
    13   1 H    1.000 --     1 C    0.980
    14   1 H    0.996 --     1 C    0.979
    15   1 H    0.990 --     6 C    0.972
    16   1 H    0.991 --     6 C    0.977
    17   1 H    0.995 --     6 C    0.975
    18   1 H    0.984 --    10 C    0.969
    19   1 H    0.981 --    10 C    0.934
    20   1 H    0.978 --    10 C    0.905
 ---------------------------------------------------------------------------

           -------------------------------------------------
          | TOTAL ENERGY              -37.598431626956 Eh   |
          | GRADIENT NORM               0.000579824931 Eh/α |
          | HOMO-LUMO GAP               2.275784470678 eV   |
           -------------------------------------------------

 * finished run on 2023/06/20 at 14:56:07.667
