   * xtb version 6.5.1 (579679a) compiled by 'ehlert@majestix' on 2022-07-11
          program call               : /lustre/hpc/kemi/ree/PhD/git/ReactivityQM/dep/xtb-6.5.1/bin/xtb --gfn 1 /lustre/hpc/kemi/ree/PhD/git/ReactivityQM/calculations/R02deprot/reac01prodN08/conf11/R02deprot_reac01prodN08_conf11_gfn1.xyz --opt --vfukui --chrg 0 --uhf 0 --alpb DMSO

   ID    Z sym.   atoms
    1    6 C      1, 3, 5, 7-10, 12, 14, 17-19, 22, 24
    2    8 O      2, 4, 13, 20, 23, 25
    3    7 N      6, 11, 15, 16, 21
    4    1 H      26-42

      * Solvation model:               ALPB
        Solvent                        DMSO
        Solvent mass                       7.8130E+01 g/mol
          :  Hamiltonian                  GFN1-xTB          :
 * total energy  :   -82.9488766 Eh     change       -0.5684342E-13 Eh
 * total energy  :   -82.9653342 Eh     change       -0.1645757E-01 Eh
 * total energy  :   -82.9709912 Eh     change       -0.5657077E-02 Eh
 * total energy  :   -82.9720574 Eh     change       -0.1066150E-02 Eh
 * total energy  :   -82.9730145 Eh     change       -0.9571225E-03 Eh
 * total energy  :   -82.9734152 Eh     change       -0.4006817E-03 Eh
 * total energy  :   -82.9737903 Eh     change       -0.3750798E-03 Eh
 * total energy  :   -82.9741376 Eh     change       -0.3473080E-03 Eh
 * total energy  :   -82.9744580 Eh     change       -0.3204125E-03 Eh
 * total energy  :   -82.9747379 Eh     change       -0.2798619E-03 Eh
 * total energy  :   -82.9768582 Eh     change       -0.1261625E-04 Eh
 * total energy  :   -82.9768699 Eh     change       -0.1170059E-04 Eh
 * total energy  :   -82.9768844 Eh     change       -0.1452806E-04 Eh
 * total energy  :   -82.9768954 Eh     change       -0.1092070E-04 Eh
 * total energy  :   -82.9769024 Eh     change       -0.7011595E-05 Eh
 * total energy  :   -82.9769082 Eh     change       -0.5846864E-05 Eh
 * total energy  :   -82.9769152 Eh     change       -0.7015777E-05 Eh
 * total energy  :   -82.9769219 Eh     change       -0.6627786E-05 Eh
 * total energy  :   -82.9769267 Eh     change       -0.4891958E-05 Eh
   *** GEOMETRY OPTIMIZATION CONVERGED AFTER 60 ITERATIONS ***

 final structure:
================
42
 xtb: 6.5.1 (579679a)
C            6.70497905436873       -0.58238319367287       -0.70460229828629
O            5.31792610735987       -0.43018285725113       -0.41488190494082
C            4.96275892957685       -0.56387123206034        0.87782606676594
O            5.78151518958392       -0.79106554760218        1.74529780714661
C            3.50545249131125       -0.41186777079804        1.08072670499744
N            2.75486132460960       -0.11438854391965       -0.02942334440020
C            1.45930235724081       -0.00119745791652        0.13326421731453
C            0.66121772926684        0.33251486651461       -1.12215413817565
C            0.99510517217143        1.75921076770388       -1.57668579563671
C            0.97206094666495       -0.68636695386221       -2.22359355289115
N           -0.75259704699379        0.25158023715291       -0.74391884211378
C           -1.77333030639589        0.43614185021422       -1.56599122022579
O           -1.73952562317910        0.70278585823818       -2.75525021930057
C           -3.10546915335966        0.27356861095931       -0.87212332303113
N           -4.28384763234005        0.38273536807743       -1.40802440106727
N           -5.14792847999437        0.14802010213868       -0.40048401902640
C           -6.57057379872491        0.17481429995249       -0.66599899554575
C           -4.48847762715117       -0.10038655274812        0.71063221506962
C           -4.99257496800861       -0.41789137401174        2.05612270543363
O           -3.20006186072861       -0.02443499486640        0.43930401497922
N            0.76070311676714       -0.13581337667975        1.26107031567725
C            1.43072674416825       -0.42175491328047        2.40548612366966
O            0.89110465992098       -0.56786855303232        3.51696832513257
C            2.88618405659061       -0.56520931830617        2.29392218463750
O            3.52073938693117       -0.85798101628009        3.44803527914573
H            7.05599939964789       -1.56644423741150       -0.38159756884323
H            7.28891987050026        0.18946785885992       -0.19575522660940
H            6.81523385231158       -0.48275028734734       -1.78301356195632
H            0.46415849446173        2.00386337814291       -2.49516316653405
H            0.71315593477772        2.47197954522531       -0.80289707933947
H            2.06832974807931        1.82950459800046       -1.75102036489167
H            2.05094168988356       -0.71729595566433       -2.37424679988494
H            0.62799732324499       -1.67514473922406       -1.92254700058489
H            0.48637866747563       -0.40881020020569       -3.15741531264653
H           -0.89864501773049        0.05312165060187        0.24785926566792
H           -7.08806391866039        0.56503874105103        0.20612842993214
H           -6.90955246966785       -0.83817231401324       -0.87980264414301
H           -6.73717579548835        0.81445497874976       -1.52938784197367
H           -4.65055169586897        0.34189149819755        2.76156636052844
H           -6.07774142456526       -0.46175084996130        2.06006027181530
H           -4.58360988558006       -1.37762474145563        2.37714352693183
H            2.82397345751961       -0.90656922821369        4.13456380720062

          :  Hamiltonian                  GFN1-xTB          :
         :: total energy             -82.976926748686 Eh    ::
         :: gradient norm              0.000515481299 Eh/a0 ::
         :: HOMO-LUMO gap              0.833821217206 eV    ::
         :: SCC energy               -83.758576452941 Eh    ::
         :: -> Gsolv                  -0.096667168722 Eh    ::
         :: repulsion energy           0.806408344904 Eh    ::

    * Orbital Energies and Occupations

         #    Occupation            Energy/Eh            Energy/eV
      -------------------------------------------------------------
         1        2.0000           -0.9311853             -25.3388
       ...           ...                  ...                  ...
        55        2.0000           -0.4985753             -13.5669
        56        2.0000           -0.4953237             -13.4784
        57        2.0000           -0.4880314             -13.2800
        58        2.0000           -0.4827075             -13.1351
        59        2.0000           -0.4793214             -13.0430
        60        2.0000           -0.4704193             -12.8008
        61        2.0000           -0.4546210             -12.3709
        62        2.0000           -0.4526788             -12.3180
        63        2.0000           -0.4465889             -12.1523
        64        2.0000           -0.4270304             -11.6201
        65        2.0000           -0.4101244             -11.1601
        66        2.0000           -0.3829229             -10.4199
        67        2.0000           -0.3782623             -10.2930 (HOMO)
        68        0.0000           -0.3476200              -9.4592 (LUMO)
        69                         -0.3377543              -9.1908
        70                         -0.2816791              -7.6649
        71                         -0.2360183              -6.4224
        72                         -0.2266058              -6.1663
        73                         -0.1957457              -5.3265
        74                         -0.1823725              -4.9626
        75                         -0.1708009              -4.6477
        76                         -0.1294779              -3.5233
        77                         -0.1196642              -3.2562
        78                         -0.1173966              -3.1945
       ...                                ...                  ...
       134                          0.7494773              20.3943
      -------------------------------------------------------------
                  HL-Gap            0.0306424 Eh            0.8338 eV

Wiberg/Mayer (AO) data.
largest (>0.10) Wiberg bond orders for each atom

     #   Z sym  total        # sym  WBO       # sym  WBO       # sym  WBO
 ---------------------------------------------------------------------------
     1   6 C    3.887 --    28 H    0.987    27 H    0.980    26 H    0.980
                             2 O    0.913
     2   8 O    2.178 --     3 C    1.079     1 C    0.913     4 O    0.124
     3   6 C    3.839 --     4 O    1.638     2 O    1.079     5 C    1.028
     4   8 O    1.903 --     3 C    1.638     2 O    0.124
     5   6 C    3.963 --    24 C    1.481     6 N    1.194     3 C    1.028
     6   7 N    2.997 --     7 C    1.480     5 C    1.194
     7   6 C    3.960 --     6 N    1.480    21 N    1.354     8 C    0.968
     8   6 C    3.915 --    10 C    0.986     9 C    0.981     7 C    0.968
                            11 N    0.909
     9   6 C    3.991 --    30 H    0.986    31 H    0.984    29 H    0.984
                             8 C    0.981
    10   6 C    3.991 --    33 H    0.986     8 C    0.986    34 H    0.984
                            32 H    0.982
    11   7 N    3.425 --    12 C    1.345     8 C    0.909    35 H    0.855
                            13 O    0.209
    12   6 C    3.932 --    13 O    1.567    11 N    1.345    14 C    0.947
    13   8 O    1.902 --    12 C    1.567    11 N    0.209
    14   6 C    3.830 --    15 N    1.615    20 O    1.054    12 C    0.947
    15   7 N    2.976 --    14 C    1.615    16 N    1.144
    16   7 N    3.631 --    18 C    1.431    15 N    1.144    17 C    0.912
    17   6 C    3.889 --    36 H    0.976    38 H    0.976    37 H    0.965
                            16 N    0.912
    18   6 C    3.844 --    16 N    1.431    20 O    1.145    19 C    1.041
    19   6 C    3.963 --    18 C    1.041    40 H    0.977    41 H    0.944
                            39 H    0.943
    20   8 O    2.374 --    18 C    1.145    14 C    1.054
    21   7 N    3.023 --     7 C    1.354    22 C    1.240    23 O    0.126
    22   6 C    3.928 --    23 O    1.482    21 N    1.240    24 C    1.069
    23   8 O    1.817 --    22 C    1.482    21 N    0.126
    24   6 C    3.907 --     5 C    1.481    25 O    1.079    22 C    1.069
    25   8 O    2.056 --    24 C    1.079    42 H    0.815
    26   1 H    1.011 --     1 C    0.980
    27   1 H    1.010 --     1 C    0.980
    28   1 H    1.014 --     1 C    0.987
    29   1 H    1.008 --     9 C    0.984
    30   1 H    1.004 --     9 C    0.986
    31   1 H    1.010 --     9 C    0.984
    32   1 H    1.016 --    10 C    0.982
    33   1 H    1.004 --    10 C    0.986
    34   1 H    1.009 --    10 C    0.984
    35   1 H    0.965 --    11 N    0.855
    36   1 H    0.991 --    17 C    0.976
    37   1 H    0.990 --    17 C    0.965
    38   1 H    0.993 --    17 C    0.976
    39   1 H    0.985 --    19 C    0.943
    40   1 H    0.990 --    19 C    0.977
    41   1 H    0.985 --    19 C    0.944
    42   1 H    0.873 --    25 O    0.815
 ---------------------------------------------------------------------------

           -------------------------------------------------
          | TOTAL ENERGY              -82.976926748686 Eh   |
          | GRADIENT NORM               0.000515481299 Eh/α |
          | HOMO-LUMO GAP               0.833821217206 eV   |
           -------------------------------------------------

 * finished run on 2023/06/20 at 18:15:22.320
