   * xtb version 6.5.1 (579679a) compiled by 'ehlert@majestix' on 2022-07-11
          program call               : /lustre/hpc/kemi/ree/PhD/git/ReactivityQM/dep/xtb-6.5.1/bin/xtb --gfn 1 /lustre/hpc/kemi/ree/PhD/git/ReactivityQM/calculations/R02oxygendeprot/reac01prodE01/conf10/R02oxygendeprot_reac01prodE01_conf10_gfn1.xyz --opt --vfukui --chrg -2 --uhf 0 --alpb DMSO

   ID    Z sym.   atoms
    1    6 C      1, 3, 5, 7-10, 12, 13, 15, 18, 19, 22, 24
    2    8 O      2, 4, 14, 20, 23, 25
    3    7 N      6, 11, 16, 17, 21
    4    1 H      26-42

      * Solvation model:               ALPB
        Solvent                        DMSO
        Solvent mass                       7.8130E+01 g/mol
          :  Hamiltonian                  GFN1-xTB          :
 * total energy  :   -83.6316275 Eh     change       -0.1918465E-10 Eh
 * total energy  :   -83.6444064 Eh     change       -0.1277894E-01 Eh
 * total energy  :   -83.6487584 Eh     change       -0.4351957E-02 Eh
 * total energy  :   -83.6496098 Eh     change       -0.8514444E-03 Eh
 * total energy  :   -83.6500617 Eh     change       -0.4518589E-03 Eh
 * total energy  :   -83.6503362 Eh     change       -0.2744891E-03 Eh
 * total energy  :   -83.6505555 Eh     change       -0.2192903E-03 Eh
 * total energy  :   -83.6506981 Eh     change       -0.1426178E-03 Eh
 * total energy  :   -83.6507929 Eh     change       -0.9478953E-04 Eh
 * total energy  :   -83.6508856 Eh     change       -0.9270440E-04 Eh
 * total energy  :   -83.6515052 Eh     change       -0.1371537E-04 Eh
 * total energy  :   -83.6515189 Eh     change       -0.1374221E-04 Eh
 * total energy  :   -83.6515316 Eh     change       -0.1261329E-04 Eh
 * total energy  :   -83.6515441 Eh     change       -0.1255589E-04 Eh
 * total energy  :   -83.6515571 Eh     change       -0.1301094E-04 Eh
 * total energy  :   -83.6515704 Eh     change       -0.1324038E-04 Eh
 * total energy  :   -83.6515809 Eh     change       -0.1051965E-04 Eh
 * total energy  :   -83.6515899 Eh     change       -0.9027129E-05 Eh
 * total energy  :   -83.6515917 Eh     change       -0.1830887E-05 Eh
   *** GEOMETRY OPTIMIZATION CONVERGED AFTER 44 ITERATIONS ***

 final structure:
================
42
 xtb: 6.5.1 (579679a)
C            7.07688054682057        0.25980174165381       -1.03251958236254
O            5.84967449330634        0.86519354415469       -0.66181433807670
C            4.78057517411900        0.02490125373223       -0.56685922900951
O            4.91760968264905       -1.17271161114952       -0.80209339198298
C            3.53574196980275        0.66265619588305       -0.17987545080573
N            2.47590201765504       -0.22969139881851       -0.10835890308995
C            1.30586588757354        0.17648510082787        0.22475927343716
C            0.13789662689414       -0.79541181214685        0.35669074257029
C            0.27217852507636       -1.86104429980444       -0.74660384202478
C            0.25718835585313       -1.43872722026726        1.74791624735275
N           -1.08844304164653       -0.00287362164295        0.22633097627436
C           -2.41905309106113       -0.72125895749753        0.54662441434255
C           -2.92574856182069       -0.06974247591414        1.87750397004746
O           -2.39959784530987       -2.02243093241192        0.54764682465535
C           -3.36063401398595       -0.18073815962944       -0.58235596639977
N           -3.04242114303299        0.09467728123878       -1.80870570358436
N           -4.21796737630266        0.37224550603657       -2.48070458784701
C           -5.16559946216830        0.23793339013105       -1.61609058599296
C           -6.62032664604833        0.43032237462527       -1.83246229816447
O           -4.70025524756658       -0.11014383407119       -0.39981384426131
N            1.06241312294745        1.49592373740896        0.53603463724970
C            2.00146551869537        2.48334103836629        0.49425045670618
O            1.69088096256173        3.64520990458820        0.76977668136372
C            3.39461233249053        2.04591928947430        0.10268531631895
O            4.29898559776798        2.90684613836254        0.05702550833602
H            7.82827274609188        1.04812838940930       -1.06367550274478
H            6.99828865091965       -0.21222876547960       -2.01748510338548
H            7.37310077418002       -0.50092434449728       -0.30272495203681
H           -0.50142226410459       -2.61958052447284       -0.64044538771545
H            0.17701026898368       -1.39484614489157       -1.72810676063210
H            1.25242230970800       -2.33505272925231       -0.67898316037546
H            1.23680668445103       -1.90849629364218        1.84576554427847
H           -0.51190546675462       -2.19634757204058        1.89265267977108
H            0.15761320744653       -0.67686653550004        2.52131591913632
H           -1.14456188716761        0.29557225287732       -0.74924107141076
H           -3.93317110255365       -0.42758864196810        2.08375990986902
H           -2.27154571345202       -0.36937514515578        2.69385077063021
H           -2.93193120112274        1.01569426878098        1.79825137883671
H           -6.80265582533015        0.68593852224470       -2.87325905003847
H           -7.16370987569330       -0.48066304223386       -1.58311822932474
H           -6.99370558692895        1.23100324725393       -1.19458969825846
H            0.11327089606390        1.74895088543689        0.78530138833948

          :  Hamiltonian                  GFN1-xTB          :
         :: total energy             -83.651591735578 Eh    ::
         :: gradient norm              0.000225482162 Eh/a0 ::
         :: HOMO-LUMO gap              2.226632873793 eV    ::
         :: SCC energy               -84.384996197712 Eh    ::
         :: -> Gsolv                  -0.263123303964 Eh    ::
         :: repulsion energy           0.759420032575 Eh    ::

    * Orbital Energies and Occupations

         #    Occupation            Energy/Eh            Energy/eV
      -------------------------------------------------------------
         1        2.0000           -0.8168703             -22.2282
       ...           ...                  ...                  ...
        56        2.0000           -0.4407859             -11.9944
        57        2.0000           -0.4394839             -11.9590
        58        2.0000           -0.4345655             -11.8251
        59        2.0000           -0.4264015             -11.6030
        60        2.0000           -0.4220754             -11.4853
        61        2.0000           -0.4122159             -11.2170
        62        2.0000           -0.4077637             -11.0958
        63        2.0000           -0.3979143             -10.8278
        64        2.0000           -0.3721060             -10.1255
        65        2.0000           -0.3641697              -9.9096
        66        2.0000           -0.3508556              -9.5473
        67        2.0000           -0.3421132              -9.3094
        68        2.0000           -0.3399890              -9.2516 (HOMO)
        69                         -0.2581617              -7.0249 (LUMO)
        70                         -0.2240505              -6.0967
        71                         -0.2178617              -5.9283
        72                         -0.2083212              -5.6687
        73                         -0.1850484              -5.0354
        74                         -0.1278252              -3.4783
        75                         -0.1183864              -3.2215
        76                         -0.0969553              -2.6383
        77                         -0.0934571              -2.5431
        78                         -0.0835275              -2.2729
        79                         -0.0788246              -2.1449
       ...                                ...                  ...
       134                          0.7577421              20.6192
      -------------------------------------------------------------
                  HL-Gap            0.0818273 Eh            2.2266 eV

Wiberg/Mayer (AO) data.
largest (>0.10) Wiberg bond orders for each atom

     #   Z sym  total        # sym  WBO       # sym  WBO       # sym  WBO
 ---------------------------------------------------------------------------
     1   6 C    3.904 --    26 H    0.987    27 H    0.980    28 H    0.980
                             2 O    0.931
     2   8 O    2.151 --     3 C    1.034     1 C    0.931     4 O    0.106
     3   6 C    3.849 --     4 O    1.565     5 C    1.129     2 O    1.034
     4   8 O    1.843 --     3 C    1.565     2 O    0.106
     5   6 C    3.919 --    24 C    1.280     6 N    1.143     3 C    1.129
                            25 O    0.130
     6   7 N    3.021 --     7 C    1.632     5 C    1.143
     7   6 C    3.923 --     6 N    1.632    21 N    1.101     8 C    0.971
     8   6 C    3.968 --     9 C    0.985    10 C    0.982    11 N    0.980
                             7 C    0.971
     9   6 C    3.995 --    30 H    0.987    31 H    0.985     8 C    0.985
                            29 H    0.979
    10   6 C    3.994 --    32 H    0.987    34 H    0.986     8 C    0.982
                            33 H    0.977
    11   7 N    3.003 --     8 C    0.980    35 H    0.944    12 C    0.847
    12   6 C    3.936 --    14 O    1.211    13 C    0.940    15 C    0.883
                            11 N    0.847
    13   6 C    3.992 --    38 H    0.991    36 H    0.987    37 H    0.985
                            12 C    0.940
    14   8 O    1.563 --    12 C    1.211
    15   6 C    3.804 --    16 N    1.649    20 O    1.048    12 C    0.883
    16   7 N    2.983 --    15 C    1.649    17 N    1.146
    17   7 N    2.976 --    18 C    1.657    16 N    1.146
    18   6 C    3.888 --    17 N    1.657    20 O    1.063    19 C    1.024
    19   6 C    3.993 --    18 C    1.024    39 H    0.985    40 H    0.971
                            41 H    0.970
    20   8 O    2.295 --    18 C    1.063    15 C    1.048
    21   7 N    3.444 --    22 C    1.183     7 C    1.101    42 H    0.887
                            23 O    0.136
    22   6 C    3.885 --    23 O    1.553    21 N    1.183    24 C    0.974
    23   8 O    1.834 --    22 C    1.553    21 N    0.136
    24   6 C    3.945 --    25 O    1.500     5 C    1.280    22 C    0.974
    25   8 O    1.806 --    24 C    1.500     5 C    0.130
    26   1 H    1.017 --     1 C    0.987
    27   1 H    1.015 --     1 C    0.980
    28   1 H    1.015 --     1 C    0.980
    29   1 H    1.035 --     9 C    0.979
    30   1 H    1.011 --     9 C    0.987
    31   1 H    1.020 --     9 C    0.985
    32   1 H    1.011 --    10 C    0.987
    33   1 H    1.030 --    10 C    0.977
    34   1 H    1.011 --    10 C    0.986
    35   1 H    0.995 --    11 N    0.944
    36   1 H    1.017 --    13 C    0.987
    37   1 H    1.018 --    13 C    0.985
    38   1 H    1.017 --    13 C    0.991
    39   1 H    1.003 --    19 C    0.985
    40   1 H    1.002 --    19 C    0.971
    41   1 H    1.002 --    19 C    0.970
    42   1 H    0.973 --    21 N    0.887
 ---------------------------------------------------------------------------

           -------------------------------------------------
          | TOTAL ENERGY              -83.651591735578 Eh   |
          | GRADIENT NORM               0.000225482162 Eh/α |
          | HOMO-LUMO GAP               2.226632873793 eV   |
           -------------------------------------------------

 * finished run on 2023/06/21 at 17:01:03.007
