   * xtb version 6.5.1 (579679a) compiled by 'ehlert@majestix' on 2022-07-11
          program call               : /lustre/hpc/kemi/ree/PhD/git/ReactivityQM/dep/xtb-6.5.1/bin/xtb --gfn 1 /lustre/hpc/kemi/ree/PhD/git/ReactivityQM/calculations/RaltegravirCLI/reac02prodE11/conf07/RaltegravirCLI_reac02prodE11_conf07_gfn1.xyz --opt --vfukui --chrg -1 --uhf 0 --alpb DMSO

   ID    Z sym.   atoms
    1    6 C      1, 3-6, 9, 10, 13-17, 19-21, 23, 24
    2    7 N      2, 7, 8, 12
    3    8 O      11, 22, 25
    4    9 F      18
    5    1 H      26-47

      * Solvation model:               ALPB
        Solvent                        DMSO
        Solvent mass                       7.8130E+01 g/mol
          :  Hamiltonian                  GFN1-xTB          :
 * total energy  :   -80.1948984 Eh     change       -0.1953993E-10 Eh
 * total energy  :   -80.2038574 Eh     change       -0.8959038E-02 Eh
 * total energy  :   -80.2069575 Eh     change       -0.3100037E-02 Eh
 * total energy  :   -80.2075890 Eh     change       -0.6315409E-03 Eh
 * total energy  :   -80.2081021 Eh     change       -0.5131039E-03 Eh
 * total energy  :   -80.2082782 Eh     change       -0.1760574E-03 Eh
 * total energy  :   -80.2084077 Eh     change       -0.1294982E-03 Eh
 * total energy  :   -80.2084647 Eh     change       -0.5703882E-04 Eh
 * total energy  :   -80.2085143 Eh     change       -0.4954921E-04 Eh
 * total energy  :   -80.2085628 Eh     change       -0.4857360E-04 Eh
 * total energy  :   -80.2091668 Eh     change       -0.2647586E-04 Eh
 * total energy  :   -80.2091908 Eh     change       -0.2396990E-04 Eh
 * total energy  :   -80.2092196 Eh     change       -0.2883977E-04 Eh
 * total energy  :   -80.2092406 Eh     change       -0.2102327E-04 Eh
 * total energy  :   -80.2092521 Eh     change       -0.1147668E-04 Eh
 * total energy  :   -80.2092641 Eh     change       -0.1194714E-04 Eh
 * total energy  :   -80.2092744 Eh     change       -0.1030754E-04 Eh
 * total energy  :   -80.2092833 Eh     change       -0.8888982E-05 Eh
 * total energy  :   -80.2092872 Eh     change       -0.3936301E-05 Eh
   *** GEOMETRY OPTIMIZATION CONVERGED AFTER 44 ITERATIONS ***

 final structure:
================
47
 xtb: 6.5.1 (579679a)
C           -3.80953341309110       -1.04026177159899        1.27207259511890
N           -2.49179957846245       -1.09427078227848        0.65479016721994
C           -1.88133826491144       -0.05093933584608        0.07460073653420
C           -2.56953905093959        1.31617851295904       -0.08502316372983
C           -3.77347227939304        1.20530895775344       -1.03051205647862
C           -1.57639132451798        2.32697862399820       -0.68393395444531
N           -3.02421022306046        1.82040710704469        1.21566153312611
N           -0.67449112384742       -0.09527122061156       -0.41464973570711
C            0.08277409852353       -1.26907652747951       -0.28543750656908
C            1.46611253542620       -1.17446692821768       -0.75013305035493
O            2.29029093224471       -2.10291545200898       -0.67012055019990
N            1.78755810558227        0.01111730895177       -1.33192719038777
C            3.16534131473395        0.34165707771322       -1.65029935282998
C            3.90054546930033        0.80447806313057       -0.40899099963058
C            3.91675781128234        2.15312129057652       -0.06163851723727
C            4.55974823325575        2.57980093410402        1.09265777338221
C            5.17784513112566        1.63034526101832        1.88526453907736
F            5.80447224626920        2.03434633259769        3.00602658035610
C            5.18086240331446        0.28294771101429        1.57254307809467
C            4.53257848772876       -0.12448220168370        0.41524769464288
C           -0.41721125814789       -2.40989796662580        0.25123057932293
O            0.32449009246019       -3.52983903001175        0.38449745900102
C           -1.89484980682409       -2.58048587904037        0.69158709566508
C           -2.60667793852950       -3.29726289908772       -0.51989437474299
O           -2.08956111143198       -3.13110128580164        1.83904631144971
H           -3.86670338414349       -1.83302734552971        2.02646319451592
H           -3.98022035621329       -0.08243760626212        1.76275167047659
H           -4.60147948064870       -1.20882012827666        0.53463257397286
H           -3.47560876304863        0.71165308817499       -1.95557488309666
H           -4.58774803915576        0.64338269032130       -0.57736997281256
H           -4.14430571975646        2.20090793322855       -1.27352270997322
H           -1.27886328418975        2.02060270190444       -1.68599201181815
H           -2.04226868398287        3.31029238562534       -0.73687194952415
H           -0.68367290546296        2.39408863007250       -0.06350220888895
H           -2.21860900579512        2.10355944685787        1.75960521221547
H           -3.58027236526189        2.64874259438176        1.05948981267906
H            1.13343336127307        0.77518331759334       -1.21355217515932
H            3.64527533335684       -0.55170714307841       -2.06311942971167
H            3.16088020119409        1.12797641876625       -2.40887280999306
H            3.42935265807641        2.88161494673231       -0.69893995264695
H            4.58482940378288        3.62511956963695        1.37006481847671
H            5.68274795048409       -0.42535795694771        2.21903610369272
H            4.51692914018215       -1.17565837916207        0.14870762388631
H            1.23716128435299       -3.34423019736654        0.05417527376358
H           -2.13620726096844       -4.26922431767261       -0.66292472486278
H           -3.65806426339633       -3.44610132733289       -0.28175882155190
H           -2.51688730877225       -2.71297922223932       -1.43360232431531

          :  Hamiltonian                  GFN1-xTB          :
         :: total energy             -80.209287195665 Eh    ::
         :: gradient norm              0.000443769740 Eh/a0 ::
         :: HOMO-LUMO gap              1.887552991888 eV    ::
         :: SCC energy               -81.066931612513 Eh    ::
         :: -> Gsolv                  -0.116497384239 Eh    ::
         :: repulsion energy           0.888750303345 Eh    ::

    * Orbital Energies and Occupations

         #    Occupation            Energy/Eh            Energy/eV
      -------------------------------------------------------------
         1        2.0000           -0.8573430             -23.3295
       ...           ...                  ...                  ...
        56        2.0000           -0.4573775             -12.4459
        57        2.0000           -0.4509628             -12.2713
        58        2.0000           -0.4440602             -12.0835
        59        2.0000           -0.4432226             -12.0607
        60        2.0000           -0.4316255             -11.7451
        61        2.0000           -0.4199901             -11.4285
        62        2.0000           -0.4143497             -11.2750
        63        2.0000           -0.3996147             -10.8741
        64        2.0000           -0.3936846             -10.7127
        65        2.0000           -0.3815969             -10.3838
        66        2.0000           -0.3587659              -9.7625
        67        2.0000           -0.3446536              -9.3785
        68        2.0000           -0.3345893              -9.1046 (HOMO)
        69                         -0.2652230              -7.2171 (LUMO)
        70                         -0.2587978              -7.0422
        71                         -0.2482961              -6.7565
        72                         -0.2067856              -5.6269
        73                         -0.1373940              -3.7387
        74                         -0.1234359              -3.3589
        75                         -0.1129588              -3.0738
        76                         -0.1104799              -3.0063
        77                         -0.1045550              -2.8451
        78                         -0.0979975              -2.6666
        79                         -0.0956672              -2.6032
       ...                                ...                  ...
       144                          0.7068683              19.2349
      -------------------------------------------------------------
                  HL-Gap            0.0693663 Eh            1.8876 eV

Wiberg/Mayer (AO) data.
largest (>0.10) Wiberg bond orders for each atom

     #   Z sym  total        # sym  WBO       # sym  WBO       # sym  WBO
 ---------------------------------------------------------------------------
     1   6 C    3.962 --    28 H    0.979    27 H    0.975    26 H    0.973
                             2 N    0.965
     2   7 N    3.366 --     3 C    1.297     1 C    0.965    23 C    0.735
                             8 N    0.177
     3   6 C    3.947 --     8 N    1.520     2 N    1.297     4 C    0.960
     4   6 C    3.963 --     6 C    0.994     5 C    0.992     7 N    0.974
                             3 C    0.960
     5   6 C    3.996 --     4 C    0.992    29 H    0.986    31 H    0.985
                            30 H    0.981
     6   6 C    3.996 --     4 C    0.994    33 H    0.986    32 H    0.984
                            34 H    0.984
     7   7 N    2.990 --     4 C    0.974    36 H    0.949    35 H    0.948
     8   7 N    2.987 --     3 C    1.520     9 C    1.074     2 N    0.177
     9   6 C    3.949 --    21 C    1.575    10 C    1.077     8 N    1.074
    10   6 C    3.893 --    11 O    1.485    12 N    1.217     9 C    1.077
    11   8 O    1.872 --    10 C    1.485    12 N    0.131
    12   7 N    3.306 --    10 C    1.217    13 C    0.951    37 H    0.897
                            11 O    0.131
    13   6 C    3.960 --    14 C    0.992    39 H    0.978    38 H    0.973
                            12 N    0.951
    14   6 C    3.987 --    15 C    1.421    20 C    1.416    13 C    0.992
    15   6 C    3.994 --    16 C    1.441    14 C    1.421    40 H    0.972
                            19 C    0.110
    16   6 C    3.992 --    15 C    1.441    17 C    1.403    41 H    0.970
                            20 C    0.111
    17   6 C    3.858 --    16 C    1.403    19 C    1.401    18 F    0.918
    18   9 F    1.044 --    17 C    0.918
    19   6 C    3.992 --    20 C    1.444    17 C    1.401    42 H    0.970
                            15 C    0.110
    20   6 C    3.992 --    19 C    1.444    14 C    1.416    43 H    0.968
                            16 C    0.111
    21   6 C    3.879 --     9 C    1.575    22 O    1.089    23 C    0.914
    22   8 O    2.060 --    21 C    1.089    44 H    0.791
    23   6 C    3.924 --    25 O    1.270    24 C    0.920    21 C    0.914
                             2 N    0.735
    24   6 C    3.989 --    47 H    0.991    45 H    0.986    46 H    0.985
                            23 C    0.920
    25   8 O    1.554 --    23 C    1.270
    26   1 H    1.031 --     1 C    0.973
    27   1 H    1.035 --     1 C    0.975
    28   1 H    1.014 --     1 C    0.979
    29   1 H    1.006 --     5 C    0.986
    30   1 H    1.009 --     5 C    0.981
    31   1 H    1.003 --     5 C    0.985
    32   1 H    1.018 --     6 C    0.984
    33   1 H    1.006 --     6 C    0.986
    34   1 H    1.021 --     6 C    0.984
    35   1 H    0.965 --     7 N    0.948
    36   1 H    0.964 --     7 N    0.949
    37   1 H    0.979 --    12 N    0.897
    38   1 H    1.013 --    13 C    0.973
    39   1 H    1.006 --    13 C    0.978
    40   1 H    1.000 --    15 C    0.972
    41   1 H    0.999 --    16 C    0.970
    42   1 H    0.999 --    19 C    0.970
    43   1 H    1.015 --    20 C    0.968
    44   1 H    0.883 --    22 O    0.791
    45   1 H    1.015 --    24 C    0.986
    46   1 H    1.014 --    24 C    0.985
    47   1 H    1.012 --    24 C    0.991
 ---------------------------------------------------------------------------

           -------------------------------------------------
          | TOTAL ENERGY              -80.209287195665 Eh   |
          | GRADIENT NORM               0.000443769740 Eh/α |
          | HOMO-LUMO GAP               1.887552991888 eV   |
           -------------------------------------------------

 * finished run on 2023/06/20 at 15:13:54.841
