   * xtb version 6.5.1 (579679a) compiled by 'ehlert@majestix' on 2022-07-11
          program call               : /lustre/hpc/kemi/ree/PhD/git/ReactivityQM/dep/xtb-6.5.1/bin/xtb --gfn 1 /lustre/hpc/kemi/ree/PhD/git/ReactivityQM/calculations/R02methylcation/reac01prodN17/conf19/R02methylcation_reac01prodN17_conf19_gfn1.xyz --opt --vfukui --chrg 0 --uhf 0 --alpb DMSO

   ID    Z sym.   atoms
    1    6 C      1, 3, 5, 7-10, 12, 13, 15, 18, 19, 22, 24
    2    8 O      2, 4, 14, 20, 23, 25
    3    7 N      6, 11, 16, 17, 21
    4    1 H      26-42

      * Solvation model:               ALPB
        Solvent                        DMSO
        Solvent mass                       7.8130E+01 g/mol
          :  Hamiltonian                  GFN1-xTB          :
 * total energy  :   -82.9280502 Eh     change       -0.1313367E-08 Eh
 * total energy  :   -82.9430868 Eh     change       -0.1503657E-01 Eh
 * total energy  :   -82.9488252 Eh     change       -0.5738421E-02 Eh
 * total energy  :   -82.9498358 Eh     change       -0.1010651E-02 Eh
 * total energy  :   -82.9503524 Eh     change       -0.5165656E-03 Eh
 * total energy  :   -82.9506342 Eh     change       -0.2817995E-03 Eh
 * total energy  :   -82.9508636 Eh     change       -0.2294108E-03 Eh
 * total energy  :   -82.9510916 Eh     change       -0.2280219E-03 Eh
 * total energy  :   -82.9513156 Eh     change       -0.2239589E-03 Eh
 * total energy  :   -82.9514933 Eh     change       -0.1776752E-03 Eh
 * total energy  :   -82.9535797 Eh     change       -0.1852919E-04 Eh
 * total energy  :   -82.9535937 Eh     change       -0.1399908E-04 Eh
 * total energy  :   -82.9536044 Eh     change       -0.1071804E-04 Eh
 * total energy  :   -82.9536118 Eh     change       -0.7350407E-05 Eh
 * total energy  :   -82.9536181 Eh     change       -0.6347527E-05 Eh
 * total energy  :   -82.9536251 Eh     change       -0.7007615E-05 Eh
 * total energy  :   -82.9536321 Eh     change       -0.7023544E-05 Eh
 * total energy  :   -82.9536380 Eh     change       -0.5819234E-05 Eh
 * total energy  :   -82.9536427 Eh     change       -0.4735535E-05 Eh
   *** GEOMETRY OPTIMIZATION CONVERGED AFTER 60 ITERATIONS ***

 final structure:
================
42
 xtb: 6.5.1 (579679a)
C            6.69410698545266        0.57293326492331       -1.09414611756032
O            5.53905067306831        0.85159636340678       -0.30888079809295
C            4.42869639658165        0.15773608462474       -0.62425541446847
O            4.42564729894492       -0.66329168613349       -1.52895009471263
C            3.25834601876555        0.47479129467554        0.19935620589520
N            2.15471198687020       -0.25756468211194       -0.15042732278996
C            1.04368069301544       -0.13525337347636        0.48644828513108
C           -0.14444789342105       -0.95506552199013        0.06587668882269
C           -0.97634012753362       -1.43573748306971        1.25062705736421
C            0.28878325826560       -2.12094284492123       -0.81263036047205
N           -1.05080329067271        0.01971508056965       -0.75177146347276
C           -0.41371116143983        0.50682669650077       -2.00248750142044
C           -2.38113523709502       -0.58308025105234       -1.07796341456106
O           -2.47986044516774       -1.40710724768921       -1.93917209351208
C           -3.40111943371116       -0.00526333245869       -0.24024919537825
N           -3.20240786128918        0.93416244458319        0.65335221592122
N           -4.39581191409302        1.20692197611863        1.20495397018165
C           -5.27077467629824        0.42488294102854        0.62382138514129
C           -6.71995748869424        0.34346286728131        0.88619193823255
O           -4.69824160698532       -0.35632445511718       -0.29506545096024
N            0.89112190316063        0.77689920371689        1.51151209349084
C            1.90637804838782        1.59589821606779        1.95637519532162
O            1.69199338776140        2.38714749005871        2.86341004050213
C            3.23970695736947        1.43316943592809        1.25403192973911
O            4.19356984968006        2.12697599977941        1.62759143461322
H            7.49244815143373        1.21386097679215       -0.72281101408161
H            6.50084925864538        0.78976900706342       -2.14874837922510
H            6.98095536140757       -0.47815925753107       -0.99493147975420
H           -1.44865787248360       -0.60250294500154        1.76735978665280
H           -0.32560935973126       -1.96031011977836        1.94904436921746
H           -1.75402862652680       -2.12003759672175        0.91584643603595
H            0.95531142059480       -1.78376814214437       -1.60481188108777
H           -0.57077399450905       -2.62580852696549       -1.24563174891593
H            0.83241903280306       -2.82857913284398       -0.18757738586106
H           -1.22874589895703        0.81967046081058       -0.13552422508934
H            0.61738151632910        0.77479772265801       -1.78010226411831
H           -0.45693831545839       -0.28252645757214       -2.74836871753190
H           -0.97384396122283        1.37500065822222       -2.33967634022559
H           -6.97311396007084       -0.65563868800534        1.24227193607002
H           -7.00243771872703        1.08099321252269        1.63301638925837
H           -7.27308111915836        0.51812970111988       -0.03645486821893
H            0.00668376470507        0.87161764613183        1.97952317391386

          :  Hamiltonian                  GFN1-xTB          :
         :: total energy             -82.953642699922 Eh    ::
         :: gradient norm              0.000670557846 Eh/a0 ::
         :: HOMO-LUMO gap              0.378809545796 eV    ::
         :: SCC energy               -83.728121827865 Eh    ::
         :: -> Gsolv                  -0.092195617011 Eh    ::
         :: repulsion energy           0.802256178676 Eh    ::

    * Orbital Energies and Occupations

         #    Occupation            Energy/Eh            Energy/eV
      -------------------------------------------------------------
         1        2.0000           -0.8946170             -24.3438
       ...           ...                  ...                  ...
        55        2.0000           -0.5184021             -14.1064
        56        2.0000           -0.5101253             -13.8812
        57        2.0000           -0.5048446             -13.7375
        58        2.0000           -0.4975565             -13.5392
        59        2.0000           -0.4853810             -13.2079
        60        2.0000           -0.4833747             -13.1533
        61        2.0000           -0.4773289             -12.9888
        62        2.0000           -0.4760819             -12.9548
        63        2.0000           -0.4627847             -12.5930
        64        2.0000           -0.4522913             -12.3075
        65        2.0000           -0.4409978             -12.0002
        66        2.0000           -0.3988405             -10.8530
        67        1.9987           -0.3878747             -10.5546 (HOMO)
        68        0.0013           -0.3739537             -10.1758 (LUMO)
        69                         -0.2874494              -7.8219
        70                         -0.2843774              -7.7383
        71                         -0.2721938              -7.4068
        72                         -0.2483450              -6.7578
        73                         -0.2140530              -5.8247
        74                         -0.1626516              -4.4260
        75                         -0.1528115              -4.1582
        76                         -0.1492640              -4.0617
        77                         -0.1416978              -3.8558
        78                         -0.1322705              -3.5993
       ...                                ...                  ...
       134                          0.7516275              20.4528
      -------------------------------------------------------------
                  HL-Gap            0.0139210 Eh            0.3788 eV

Wiberg/Mayer (AO) data.
largest (>0.10) Wiberg bond orders for each atom

     #   Z sym  total        # sym  WBO       # sym  WBO       # sym  WBO
 ---------------------------------------------------------------------------
     1   6 C    3.890 --    26 H    0.987    27 H    0.980    28 H    0.980
                             2 O    0.915
     2   8 O    2.175 --     3 C    1.074     1 C    0.915     4 O    0.117
     3   6 C    3.849 --     4 O    1.597     5 C    1.078     2 O    1.074
     4   8 O    1.862 --     3 C    1.597     2 O    0.117
     5   6 C    3.872 --    24 C    1.238     6 N    1.203     3 C    1.078
                            25 O    0.112
     6   7 N    3.042 --     7 C    1.578     5 C    1.203
     7   6 C    3.930 --     6 N    1.578    21 N    1.095     8 C    0.994
     8   6 C    3.878 --    10 C    1.008     9 C    1.003     7 C    0.994
                            11 N    0.794
     9   6 C    3.987 --     8 C    1.003    31 H    0.978    29 H    0.977
                            30 H    0.977
    10   6 C    3.984 --     8 C    1.008    33 H    0.980    32 H    0.977
                            34 H    0.976
    11   7 N    3.591 --    12 C    0.901    35 H    0.883    13 C    0.877
                             8 C    0.794
    12   6 C    3.886 --    38 H    0.982    37 H    0.981    36 H    0.976
                            11 N    0.901
    13   6 C    3.848 --    14 O    1.746    15 C    1.085    11 N    0.877
    14   8 O    2.016 --    13 C    1.746
    15   6 C    3.884 --    16 N    1.511    13 C    1.085    20 O    1.059
    16   7 N    3.024 --    15 C    1.511    17 N    1.265
    17   7 N    2.985 --    18 C    1.533    16 N    1.265
    18   6 C    3.844 --    17 N    1.533    20 O    1.103    19 C    1.039
    19   6 C    3.979 --    18 C    1.039    40 H    0.980    41 H    0.956
                            39 H    0.953
    20   8 O    2.343 --    18 C    1.103    15 C    1.059
    21   7 N    3.416 --    22 C    1.140     7 C    1.095    42 H    0.893
                            23 O    0.134
    22   6 C    3.868 --    23 O    1.608    21 N    1.140    24 C    0.958
    23   8 O    1.879 --    22 C    1.608    21 N    0.134
    24   6 C    3.928 --    25 O    1.558     5 C    1.238    22 C    0.958
    25   8 O    1.835 --    24 C    1.558     5 C    0.112
    26   1 H    1.014 --     1 C    0.987
    27   1 H    1.011 --     1 C    0.980
    28   1 H    1.011 --     1 C    0.980
    29   1 H    1.003 --     9 C    0.977
    30   1 H    0.996 --     9 C    0.977
    31   1 H    0.996 --     9 C    0.978
    32   1 H    1.013 --    10 C    0.977
    33   1 H    1.003 --    10 C    0.980
    34   1 H    1.000 --    10 C    0.976
    35   1 H    0.958 --    11 N    0.883
    36   1 H    1.003 --    12 C    0.976
    37   1 H    0.998 --    12 C    0.981
    38   1 H    0.991 --    12 C    0.982
    39   1 H    0.991 --    19 C    0.953
    40   1 H    0.995 --    19 C    0.980
    41   1 H    0.992 --    19 C    0.956
    42   1 H    0.940 --    21 N    0.893
 ---------------------------------------------------------------------------

           -------------------------------------------------
          | TOTAL ENERGY              -82.953642699922 Eh   |
          | GRADIENT NORM               0.000670557846 Eh/α |
          | HOMO-LUMO GAP               0.378809545796 eV   |
           -------------------------------------------------

 * finished run on 2023/06/21 at 18:00:08.752
