   * xtb version 6.5.1 (579679a) compiled by 'ehlert@majestix' on 2022-07-11
          program call               : /lustre/hpc/kemi/ree/PhD/git/ReactivityQM/dep/xtb-6.5.1/bin/xtb --gfn 1 /lustre/hpc/kemi/ree/PhD/git/ReactivityQM/calculations/RaltegravirCLI/reac01prodE03/conf01/RaltegravirCLI_reac01prodE03_conf01_gfn1.xyz --opt --vfukui --chrg -1 --uhf 0 --alpb DMSO

   ID    Z sym.   atoms
    1    6 C      1, 2, 4, 5, 10
    2    8 O      3, 6
    3   17 Cl     7
    4    7 N      8, 9
    5    1 H      11-16

      * Solvation model:               ALPB
        Solvent                        DMSO
        Solvent mass                       7.8130E+01 g/mol
          :  Hamiltonian                  GFN1-xTB          :
 * total energy  :   -34.0942914 Eh     change       -0.2872724E-10 Eh
 * total energy  :   -34.1039081 Eh     change       -0.9616667E-02 Eh
 * total energy  :   -34.1086961 Eh     change       -0.4787951E-02 Eh
 * total energy  :   -34.1096393 Eh     change       -0.9432876E-03 Eh
 * total energy  :   -34.1110978 Eh     change       -0.1458435E-02 Eh
 * total energy  :   -34.1114060 Eh     change       -0.3082308E-03 Eh
 * total energy  :   -34.1115197 Eh     change       -0.1137018E-03 Eh
 * total energy  :   -34.1115498 Eh     change       -0.3003499E-04 Eh
 * total energy  :   -34.1115660 Eh     change       -0.1627445E-04 Eh
 * total energy  :   -34.1115769 Eh     change       -0.1091571E-04 Eh
 * total energy  :   -34.1115803 Eh     change       -0.3389998E-05 Eh
   *** GEOMETRY OPTIMIZATION CONVERGED AFTER 11 ITERATIONS ***

 final structure:
================
16
 xtb: 6.5.1 (579679a)
C           -1.31098978049327       -1.46169823264208       -0.99437883983680
C           -0.26174550000488       -0.56229763827540       -0.45439102648232
O            1.06099198242658       -0.82896100027282       -0.61298560585896
C            1.71594576407853        0.28057323872542        0.02703285990894
C            3.02988028370652        0.46837195850299        0.13367603142705
O            3.80345558810652        1.30161159466241        0.61663858513158
Cl           3.97617878074052       -1.07857097944665       -0.76055949535815
N            0.72267130183478        1.16939431229230        0.54047316012982
N           -0.41473614025622        0.56593269793539        0.18980705425187
C           -1.66579018203838        1.18830575616221        0.54994797255531
H           -2.13111988149867       -1.56327909256917       -0.28445275429455
H           -1.72167998760028       -1.07435785553282       -1.92964313801411
H           -0.87982517060545       -2.44256002103174       -1.18665160029659
H           -1.44306451979402        2.14248991794355        1.02190498817828
H           -2.27012850837005        1.34535043126485       -0.34191917164602
H           -2.21004403023227        0.54969491228154        1.24468798020454

          :  Hamiltonian                  GFN1-xTB          :
         :: total energy             -34.111580332488 Eh    ::
         :: gradient norm              0.000704662813 Eh/a0 ::
         :: HOMO-LUMO gap              1.320276516495 eV    ::
         :: SCC energy               -34.385289860702 Eh    ::
         :: -> Gsolv                  -0.116535924242 Eh    ::
         :: repulsion energy           0.280982218012 Eh    ::

    * Orbital Energies and Occupations

         #    Occupation            Energy/Eh            Energy/eV
      -------------------------------------------------------------
         1        2.0000           -0.8261949             -22.4819
       ...           ...                  ...                  ...
        16        2.0000           -0.5284362             -14.3795
        17        2.0000           -0.5227436             -14.2246
        18        2.0000           -0.5182431             -14.1021
        19        2.0000           -0.5009261             -13.6309
        20        2.0000           -0.4964304             -13.5086
        21        2.0000           -0.4919407             -13.3864
        22        2.0000           -0.4698236             -12.7845
        23        2.0000           -0.4365265             -11.8785
        24        2.0000           -0.4351323             -11.8406
        25        2.0000           -0.4202761             -11.4363
        26        2.0000           -0.4084323             -11.1140
        27        2.0000           -0.3946002             -10.7376
        28        2.0000           -0.2865887              -7.7985 (HOMO)
        29                         -0.2380694              -6.4782 (LUMO)
        30                         -0.1885359              -5.1303
        31                         -0.1455379              -3.9603
        32                         -0.1304253              -3.5491
        33                         -0.1258958              -3.4258
        34                         -0.0867097              -2.3595
        35                         -0.0752492              -2.0476
        36                         -0.0597471              -1.6258
        37                         -0.0535097              -1.4561
        38                          0.0332998               0.9061
        39                          0.0355213               0.9666
       ...                                ...                  ...
        57                          0.8438229              22.9616
      -------------------------------------------------------------
                  HL-Gap            0.0485193 Eh            1.3203 eV

Wiberg/Mayer (AO) data.
largest (>0.10) Wiberg bond orders for each atom

     #   Z sym  total        # sym  WBO       # sym  WBO       # sym  WBO
 ---------------------------------------------------------------------------
     1   6 C    3.992 --     2 C    1.025    13 H    0.980    11 H    0.977
                            12 H    0.966
     2   6 C    3.878 --     9 N    1.419     3 O    1.047     1 C    1.025
                             8 N    0.294
     3   8 O    2.148 --     2 C    1.047     4 C    0.872
     4   6 C    3.771 --     5 C    1.622     8 N    1.043     3 O    0.872
                             6 O    0.175
     5   6 C    3.847 --     4 C    1.622     6 O    1.535     7 Cl   0.516
     6   8 O    1.881 --     5 C    1.535     4 C    0.175     7 Cl   0.114
     7  17 Cl   0.672 --     5 C    0.516     6 O    0.114
     8   7 N    2.721 --     9 N    1.156     4 C    1.043     2 C    0.294
     9   7 N    3.644 --     2 C    1.419     8 N    1.156    10 C    0.947
    10   6 C    3.948 --    14 H    0.984    15 H    0.982    16 H    0.979
                             9 N    0.947
    11   1 H    1.001 --     1 C    0.977
    12   1 H    1.002 --     1 C    0.966
    13   1 H    1.001 --     1 C    0.980
    14   1 H    1.011 --    10 C    0.984
    15   1 H    1.001 --    10 C    0.982
    16   1 H    1.002 --    10 C    0.979
 ---------------------------------------------------------------------------

           -------------------------------------------------
          | TOTAL ENERGY              -34.111580332488 Eh   |
          | GRADIENT NORM               0.000704662813 Eh/α |
          | HOMO-LUMO GAP               1.320276516495 eV   |
           -------------------------------------------------

 * finished run on 2023/06/20 at 14:53:00.631
