   * xtb version 6.5.1 (579679a) compiled by 'ehlert@majestix' on 2022-07-11
          program call               : /lustre/hpc/kemi/ree/PhD/git/ReactivityQM/dep/xtb-6.5.1/bin/xtb --gfn 1 /lustre/hpc/kemi/ree/PhD/git/ReactivityQM/calculations/R02methylcation/reac01prodE03/conf11/R02methylcation_reac01prodE03_conf11_gfn1.xyz --opt --vfukui --chrg -2 --uhf 0 --alpb DMSO

   ID    Z sym.   atoms
    1    6 C      1, 3, 5, 6, 8-11, 13, 15, 18, 19, 22, 24
    2    8 O      2, 4, 14, 20, 23, 25
    3    7 N      7, 12, 16, 17, 21
    4    1 H      26-42

      * Solvation model:               ALPB
        Solvent                        DMSO
        Solvent mass                       7.8130E+01 g/mol
          :  Hamiltonian                  GFN1-xTB          :
 * total energy  :   -83.5531277 Eh     change       -0.3269378E-08 Eh
 * total energy  :   -83.5674333 Eh     change       -0.1430565E-01 Eh
 * total energy  :   -83.5732352 Eh     change       -0.5801867E-02 Eh
 * total energy  :   -83.5745044 Eh     change       -0.1269201E-02 Eh
 * total energy  :   -83.5753398 Eh     change       -0.8354131E-03 Eh
 * total energy  :   -83.5758132 Eh     change       -0.4734190E-03 Eh
 * total energy  :   -83.5762292 Eh     change       -0.4159747E-03 Eh
 * total energy  :   -83.5765792 Eh     change       -0.3499919E-03 Eh
 * total energy  :   -83.5768565 Eh     change       -0.2773103E-03 Eh
 * total energy  :   -83.5770605 Eh     change       -0.2040295E-03 Eh
 * total energy  :   -83.5824784 Eh     change       -0.1807800E-04 Eh
 * total energy  :   -83.5824890 Eh     change       -0.1052236E-04 Eh
 * total energy  :   -83.5824960 Eh     change       -0.7015496E-05 Eh
 * total energy  :   -83.5825057 Eh     change       -0.9707819E-05 Eh
 * total energy  :   -83.5825148 Eh     change       -0.9140829E-05 Eh
 * total energy  :   -83.5825228 Eh     change       -0.8016221E-05 Eh
 * total energy  :   -83.5825322 Eh     change       -0.9328592E-05 Eh
 * total energy  :   -83.5825416 Eh     change       -0.9450715E-05 Eh
 * total energy  :   -83.5825459 Eh     change       -0.4253798E-05 Eh
   *** GEOMETRY OPTIMIZATION CONVERGED AFTER 61 ITERATIONS ***

 final structure:
================
42
 xtb: 6.5.1 (579679a)
C           -3.98830481623990        0.56204153302813        1.85322169682962
O           -3.59187858141095        1.82206643580552        1.33317273080103
C           -3.37265789148914        1.89550889967193       -0.04796170554304
O           -4.19326066911447        2.81250868947519       -0.68075840881984
C           -5.58776579960636        2.57458082283621       -0.58634616331874
C           -2.37289783334930        1.18901238274011       -0.68778835786755
N           -1.56227784750488        0.41822654988016        0.15283088103133
C           -0.60147695814137       -0.27920358995910       -0.35409324262869
C            0.23114329366320       -1.19247700826636        0.53026245820847
C            0.22844453997095       -0.69112270372470        1.98103990667934
C           -0.39014444577464       -2.59633133366352        0.46821927569565
N            1.58885277731558       -1.29844283441547       -0.00595841901417
C            2.46828311383385       -0.19819566340179        0.11136674451919
O            2.06083687844585        0.97808423365917        0.20984139330418
C            3.82930906158211       -0.61088866116774        0.03676536169630
N            4.27144180598882       -1.87340896626551       -0.07023102900262
N            5.63813534298545       -1.80484750079260       -0.07832277761932
C            5.96462663780649       -0.55765823725946        0.02116158229806
C            7.33814435503224        0.00498794544538        0.06323838526168
O            4.89423410116267        0.27117196351075        0.09769777992953
N           -0.34221968431910       -0.31355427802415       -1.68557602102338
C           -1.07560663986677        0.39987413643039       -2.64385300167303
O           -0.73731142910677        0.26331032151155       -3.84967623698327
C           -2.15764632953177        1.21685781558881       -2.13391451702987
O           -2.89061337210899        1.90177891833564       -2.92300845849334
H           -4.28363249543727        0.72135976673841        2.89209946802185
H           -4.83966177429126        0.14687405137761        1.29979996255613
H           -3.15998231578560       -0.15802193865413        1.82131490577404
H           -5.92932274185212        2.61876618675795        0.45497781083403
H           -6.08972297671288        3.35874521410588       -1.15622836789436
H           -5.85605067645815        1.59541408955174       -1.00585973440481
H            0.85451436821256       -1.33230639020482        2.59948442783901
H           -0.79005277888473       -0.71167700281694        2.36726241155264
H            0.60006327544505        0.33215195598232        2.03395893383520
H           -1.42415530618071       -2.55567317411885        0.80840621821921
H           -0.37017692176439       -2.97159399997678       -0.55442795026371
H            0.16056678684049       -3.28633538207805        1.10586919013467
H            2.03612277003651       -2.17647974007912        0.22371134669046
H            7.52015762242851        0.49327314559427        1.02149104342143
H            7.47219348061860        0.74779652053361       -0.72363335820511
H            8.06151407991869       -0.79577988301839       -0.07089790522052
H            0.38823899363492       -0.92039629066663       -2.02457426013509

          :  Hamiltonian                  GFN1-xTB          :
         :: total energy             -83.582545870239 Eh    ::
         :: gradient norm              0.000770418313 Eh/a0 ::
         :: HOMO-LUMO gap              0.028943283637 eV    ::
         :: SCC energy               -84.304042115892 Eh    ::
         :: -> Gsolv                  -0.290207117526 Eh    ::
         :: repulsion energy           0.747654434457 Eh    ::

    * Orbital Energies and Occupations

         #    Occupation            Energy/Eh            Energy/eV
      -------------------------------------------------------------
         1        2.0000           -0.7977117             -21.7068
       ...           ...                  ...                  ...
        56        2.0000           -0.4404361             -11.9849
        57        2.0000           -0.4278734             -11.6430
        58        2.0000           -0.4269402             -11.6176
        59        2.0000           -0.4070565             -11.0766
        60        2.0000           -0.4041262             -10.9968
        61        2.0000           -0.4015660             -10.9272
        62        2.0000           -0.4012547             -10.9187
        63        2.0000           -0.3952399             -10.7550
        64        2.0000           -0.3866775             -10.5220
        65        2.0000           -0.3760824             -10.2337
        66        2.0000           -0.3446426              -9.3782
        67        2.0000           -0.3401109              -9.2549
        68        1.2728           -0.2663518              -7.2478 (HOMO)
        69        0.7272           -0.2652882              -7.2189 (LUMO)
        70                         -0.2077372              -5.6528
        71                         -0.2039200              -5.5489
        72                         -0.1789592              -4.8697
        73                         -0.1372623              -3.7351
        74                         -0.1234874              -3.3603
        75                         -0.1159656              -3.1556
        76                         -0.1119771              -3.0471
        77                         -0.1044644              -2.8426
        78                         -0.0940452              -2.5591
        79                         -0.0751672              -2.0454
       ...                                ...                  ...
       134                          0.7293392              19.8463
      -------------------------------------------------------------
                  HL-Gap            0.0010636 Eh            0.0289 eV

Wiberg/Mayer (AO) data.
largest (>0.10) Wiberg bond orders for each atom

     #   Z sym  total        # sym  WBO       # sym  WBO       # sym  WBO
 ---------------------------------------------------------------------------
     1   6 C    3.910 --    26 H    0.985    27 H    0.982    28 H    0.975
                             2 O    0.936
     2   8 O    2.009 --     3 C    0.937     1 C    0.936
     3   6 C    3.539 --     6 C    1.464     4 O    0.965     2 O    0.937
     4   8 O    2.029 --     3 C    0.965     5 C    0.937
     5   6 C    3.911 --    30 H    0.985    29 H    0.982    31 H    0.981
                             4 O    0.937
     6   6 C    3.942 --     3 C    1.464    24 C    1.118     7 N    1.106
     7   7 N    2.980 --     8 C    1.571     6 C    1.106    21 N    0.108
     8   6 C    3.910 --     7 N    1.571    21 N    1.170     9 C    0.973
     9   6 C    3.953 --    10 C    0.990    11 C    0.985     8 C    0.973
                            12 N    0.947
    10   6 C    3.992 --     9 C    0.990    32 H    0.988    33 H    0.984
                            34 H    0.981
    11   6 C    3.992 --    36 H    0.986    35 H    0.986    37 H    0.985
                             9 C    0.985
    12   7 N    3.127 --    13 C    1.053     9 C    0.947    38 H    0.921
                            14 O    0.103
    13   6 C    3.743 --    14 O    1.452    15 C    1.169    12 N    1.053
    14   8 O    1.669 --    13 C    1.452    12 N    0.103
    15   6 C    3.687 --    16 N    1.376    13 C    1.169    20 O    0.972
    16   7 N    2.727 --    15 C    1.376    17 N    1.186
    17   7 N    2.980 --    18 C    1.628    16 N    1.186
    18   6 C    3.817 --    17 N    1.628    20 O    1.047    19 C    1.023
    19   6 C    3.994 --    18 C    1.023    41 H    0.986    40 H    0.973
                            39 H    0.970
    20   8 O    2.176 --    18 C    1.047    15 C    0.972
    21   7 N    3.395 --     8 C    1.170    22 C    1.046    42 H    0.905
                             7 N    0.108
    22   6 C    3.772 --    23 O    1.422    24 C    1.139    21 N    1.046
    23   8 O    1.644 --    22 C    1.422
    24   6 C    3.807 --    25 O    1.388    22 C    1.139     6 C    1.118
    25   8 O    1.580 --    24 C    1.388
    26   1 H    1.019 --     1 C    0.985
    27   1 H    1.015 --     1 C    0.982
    28   1 H    1.045 --     1 C    0.975
    29   1 H    1.019 --     5 C    0.982
    30   1 H    1.020 --     5 C    0.985
    31   1 H    1.014 --     5 C    0.981
    32   1 H    1.005 --    10 C    0.988
    33   1 H    1.019 --    10 C    0.984
    34   1 H    1.021 --    10 C    0.981
    35   1 H    1.008 --    11 C    0.986
    36   1 H    1.006 --    11 C    0.986
    37   1 H    1.002 --    11 C    0.985
    38   1 H    0.977 --    12 N    0.921
    39   1 H    1.001 --    19 C    0.970
    40   1 H    1.001 --    19 C    0.973
    41   1 H    1.005 --    19 C    0.986
    42   1 H    0.971 --    21 N    0.905
 ---------------------------------------------------------------------------

           -------------------------------------------------
          | TOTAL ENERGY              -83.582545870239 Eh   |
          | GRADIENT NORM               0.000770418313 Eh/α |
          | HOMO-LUMO GAP               0.028943283637 eV   |
           -------------------------------------------------

 * finished run on 2023/06/21 at 17:07:27.409
