   * xtb version 6.5.1 (579679a) compiled by 'ehlert@majestix' on 2022-07-11
          program call               : /lustre/hpc/kemi/ree/PhD/git/ReactivityQM/dep/xtb-6.5.1/bin/xtb --gfn 1 /lustre/hpc/kemi/ree/PhD/git/ReactivityQM/calculations/RaltegravirCLI/reac02prodE07/conf16/RaltegravirCLI_reac02prodE07_conf16_gfn1.xyz --opt --vfukui --chrg -1 --uhf 0 --alpb DMSO

   ID    Z sym.   atoms
    1    6 C      1-4, 6-9, 11, 13, 15-18, 21, 22, 24
    2    9 F      5
    3    7 N      10, 14, 19, 20
    4    8 O      12, 23, 25
    5    1 H      26-47

      * Solvation model:               ALPB
        Solvent                        DMSO
        Solvent mass                       7.8130E+01 g/mol
          :  Hamiltonian                  GFN1-xTB          :
 * total energy  :   -80.1769847 Eh     change       -0.7368328E-10 Eh
 * total energy  :   -80.1860388 Eh     change       -0.9054062E-02 Eh
 * total energy  :   -80.1883825 Eh     change       -0.2343791E-02 Eh
 * total energy  :   -80.1888713 Eh     change       -0.4887295E-03 Eh
 * total energy  :   -80.1893670 Eh     change       -0.4957068E-03 Eh
 * total energy  :   -80.1896579 Eh     change       -0.2909378E-03 Eh
 * total energy  :   -80.1898990 Eh     change       -0.2410560E-03 Eh
 * total energy  :   -80.1900824 Eh     change       -0.1834424E-03 Eh
 * total energy  :   -80.1902382 Eh     change       -0.1558115E-03 Eh
 * total energy  :   -80.1903587 Eh     change       -0.1204895E-03 Eh
 * total energy  :   -80.1918777 Eh     change       -0.1970416E-04 Eh
 * total energy  :   -80.1918933 Eh     change       -0.1563207E-04 Eh
 * total energy  :   -80.1919055 Eh     change       -0.1220431E-04 Eh
 * total energy  :   -80.1919147 Eh     change       -0.9220609E-05 Eh
 * total energy  :   -80.1919233 Eh     change       -0.8572133E-05 Eh
 * total energy  :   -80.1919312 Eh     change       -0.7891043E-05 Eh
 * total energy  :   -80.1919381 Eh     change       -0.6893116E-05 Eh
 * total energy  :   -80.1919433 Eh     change       -0.5243441E-05 Eh
 * total energy  :   -80.1919471 Eh     change       -0.3822460E-05 Eh
   *** GEOMETRY OPTIMIZATION CONVERGED AFTER 67 ITERATIONS ***

 final structure:
================
47
 xtb: 6.5.1 (579679a)
C            5.83719120737088        1.78441342334567        0.73797759353016
C            5.16286851777868        0.61282740636928       -0.03647797281194
C            6.03736774071145       -0.61998744264545        0.01559314745724
C            5.68705518691236       -1.67285204116125        0.79073232362629
F            6.56280257251908       -2.72312628203706        0.86828522511889
C            4.47336489988001       -1.81398181621243        1.47738268795061
C            3.52144829844361       -0.79717436373611        1.26714194093436
C            3.78344598400560        0.32507802856325        0.53288836631342
C            2.70967867572161        1.35073140567727        0.26428150185376
N            1.49956826023638        0.70840808680645       -0.26348906770320
C            0.29138153033720        0.87866138321011        0.30823268599881
O            0.09368946101332        1.68718356210064        1.22003205689385
C           -0.82383642802161        0.06772100508108       -0.26225392573105
N           -2.07224517475099        0.53979454328426        0.05197803623766
C           -3.15276791261000       -0.03016940579801       -0.37048230206102
C           -4.46306916497896        0.61098266346548        0.07493595282753
C           -4.99197099859442       -0.13286206953635        1.31058343968796
C           -4.20218401924136        2.08153527208586        0.44490454468221
N           -5.46075318533306        0.54635386972846       -0.99049516849948
N           -3.12087919951655       -1.17500675391147       -1.13558340381038
C           -4.31542489921017       -1.86557811954670       -1.61538972285876
C           -1.90382704227271       -1.72733286828140       -1.52978529529855
O           -1.84294010598974       -2.73936796224385       -2.24148564818957
C           -0.72893727669228       -1.05707838440716       -1.04952975695928
O            0.45182592492395       -1.62567439074082       -1.42032641809890
H            5.94970944833133        1.52213530859590        1.79047681401003
H            5.23225004648403        2.68869991865967        0.66350178276376
H            6.82343491859089        1.98872128729088        0.32015434331625
H            5.07214826341212        0.95499363702212       -1.08464631567853
H            6.97027069943207       -0.60840027505288       -0.53412752861701
H            4.25698902164200       -2.69602524379533        2.06297967347192
H            2.52449929257938       -0.93143091577879        1.68511231388542
H            2.41503433620743        1.89723365648343        1.17054542439015
H            3.05960117016590        2.08893911395820       -0.46933867401209
H            1.63509532066047        0.00749430184356       -0.97373427023275
H           -5.24943992594890       -1.16268227014969        1.06932597756165
H           -5.88464598762615        0.36627783732217        1.68461642442827
H           -4.23516156412089       -0.13507672963970        2.09483457123146
H           -3.49881411565520        2.14813278187764        1.27480888283838
H           -5.13987263010068        2.55313076789484        0.73283005130956
H           -3.78774115673630        2.61477836869394       -0.40985408618374
H           -5.22978396970792        1.21401959591572       -1.71493544927580
H           -6.36236574671170        0.80584582241705       -0.61756737263420
H           -5.07120386619027       -1.90463205103498       -0.83698952382557
H           -4.03166710367044       -2.87956015941627       -1.89928278427846
H           -4.72400032088810       -1.34743804867771       -2.48249878622955
H            0.24281301721611       -2.39865745389861       -1.97586128933089

          :  Hamiltonian                  GFN1-xTB          :
         :: total energy             -80.191947131356 Eh    ::
         :: gradient norm              0.000271884658 Eh/a0 ::
         :: HOMO-LUMO gap              0.172798678328 eV    ::
         :: SCC energy               -81.050903048370 Eh    ::
         :: -> Gsolv                  -0.104869167833 Eh    ::
         :: repulsion energy           0.888720603340 Eh    ::

    * Orbital Energies and Occupations

         #    Occupation            Energy/Eh            Energy/eV
      -------------------------------------------------------------
         1        2.0000           -0.8056035             -21.9216
       ...           ...                  ...                  ...
        56        2.0000           -0.4543634             -12.3639
        57        2.0000           -0.4460938             -12.1388
        58        2.0000           -0.4437885             -12.0761
        59        2.0000           -0.4371352             -11.8951
        60        2.0000           -0.4270948             -11.6218
        61        2.0000           -0.4229898             -11.5101
        62        2.0000           -0.4177963             -11.3688
        63        2.0000           -0.4123119             -11.2196
        64        2.0000           -0.4082298             -11.1085
        65        2.0000           -0.4056972             -11.0396
        66        2.0000           -0.3989394             -10.8557
        67        2.0000           -0.3795309             -10.3276
        68        1.9317           -0.2973533              -8.0914 (HOMO)
        69        0.0683           -0.2910031              -7.9186 (LUMO)
        70                         -0.2540338              -6.9126
        71                         -0.2039233              -5.5490
        72                         -0.1979973              -5.3878
        73                         -0.1297004              -3.5293
        74                         -0.1244015              -3.3851
        75                         -0.1243268              -3.3831
        76                         -0.1174617              -3.1963
        77                         -0.1112307              -3.0267
        78                         -0.0976724              -2.6578
        79                         -0.0937651              -2.5515
       ...                                ...                  ...
       144                          0.7109075              19.3448
      -------------------------------------------------------------
                  HL-Gap            0.0063502 Eh            0.1728 eV

Wiberg/Mayer (AO) data.
largest (>0.10) Wiberg bond orders for each atom

     #   Z sym  total        # sym  WBO       # sym  WBO       # sym  WBO
 ---------------------------------------------------------------------------
     1   6 C    3.974 --    26 H    0.989    28 H    0.987    27 H    0.986
                             2 C    0.966
     2   6 C    3.992 --     3 C    1.008     8 C    1.000     1 C    0.966
                            29 H    0.965
     3   6 C    3.840 --     4 C    1.598     2 C    1.008    30 H    0.975
     4   6 C    3.834 --     3 C    1.598     6 C    1.283     5 F    0.868
     5   9 F    0.980 --     4 C    0.868
     6   6 C    3.802 --     7 C    1.313     4 C    1.283    31 H    0.977
     7   6 C    3.995 --     8 C    1.597     6 C    1.313    32 H    0.972
     8   6 C    3.880 --     7 C    1.597     9 C    1.002     2 C    1.000
     9   6 C    3.939 --     8 C    1.002    34 H    0.974    33 H    0.967
                            10 N    0.924
    10   7 N    3.347 --    11 C    1.265     9 C    0.924    35 H    0.899
                            12 O    0.166
    11   6 C    3.899 --    12 O    1.528    10 N    1.265    13 C    1.013
    12   8 O    1.815 --    11 C    1.528    10 N    0.166
    13   6 C    3.898 --    24 C    1.442    14 N    1.187    11 C    1.013
    14   7 N    3.027 --    15 C    1.577    13 C    1.187
    15   6 C    3.903 --    14 N    1.577    20 N    1.153    16 C    0.976
    16   6 C    3.966 --    18 C    0.989    17 C    0.984    19 N    0.982
                            15 C    0.976
    17   6 C    3.993 --    38 H    0.986    16 C    0.984    37 H    0.984
                            36 H    0.980
    18   6 C    3.995 --    16 C    0.989    40 H    0.986    41 H    0.985
                            39 H    0.983
    19   7 N    2.977 --    16 C    0.982    42 H    0.943    43 H    0.941
    20   7 N    3.441 --    15 C    1.153    22 C    1.099    21 C    0.936
                            23 O    0.118
    21   6 C    3.933 --    44 H    0.979    46 H    0.977    45 H    0.976
                            20 N    0.936
    22   6 C    3.879 --    23 O    1.495    24 C    1.144    20 N    1.099
    23   8 O    1.831 --    22 C    1.495    20 N    0.118
    24   6 C    3.858 --    13 C    1.442    22 C    1.144    25 O    1.043
    25   8 O    2.033 --    24 C    1.043    47 H    0.815
    26   1 H    1.017 --     1 C    0.989
    27   1 H    1.009 --     1 C    0.986
    28   1 H    1.011 --     1 C    0.987
    29   1 H    1.010 --     2 C    0.965
    30   1 H    1.003 --     3 C    0.975
    31   1 H    1.004 --     6 C    0.977
    32   1 H    1.006 --     7 C    0.972
    33   1 H    1.021 --     9 C    0.967
    34   1 H    1.012 --     9 C    0.974
    35   1 H    0.963 --    10 N    0.899
    36   1 H    1.006 --    17 C    0.980
    37   1 H    1.001 --    17 C    0.984
    38   1 H    1.005 --    17 C    0.986
    39   1 H    1.017 --    18 C    0.983
    40   1 H    1.005 --    18 C    0.986
    41   1 H    1.009 --    18 C    0.985
    42   1 H    0.959 --    19 N    0.943
    43   1 H    0.956 --    19 N    0.941
    44   1 H    1.022 --    21 C    0.979
    45   1 H    1.013 --    21 C    0.976
    46   1 H    1.019 --    21 C    0.977
    47   1 H    0.860 --    25 O    0.815
 ---------------------------------------------------------------------------

           -------------------------------------------------
          | TOTAL ENERGY              -80.191947131356 Eh   |
          | GRADIENT NORM               0.000271884658 Eh/α |
          | HOMO-LUMO GAP               0.172798678328 eV   |
           -------------------------------------------------

 * finished run on 2023/06/20 at 15:05:59.422
