   * xtb version 6.5.1 (579679a) compiled by 'ehlert@majestix' on 2022-07-11
          program call               : /lustre/hpc/kemi/ree/PhD/git/ReactivityQM/dep/xtb-6.5.1/bin/xtb --gfn 1 /lustre/hpc/kemi/ree/PhD/git/ReactivityQM/calculations/R02deprot/reac01prodN05/conf07/R02deprot_reac01prodN05_conf07_gfn1.xyz --opt --vfukui --chrg 0 --uhf 0 --alpb DMSO

   ID    Z sym.   atoms
    1    6 C      1, 3, 5, 7-10, 12, 14, 17, 18, 21, 23, 25
    2    8 O      2, 4, 13, 19, 22, 24
    3    7 N      6, 11, 15, 16, 20
    4    1 H      26-42

      * Solvation model:               ALPB
        Solvent                        DMSO
        Solvent mass                       7.8130E+01 g/mol
          :  Hamiltonian                  GFN1-xTB          :
 * total energy  :   -82.9230444 Eh     change       -0.1007550E-10 Eh
 * total energy  :   -82.9381536 Eh     change       -0.1510918E-01 Eh
 * total energy  :   -82.9437114 Eh     change       -0.5557822E-02 Eh
 * total energy  :   -82.9449597 Eh     change       -0.1248283E-02 Eh
 * total energy  :   -82.9459671 Eh     change       -0.1007393E-02 Eh
 * total energy  :   -82.9466148 Eh     change       -0.6477650E-03 Eh
 * total energy  :   -82.9471814 Eh     change       -0.5665968E-03 Eh
 * total energy  :   -82.9476502 Eh     change       -0.4687552E-03 Eh
 * total energy  :   -82.9479329 Eh     change       -0.2826942E-03 Eh
 * total energy  :   -82.9481147 Eh     change       -0.1818178E-03 Eh
 * total energy  :   -82.9493632 Eh     change       -0.1323104E-04 Eh
 * total energy  :   -82.9493841 Eh     change       -0.2087195E-04 Eh
 * total energy  :   -82.9493938 Eh     change       -0.9661269E-05 Eh
 * total energy  :   -82.9494121 Eh     change       -0.1830284E-04 Eh
 * total energy  :   -82.9494200 Eh     change       -0.7960359E-05 Eh
 * total energy  :   -82.9494189 Eh     change        0.1124339E-05 Eh
 * total energy  :   -82.9494264 Eh     change       -0.7526267E-05 Eh
 * total energy  :   -82.9494315 Eh     change       -0.5105146E-05 Eh
 * total energy  :   -82.9494349 Eh     change       -0.3351172E-05 Eh
   *** GEOMETRY OPTIMIZATION CONVERGED AFTER 30 ITERATIONS ***

 final structure:
================
42
 xtb: 6.5.1 (579679a)
C           -6.18620116483210       -0.19544646544017        0.12879536503029
O           -4.79662381582134       -0.57493816712829        0.08338136178574
C           -3.91330093059198        0.42652306789004       -0.11519950788238
O           -4.25260430899436        1.56978727423766       -0.26177735408748
C           -2.49508539725151       -0.05151115308878       -0.11137751902321
N           -1.58444927765252        0.91216070724784       -0.30283200735198
C           -0.30032241268485        0.54485514990422       -0.29756892180502
C            0.68713835590121        1.67691921804196       -0.52887160700896
C            0.48590096728256        2.21654006523330       -1.95253840822989
C            0.44899578148524        2.77684588115150        0.51491714552897
N            2.03114632954869        1.12770414237906       -0.37836635677677
C            3.15665143634807        1.84195000280464       -0.51121337843685
O            3.21937656297558        3.02660581752226       -0.81117722863260
C            4.38356934882015        1.04086711228869       -0.24647555080187
N            5.61752637513644        1.42951383001311       -0.33978464479080
N            6.39404813587249        0.36724923702503        0.02111491562307
C            5.58536982774573       -0.60237904190695        0.31500328750878
C            5.93250652468135       -1.96557763597299        0.77312673134057
O            4.29989098419264       -0.24323274365875        0.16478715973154
N            0.17104263372715       -0.66791632079668       -0.12905346623824
C           -0.68211426988418       -1.72613934932641        0.06936592115178
O           -0.28596906278779       -2.87999921517907        0.24257908631534
C           -2.08255824371426       -1.35036268611471        0.06622985042190
O           -3.03667644876799       -2.42301355118818        0.21630331764126
C           -2.97351755292400       -3.18659003325963        1.45943729476574
H           -6.32742400441771        0.57814325043253        0.88579795225254
H           -6.49557566524454        0.17928651557590       -0.84855251881134
H           -6.74074783638585       -1.09241538050924        0.38942451896915
H            1.14185138860921        3.06651018894509       -2.13352996370543
H           -0.55006253977994        2.53189439060787       -2.06754092820839
H            0.70114650848443        1.43543938548842       -2.68065752987420
H            1.09502890469707        3.63164704049855        0.32096959545758
H            0.65537014958787        2.39143123422129        1.51248998606117
H           -0.59160943005627        3.09415936440889        0.46619828306713
H            2.07587028888638        0.14496325137945       -0.13138462334977
H            5.50313937490942       -2.70676879770683        0.09957351919992
H            5.52298606480129       -2.13786345727648        1.76839540508260
H            7.01340744678628       -2.07880407938690        0.80072849611009
H           -3.94701442423607       -2.02169696725827        0.11469906304153
H           -2.00129413980586       -3.67615842347949        1.48097376916126
H           -3.10140154055084       -2.51453085215438        2.30698422103755
H           -3.77741292409986       -3.91565380647344        1.40701726873224

          :  Hamiltonian                  GFN1-xTB          :
         :: total energy             -82.949434895239 Eh    ::
         :: gradient norm              0.000541598711 Eh/a0 ::
         :: HOMO-LUMO gap              2.368116368037 eV    ::
         :: SCC energy               -83.722752908249 Eh    ::
         :: -> Gsolv                  -0.072337984919 Eh    ::
         :: repulsion energy           0.798687804311 Eh    ::

    * Orbital Energies and Occupations

         #    Occupation            Energy/Eh            Energy/eV
      -------------------------------------------------------------
         1        2.0000           -0.8963487             -24.3909
       ...           ...                  ...                  ...
        55        2.0000           -0.4946522             -13.4602
        56        2.0000           -0.4933104             -13.4237
        57        2.0000           -0.4885476             -13.2941
        58        2.0000           -0.4757607             -12.9461
        59        2.0000           -0.4701936             -12.7946
        60        2.0000           -0.4678783             -12.7316
        61        2.0000           -0.4585472             -12.4777
        62        2.0000           -0.4542923             -12.3619
        63        2.0000           -0.4470114             -12.1638
        64        2.0000           -0.4380338             -11.9195
        65        2.0000           -0.4369556             -11.8902
        66        2.0000           -0.4187386             -11.3945
        67        2.0000           -0.4102680             -11.1640 (HOMO)
        68                         -0.3232413              -8.7958 (LUMO)
        69                         -0.3033441              -8.2544
        70                         -0.2666830              -7.2568
        71                         -0.2535860              -6.9004
        72                         -0.2293088              -6.2398
        73                         -0.1917377              -5.2174
        74                         -0.1627989              -4.4300
        75                         -0.1486653              -4.0454
        76                         -0.1428545              -3.8873
        77                         -0.1415039              -3.8505
        78                         -0.1397054              -3.8016
       ...                                ...                  ...
       134                          0.7394548              20.1216
      -------------------------------------------------------------
                  HL-Gap            0.0870267 Eh            2.3681 eV

Wiberg/Mayer (AO) data.
largest (>0.10) Wiberg bond orders for each atom

     #   Z sym  total        # sym  WBO       # sym  WBO       # sym  WBO
 ---------------------------------------------------------------------------
     1   6 C    3.847 --    28 H    0.986    26 H    0.979    27 H    0.979
                             2 O    0.869
     2   8 O    2.214 --     3 C    1.064     1 C    0.869     4 O    0.129
     3   6 C    3.834 --     4 O    1.709     2 O    1.064     5 C    0.982
     4   8 O    1.964 --     3 C    1.709     2 O    0.129
     5   6 C    3.977 --    23 C    1.469     6 N    1.317     3 C    0.982
     6   7 N    3.008 --     7 C    1.346     5 C    1.317
     7   6 C    3.948 --    20 N    1.472     6 N    1.346     8 C    0.979
     8   6 C    3.935 --    10 C    0.982     7 C    0.979     9 C    0.978
                            11 N    0.929
     9   6 C    3.991 --    31 H    0.986    30 H    0.985    29 H    0.981
                             8 C    0.978
    10   6 C    3.991 --    33 H    0.986    34 H    0.984    32 H    0.982
                             8 C    0.982
    11   7 N    3.377 --    12 C    1.290     8 C    0.929    35 H    0.875
                            13 O    0.184
    12   6 C    3.922 --    13 O    1.565    11 N    1.290    14 C    0.986
    13   8 O    1.884 --    12 C    1.565    11 N    0.184
    14   6 C    3.869 --    15 N    1.626    19 O    1.048    12 C    0.986
    15   7 N    2.996 --    14 C    1.626    16 N    1.194
    16   7 N    2.980 --    17 C    1.615    15 N    1.194
    17   6 C    3.871 --    16 N    1.615    19 O    1.073    18 C    1.031
    18   6 C    3.987 --    17 C    1.031    38 H    0.983    36 H    0.965
                            37 H    0.963
    19   8 O    2.316 --    17 C    1.073    14 C    1.048
    20   7 N    3.031 --     7 C    1.472    21 C    1.165    22 O    0.108
    21   6 C    3.930 --    22 O    1.526    20 N    1.165    23 C    1.126
    22   8 O    1.847 --    21 C    1.526    20 N    0.108
    23   6 C    3.779 --     5 C    1.469    21 C    1.126    24 O    0.822
    24   8 O    2.433 --    23 C    0.822    25 C    0.817    39 H    0.710
    25   6 C    3.793 --    41 H    0.984    42 H    0.981    40 H    0.972
                            24 O    0.817
    26   1 H    1.005 --     1 C    0.979
    27   1 H    1.004 --     1 C    0.979
    28   1 H    1.007 --     1 C    0.986
    29   1 H    1.011 --     9 C    0.981
    30   1 H    1.009 --     9 C    0.985
    31   1 H    1.003 --     9 C    0.986
    32   1 H    1.010 --    10 C    0.982
    33   1 H    1.003 --    10 C    0.986
    34   1 H    1.012 --    10 C    0.984
    35   1 H    0.962 --    11 N    0.875
    36   1 H    0.997 --    18 C    0.965
    37   1 H    0.997 --    18 C    0.963
    38   1 H    0.999 --    18 C    0.983
    39   1 H    0.818 --    24 O    0.710
    40   1 H    1.016 --    25 C    0.972
    41   1 H    0.998 --    25 C    0.984
    42   1 H    0.997 --    25 C    0.981
 ---------------------------------------------------------------------------

           -------------------------------------------------
          | TOTAL ENERGY              -82.949434895239 Eh   |
          | GRADIENT NORM               0.000541598711 Eh/α |
          | HOMO-LUMO GAP               2.368116368037 eV   |
           -------------------------------------------------

 * finished run on 2023/06/20 at 18:10:18.224
