   * xtb version 6.5.1 (579679a) compiled by 'ehlert@majestix' on 2022-07-11
          program call               : /lustre/hpc/kemi/ree/PhD/git/ReactivityQM/dep/xtb-6.5.1/bin/xtb --gfn 1 /lustre/hpc/kemi/ree/PhD/git/ReactivityQM/calculations/R02deprot/reac01prodE10/conf12/R02deprot_reac01prodE10_conf12_gfn1.xyz --opt --vfukui --chrg -2 --uhf 0 --alpb DMSO

   ID    Z sym.   atoms
    1    6 C      1, 3, 5, 7-10, 12, 14, 17-19, 22, 24
    2    8 O      2, 4, 13, 20, 23, 25
    3    7 N      6, 11, 15, 16, 21
    4    1 H      26-42

      * Solvation model:               ALPB
        Solvent                        DMSO
        Solvent mass                       7.8130E+01 g/mol
          :  Hamiltonian                  GFN1-xTB          :
 * total energy  :   -83.5472551 Eh     change        0.6110668E-11 Eh
 * total energy  :   -83.5630282 Eh     change       -0.1577305E-01 Eh
 * total energy  :   -83.5692196 Eh     change       -0.6191436E-02 Eh
 * total energy  :   -83.5701046 Eh     change       -0.8850045E-03 Eh
 * total energy  :   -83.5707049 Eh     change       -0.6003027E-03 Eh
 * total energy  :   -83.5708682 Eh     change       -0.1632894E-03 Eh
 * total energy  :   -83.5709912 Eh     change       -0.1229228E-03 Eh
 * total energy  :   -83.5710579 Eh     change       -0.6675856E-04 Eh
 * total energy  :   -83.5711165 Eh     change       -0.5862278E-04 Eh
 * total energy  :   -83.5711690 Eh     change       -0.5248062E-04 Eh
 * total energy  :   -83.5717756 Eh     change       -0.1262589E-04 Eh
 * total energy  :   -83.5717870 Eh     change       -0.1139997E-04 Eh
 * total energy  :   -83.5718032 Eh     change       -0.1617317E-04 Eh
 * total energy  :   -83.5718194 Eh     change       -0.1618936E-04 Eh
 * total energy  :   -83.5718295 Eh     change       -0.1018498E-04 Eh
 * total energy  :   -83.5718369 Eh     change       -0.7304207E-05 Eh
 * total energy  :   -83.5718424 Eh     change       -0.5500072E-05 Eh
 * total energy  :   -83.5718428 Eh     change       -0.4416960E-06 Eh
 * total energy  :   -83.5718462 Eh     change       -0.3391121E-05 Eh
   *** GEOMETRY OPTIMIZATION CONVERGED AFTER 40 ITERATIONS ***

 final structure:
================
42
 xtb: 6.5.1 (579679a)
C           -7.17975265025683        0.53854752155996       -0.37648012890199
O           -5.88492377226377        0.14432023822640       -0.81012575840597
C           -4.89859903480458        0.19559624276231        0.15286357819687
O           -5.17501724440538        0.56461092394611        1.29209230133302
C           -3.57916460931919       -0.20480334436839       -0.31644408454470
N           -2.60154263656916       -0.11386747467648        0.64784880065527
C           -1.37386729668811       -0.43542952433232        0.30473915862379
C           -0.28623488139855       -0.35872604690558        1.38087219098234
C           -0.80471865992445        0.38774675945307        2.61592617793757
C            0.08776164314553       -1.81144223500263        1.74758303129967
N            0.83853070554964        0.36813827591040        0.78642908689299
C            2.13088621359008        0.28379708297093        1.42989658566109
O            2.22337641093780        0.17426655680257        2.69796817176298
C            3.16618530004301        0.41491079010031        0.53468951563658
N            3.08126104217100        0.54512218962421       -0.86124466581237
N            4.34660670482777        0.61580686761454       -1.24999525016288
C            4.65057609401682        0.77169894421656       -2.65175532343654
C            5.22159955906568        0.55241561975762       -0.26827401338739
C            6.70132418923445        0.60546504599086       -0.36545690092733
O            4.57482560361156        0.42266348629030        0.92510790966710
N           -0.95970619676530       -0.85394076332278       -0.89041195016074
C           -1.86038129360194       -0.98671201756824       -1.90690012877435
O           -1.51112609317044       -1.38278721771677       -3.04213966369140
C           -3.24365068507670       -0.64190571081474       -1.59093639128906
O           -4.13417133346070       -0.78259466653911       -2.62477233722842
H           -7.55160739644883       -0.13959116610689        0.39833111897617
H           -7.16067955868372        1.55713633960851        0.02436664179994
H           -7.83447700794215        0.49793296303793       -1.24523456474330
H           -0.04803951965179        0.40450181485182        3.39978327347157
H           -1.05783641433105        1.41484378323160        2.34863494964021
H           -1.70100650668677       -0.10189244481254        2.99813378226959
H            0.84077579836053       -1.83376915316439        2.53500299055641
H           -0.79896866203893       -2.34109165749017        2.09794528474846
H            0.47593780789036       -2.32571525056195        0.86705493874722
H            0.91830537453472        0.11055099508305       -0.20041273290223
H            3.72623799346105        0.66807588289348       -3.21622230253575
H            5.36403336866094        0.00956349834608       -2.96080953684017
H            5.08252268290869        1.75639881811296       -2.82801858077853
H            7.03380259466676        1.53933744222978       -0.82281365012115
H            7.08826396963457       -0.21545615066932       -0.97247240622134
H            7.12582296680818        0.53314972508405        0.63351408229644
H           -5.03316356964789       -0.54687198366871       -2.35243820029039

          :  Hamiltonian                  GFN1-xTB          :
         :: total energy             -83.571846185912 Eh    ::
         :: gradient norm              0.000367758896 Eh/a0 ::
         :: HOMO-LUMO gap              0.094460185801 eV    ::
         :: SCC energy               -84.299515581032 Eh    ::
         :: -> Gsolv                  -0.298129792579 Eh    ::
         :: repulsion energy           0.752713563602 Eh    ::

    * Orbital Energies and Occupations

         #    Occupation            Energy/Eh            Energy/eV
      -------------------------------------------------------------
         1        2.0000           -0.8092416             -22.0206
       ...           ...                  ...                  ...
        56        2.0000           -0.4389906             -11.9455
        57        2.0000           -0.4342724             -11.8172
        58        2.0000           -0.4250032             -11.5649
        59        2.0000           -0.4116863             -11.2026
        60        2.0000           -0.4034945             -10.9796
        61        2.0000           -0.3911767             -10.6445
        62        2.0000           -0.3812250             -10.3737
        63        2.0000           -0.3713693             -10.1055
        64        2.0000           -0.3657730              -9.9532
        65        2.0000           -0.3501071              -9.5269
        66        2.0000           -0.3435755              -9.3492
        67        2.0000           -0.3428317              -9.3289
        68        1.7228           -0.2604228              -7.0865 (HOMO)
        69        0.2772           -0.2569514              -6.9920 (LUMO)
        70                         -0.2307593              -6.2793
        71                         -0.1967782              -5.3546
        72                         -0.1643138              -4.4712
        73                         -0.1423401              -3.8733
        74                         -0.1268830              -3.4527
        75                         -0.1175129              -3.1977
        76                         -0.1094982              -2.9796
        77                         -0.0854329              -2.3247
        78                         -0.0845770              -2.3015
        79                         -0.0785158              -2.1365
       ...                                ...                  ...
       134                          0.7230912              19.6763
      -------------------------------------------------------------
                  HL-Gap            0.0034713 Eh            0.0945 eV

Wiberg/Mayer (AO) data.
largest (>0.10) Wiberg bond orders for each atom

     #   Z sym  total        # sym  WBO       # sym  WBO       # sym  WBO
 ---------------------------------------------------------------------------
     1   6 C    3.896 --    28 H    0.987    26 H    0.981    27 H    0.981
                             2 O    0.921
     2   8 O    2.125 --     3 C    0.992     1 C    0.921
     3   6 C    3.720 --     4 O    1.561     5 C    1.096     2 O    0.992
     4   8 O    1.792 --     3 C    1.561
     5   6 C    3.920 --    24 C    1.407     6 N    1.183     3 C    1.096
     6   7 N    2.960 --     7 C    1.467     5 C    1.183
     7   6 C    3.952 --     6 N    1.467    21 N    1.364     8 C    0.967
     8   6 C    3.962 --     9 C    0.999    10 C    0.976     7 C    0.967
                            11 N    0.960
     9   6 C    3.996 --     8 C    0.999    31 H    0.987    30 H    0.987
                            29 H    0.982
    10   6 C    3.994 --    33 H    0.988    34 H    0.986    32 H    0.983
                             8 C    0.976
    11   7 N    3.063 --    12 C    0.975     8 C    0.960    35 H    0.929
    12   6 C    3.870 --    14 C    1.428    13 O    1.330    11 N    0.975
    13   8 O    1.630 --    12 C    1.330    14 C    0.121
    14   6 C    3.611 --    12 C    1.428    15 N    1.111    20 O    0.844
                            13 O    0.121
    15   7 N    2.736 --    16 N    1.181    14 C    1.111    18 C    0.278
    16   7 N    3.634 --    18 C    1.372    15 N    1.181    17 C    0.949
    17   6 C    3.951 --    36 H    0.984    37 H    0.982    38 H    0.980
                            16 N    0.949
    18   6 C    3.814 --    16 N    1.372    20 O    1.044    19 C    1.026
                            15 N    0.278
    19   6 C    3.993 --    18 C    1.026    41 H    0.983    39 H    0.972
                            40 H    0.971
    20   8 O    2.075 --    18 C    1.044    14 C    0.844
    21   7 N    2.941 --     7 C    1.364    22 C    1.220    23 O    0.117
    22   6 C    3.915 --    23 O    1.456    21 N    1.220    24 C    1.114
    23   8 O    1.729 --    22 C    1.456    21 N    0.117
    24   6 C    3.799 --     5 C    1.407    22 C    1.114    25 O    1.026
    25   8 O    1.997 --    24 C    1.026    42 H    0.833
    26   1 H    1.013 --     1 C    0.981
    27   1 H    1.015 --     1 C    0.981
    28   1 H    1.015 --     1 C    0.987
    29   1 H    1.033 --     9 C    0.982
    30   1 H    1.020 --     9 C    0.987
    31   1 H    1.023 --     9 C    0.987
    32   1 H    1.023 --    10 C    0.983
    33   1 H    1.010 --    10 C    0.988
    34   1 H    1.016 --    10 C    0.986
    35   1 H    1.009 --    11 N    0.929
    36   1 H    1.011 --    17 C    0.984
    37   1 H    1.002 --    17 C    0.982
    38   1 H    1.002 --    17 C    0.980
    39   1 H    1.001 --    19 C    0.972
    40   1 H    1.001 --    19 C    0.971
    41   1 H    1.002 --    19 C    0.983
    42   1 H    0.888 --    25 O    0.833
 ---------------------------------------------------------------------------

           -------------------------------------------------
          | TOTAL ENERGY              -83.571846185912 Eh   |
          | GRADIENT NORM               0.000367758896 Eh/α |
          | HOMO-LUMO GAP               0.094460185801 eV   |
           -------------------------------------------------

 * finished run on 2023/06/20 at 17:54:57.428
