   * xtb version 6.5.1 (579679a) compiled by 'ehlert@majestix' on 2022-07-11
          program call               : /lustre/hpc/kemi/ree/PhD/git/ReactivityQM/dep/xtb-6.5.1/bin/xtb --gfn 1 /lustre/hpc/kemi/ree/PhD/git/ReactivityQM/calculations/R02oxygendeprot/reac01prodN03/conf11/R02oxygendeprot_reac01prodN03_conf11_gfn1.xyz --opt --vfukui --chrg 0 --uhf 0 --alpb DMSO

   ID    Z sym.   atoms
    1    6 C      1, 3, 5, 6, 8-11, 13, 15, 18, 19, 22, 24
    2    8 O      2, 4, 14, 20, 23, 25
    3    7 N      7, 12, 16, 17, 21
    4    1 H      26-42

      * Solvation model:               ALPB
        Solvent                        DMSO
        Solvent mass                       7.8130E+01 g/mol
          :  Hamiltonian                  GFN1-xTB          :
 * total energy  :   -82.9817950 Eh     change       -0.6636469E-11 Eh
 * total energy  :   -82.9934191 Eh     change       -0.1162410E-01 Eh
 * total energy  :   -82.9980474 Eh     change       -0.4628278E-02 Eh
 * total energy  :   -82.9990652 Eh     change       -0.1017760E-02 Eh
 * total energy  :   -82.9996426 Eh     change       -0.5773914E-03 Eh
 * total energy  :   -82.9998861 Eh     change       -0.2435841E-03 Eh
 * total energy  :   -83.0000040 Eh     change       -0.1178242E-03 Eh
 * total energy  :   -83.0000690 Eh     change       -0.6507383E-04 Eh
 * total energy  :   -83.0001168 Eh     change       -0.4772408E-04 Eh
 * total energy  :   -83.0001636 Eh     change       -0.4681187E-04 Eh
 * total energy  :   -83.0003601 Eh     change       -0.1780914E-04 Eh
 * total energy  :   -83.0003763 Eh     change       -0.1621560E-04 Eh
 * total energy  :   -83.0003873 Eh     change       -0.1102606E-04 Eh
 * total energy  :   -83.0003928 Eh     change       -0.5471072E-05 Eh
 * total energy  :   -83.0004053 Eh     change       -0.1250962E-04 Eh
 * total energy  :   -83.0004035 Eh     change        0.1835260E-05 Eh
 * total energy  :   -83.0004124 Eh     change       -0.8919341E-05 Eh
 * total energy  :   -83.0004185 Eh     change       -0.6170893E-05 Eh
 * total energy  :   -83.0004229 Eh     change       -0.4311339E-05 Eh
   *** GEOMETRY OPTIMIZATION CONVERGED AFTER 24 ITERATIONS ***

 final structure:
================
42
 xtb: 6.5.1 (579679a)
C           -3.49466077632539        2.48483169004640        0.53208032702528
O           -2.99286083906749        1.21064024895942        0.09433153336888
C           -3.79911030871825        0.17830099109405        0.24677599927938
O           -4.91016095046176        0.22748290804573        0.69879473093071
C           -3.14634050799712       -1.13965542292694       -0.25883680870809
C           -4.05360375419543       -2.31329378286278        0.12491904363624
N           -1.88311769336101       -1.27689621618056        0.42625200069681
C           -0.78035675935309       -1.06900778208081       -0.16054786186384
C            0.52128397080580       -1.28881598948312        0.58358291145676
C            1.07092888212062       -2.65535383003552        0.14658921109564
C            0.28698238183970       -1.24147648592830        2.09570961318132
N            1.44200240121214       -0.21849333675046        0.18912018625739
C            2.73562763758385       -0.17109197005459        0.59315883023111
O            3.32875987444682       -1.05211973604947        1.18472524120839
C            3.35840566954346        1.11484157079378        0.19048765214276
N            2.75163448935133        2.11208034159287       -0.38066899005028
N            3.68467756268990        3.08625128097524       -0.56476582746665
C            4.80281395021726        2.62168739418399       -0.09308482031933
C            6.12042240738223        3.29400709882278       -0.06875167898897
O            4.65998280291823        1.38234805767569        0.39861666812716
N           -0.65939397921191       -0.71199455770021       -1.49645618608327
C           -1.70410006841051       -0.60857708183846       -2.36490329323417
O           -1.56168058351865       -0.27671651012204       -3.51959189682528
C           -3.06338052086465       -0.99106562343815       -1.76757723572791
O           -4.02134920466377       -1.15141026028056       -2.47871638176926
H           -2.69177872234693        3.20201001158501        0.38152080338474
H           -4.37040401744389        2.75992806140302       -0.05901518743774
H           -3.76740821200695        2.43089833176837        1.58747531968676
H           -3.59084604560640       -3.24759423424215       -0.18481210355627
H           -4.19377922057983       -2.32169880686774        1.20352735493818
H           -5.01911586318008       -2.20369114939067       -0.36597787602435
H            1.32042473407166       -2.63583684968122       -0.91294196238552
H            1.96172429003837       -2.90534032292428        0.71905694421253
H            0.31279330493743       -3.41776035520142        0.32079908082590
H            1.22412410335168       -1.41862246619963        2.62011716717069
H           -0.43342262204422       -2.00823153951339        2.37548368903120
H           -0.10633461223706       -0.26694674470091        2.37986905254344
H            1.04139376015548        0.64563071494077       -0.14591868675718
H            6.58316719319675        3.17303083331126        0.90986000218469
H            5.99649118756275        4.35131398871708       -0.29280925229416
H            6.77935579125315        2.84550198760123       -0.81385297216298
H            0.26020986691469       -0.52909445706153       -1.86953734096012

          :  Hamiltonian                  GFN1-xTB          :
         :: total energy             -83.000422859873 Eh    ::
         :: gradient norm              0.000961601110 Eh/a0 ::
         :: HOMO-LUMO gap              2.416078594871 eV    ::
         :: SCC energy               -83.787596675724 Eh    ::
         :: -> Gsolv                  -0.051193093646 Eh    ::
         :: repulsion energy           0.813777348684 Eh    ::

    * Orbital Energies and Occupations

         #    Occupation            Energy/Eh            Energy/eV
      -------------------------------------------------------------
         1        2.0000           -0.8655121             -23.5518
       ...           ...                  ...                  ...
        55        2.0000           -0.5126360             -13.9495
        56        2.0000           -0.5093132             -13.8591
        57        2.0000           -0.5078082             -13.8182
        58        2.0000           -0.5042352             -13.7209
        59        2.0000           -0.4988046             -13.5732
        60        2.0000           -0.4848829             -13.1943
        61        2.0000           -0.4732660             -12.8782
        62        2.0000           -0.4662290             -12.6867
        63        2.0000           -0.4642358             -12.6325
        64        2.0000           -0.4595392             -12.5047
        65        2.0000           -0.4545668             -12.3694
        66        2.0000           -0.4503920             -12.2558
        67        2.0000           -0.4429806             -12.0541 (HOMO)
        68                         -0.3541914              -9.6380 (LUMO)
        69                         -0.3143792              -8.5547
        70                         -0.2980336              -8.1099
        71                         -0.2734137              -7.4400
        72                         -0.2585513              -7.0355
        73                         -0.2272344              -6.1834
        74                         -0.2025053              -5.5104
        75                         -0.1475098              -4.0139
        76                         -0.1426070              -3.8805
        77                         -0.1302502              -3.5443
        78                         -0.1284047              -3.4941
       ...                                ...                  ...
       134                          0.7573810              20.6094
      -------------------------------------------------------------
                  HL-Gap            0.0887893 Eh            2.4161 eV

Wiberg/Mayer (AO) data.
largest (>0.10) Wiberg bond orders for each atom

     #   Z sym  total        # sym  WBO       # sym  WBO       # sym  WBO
 ---------------------------------------------------------------------------
     1   6 C    3.855 --    26 H    0.985    28 H    0.980    27 H    0.980
                             2 O    0.877
     2   8 O    2.214 --     3 C    1.150     1 C    0.877     4 O    0.139
     3   6 C    3.842 --     4 O    1.705     2 O    1.150     5 C    0.868
     4   8 O    1.981 --     3 C    1.705     2 O    0.139
     5   6 C    3.964 --     7 N    0.983     6 C    0.971    24 C    0.955
                             3 C    0.868
     6   6 C    3.983 --    29 H    0.985    30 H    0.983    31 H    0.982
                             5 C    0.971
     7   7 N    3.026 --     8 C    1.756     5 C    0.983
     8   6 C    3.928 --     7 N    1.756    21 N    1.070     9 C    0.977
     9   6 C    3.933 --    11 C    0.990     8 C    0.977    10 C    0.976
                            12 N    0.925
    10   6 C    3.987 --    34 H    0.985    32 H    0.985    33 H    0.976
                             9 C    0.976
    11   6 C    3.989 --     9 C    0.990    37 H    0.985    36 H    0.983
                            35 H    0.982
    12   7 N    3.324 --    13 C    1.230     9 C    0.925    38 H    0.895
                            14 O    0.171
    13   6 C    3.914 --    14 O    1.609    12 N    1.230    15 C    0.991
    14   8 O    1.923 --    13 C    1.609    12 N    0.171
    15   6 C    3.876 --    16 N    1.607    20 O    1.065    13 C    0.991
    16   7 N    3.019 --    15 C    1.607    17 N    1.203
    17   7 N    2.981 --    18 C    1.602    16 N    1.203
    18   6 C    3.870 --    17 N    1.602    20 O    1.084    19 C    1.032
    19   6 C    3.986 --    18 C    1.032    40 H    0.981    39 H    0.969
                            41 H    0.958
    20   8 O    2.332 --    18 C    1.084    15 C    1.065
    21   7 N    3.431 --    22 C    1.183     8 C    1.070    42 H    0.880
                            23 O    0.148
    22   6 C    3.892 --    23 O    1.673    21 N    1.183    24 C    0.908
    23   8 O    1.956 --    22 C    1.673    21 N    0.148
    24   6 C    3.847 --    25 O    1.810     5 C    0.955    22 C    0.908
    25   8 O    2.021 --    24 C    1.810
    26   1 H    1.008 --     1 C    0.985
    27   1 H    1.004 --     1 C    0.980
    28   1 H    1.004 --     1 C    0.980
    29   1 H    1.000 --     6 C    0.985
    30   1 H    1.004 --     6 C    0.983
    31   1 H    1.006 --     6 C    0.982
    32   1 H    1.000 --    10 C    0.985
    33   1 H    1.010 --    10 C    0.976
    34   1 H    1.001 --    10 C    0.985
    35   1 H    1.004 --    11 C    0.982
    36   1 H    1.009 --    11 C    0.983
    37   1 H    1.004 --    11 C    0.985
    38   1 H    0.952 --    12 N    0.895
    39   1 H    0.996 --    19 C    0.969
    40   1 H    0.998 --    19 C    0.981
    41   1 H    0.996 --    19 C    0.958
    42   1 H    0.927 --    21 N    0.880
 ---------------------------------------------------------------------------

           -------------------------------------------------
          | TOTAL ENERGY              -83.000422859873 Eh   |
          | GRADIENT NORM               0.000961601110 Eh/α |
          | HOMO-LUMO GAP               2.416078594871 eV   |
           -------------------------------------------------

 * finished run on 2023/06/21 at 17:19:23.625
