   * xtb version 6.5.1 (579679a) compiled by 'ehlert@majestix' on 2022-07-11
          program call               : /lustre/hpc/kemi/ree/PhD/git/ReactivityQM/dep/xtb-6.5.1/bin/xtb --gfn 1 /lustre/hpc/kemi/ree/PhD/git/ReactivityQM/calculations/R02methylcation/reac01prodN06/conf03/R02methylcation_reac01prodN06_conf03_gfn1.xyz --opt --vfukui --chrg 0 --uhf 0 --alpb DMSO

   ID    Z sym.   atoms
    1    6 C      1, 3, 5, 7-10, 12, 14, 16, 17, 20, 22, 24
    2    8 O      2, 4, 13, 15, 23, 25
    3    7 N      6, 11, 18, 19, 21
    4    1 H      26-42

      * Solvation model:               ALPB
        Solvent                        DMSO
        Solvent mass                       7.8130E+01 g/mol
          :  Hamiltonian                  GFN1-xTB          :
 * total energy  :   -82.9494558 Eh     change       -0.4551737E-10 Eh
 * total energy  :   -82.9655308 Eh     change       -0.1607499E-01 Eh
 * total energy  :   -82.9735063 Eh     change       -0.7975491E-02 Eh
 * total energy  :   -82.9752437 Eh     change       -0.1737431E-02 Eh
 * total energy  :   -82.9765238 Eh     change       -0.1280071E-02 Eh
 * total energy  :   -82.9772147 Eh     change       -0.6908957E-03 Eh
 * total energy  :   -82.9778377 Eh     change       -0.6230427E-03 Eh
 * total energy  :   -82.9783134 Eh     change       -0.4756573E-03 Eh
 * total energy  :   -82.9786433 Eh     change       -0.3299709E-03 Eh
 * total energy  :   -82.9789156 Eh     change       -0.2723102E-03 Eh
 * total energy  :   -82.9855048 Eh     change       -0.4966419E-04 Eh
 * total energy  :   -82.9855373 Eh     change       -0.3244573E-04 Eh
 * total energy  :   -82.9855632 Eh     change       -0.2596749E-04 Eh
 * total energy  :   -82.9855717 Eh     change       -0.8440699E-05 Eh
 * total energy  :   -82.9855864 Eh     change       -0.1475376E-04 Eh
 * total energy  :   -82.9855953 Eh     change       -0.8920796E-05 Eh
 * total energy  :   -82.9856057 Eh     change       -0.1031600E-04 Eh
 * total energy  :   -82.9856108 Eh     change       -0.5138098E-05 Eh
 * total energy  :   -82.9856156 Eh     change       -0.4762686E-05 Eh
   *** GEOMETRY OPTIMIZATION CONVERGED AFTER 67 ITERATIONS ***

 final structure:
================
42
 xtb: 6.5.1 (579679a)
C            6.65817490635861       -1.09004523578391        0.63059020618091
O            5.38540818607858       -1.26241970538568        0.02044077051678
C            4.49240027118288       -0.26607105081310        0.22093652347917
O            4.78369941810193        0.71279367733132        0.89553240220654
C            3.20032919764698       -0.46867114578124       -0.42747756514447
N            2.31486335284475        0.56200893521466       -0.18567058832850
C            1.14375935101878        0.54662239805099       -0.70073598216430
C            0.18073245118854        1.69235804340181       -0.47554920033600
C            0.59258567263821        2.50275244956854        0.75468273760374
C            0.11536578457564        2.57723539553121       -1.72304320285606
N           -1.17113147807303        1.13356719080697       -0.27307065699349
C           -1.43211216154652        0.20429686462815        0.65012307374599
O           -0.65075214854641       -0.27353892554482        1.45205167993052
C           -2.85475464282696       -0.26217200865029        0.59786348600199
O           -3.73071174529503        0.18662851992540       -0.29476655881402
C           -4.87463013012151       -0.48293512236831       -0.06543160109272
C           -6.06773390536540       -0.23010853602910       -0.89022634266888
N           -4.73955144796664       -1.31708754054567        0.92117460920757
N           -3.46281465894386       -1.17112427813414        1.33193905919391
C           -2.99295430543851       -1.96214239990445        2.44984590881382
N            0.71086181721311       -0.47931845205369       -1.51475461297343
C            1.46466887193422       -1.59085006657039       -1.80135809494768
O            0.99140492164501       -2.48441273442816       -2.49572620267378
C            2.86243883740574       -1.60096810837839       -1.21894716436989
O            3.59873784057203       -2.57063031360579       -1.46524184030447
H            7.14810764542323       -0.18768662600722        0.25201081556640
H            7.25353532143322       -1.96723708998330        0.37954192831577
H            6.55780064168256       -1.00790158829819        1.71733180666014
H            1.59601507736818        2.89735440510220        0.59762398803172
H            0.59977920349414        1.86846093997982        1.63968165500889
H           -0.10198171862266        3.32560743562768        0.90747946831977
H           -0.59905260108965        3.38429403821278       -1.57401861113069
H            1.09765626261477        3.00589877602162       -1.91723121894294
H           -0.19085430320020        1.98889453646158       -2.58621746324129
H           -1.91816178083957        1.47019684219733       -0.85378574551206
H           -5.85068141129924       -0.47217590351320       -1.93165192139556
H           -6.32788424442901        0.82754659677970       -0.84276693089711
H           -6.89914853762058       -0.83434349307961       -0.53550688157157
H           -1.95743078107203       -1.70230147465453        2.65612095728420
H           -3.08452258133802       -3.01519573343554        2.18801911306636
H           -3.62563607379218       -1.74383814381905        3.30843443392335
H           -0.21582437500858       -0.44334036806574       -1.90093923668789

          :  Hamiltonian                  GFN1-xTB          :
         :: total energy             -82.985615562761 Eh    ::
         :: gradient norm              0.000625704815 Eh/a0 ::
         :: HOMO-LUMO gap              0.211943578625 eV    ::
         :: SCC energy               -83.774036986713 Eh    ::
         :: -> Gsolv                  -0.119479939144 Eh    ::
         :: repulsion energy           0.814119995965 Eh    ::

    * Orbital Energies and Occupations

         #    Occupation            Energy/Eh            Energy/eV
      -------------------------------------------------------------
         1        2.0000           -0.9273760             -25.2352
       ...           ...                  ...                  ...
        55        2.0000           -0.5094986             -13.8642
        56        2.0000           -0.5063303             -13.7779
        57        2.0000           -0.4985154             -13.5653
        58        2.0000           -0.4920971             -13.3906
        59        2.0000           -0.4863044             -13.2330
        60        2.0000           -0.4726567             -12.8616
        61        2.0000           -0.4698371             -12.7849
        62        2.0000           -0.4654688             -12.6660
        63        2.0000           -0.4490192             -12.2184
        64        2.0000           -0.4432060             -12.0603
        65        2.0000           -0.4260184             -11.5926
        66        2.0000           -0.3876795             -10.5493
        67        1.9674           -0.3746042             -10.1935 (HOMO)
        68        0.0326           -0.3668154              -9.9816 (LUMO)
        69                         -0.3151408              -8.5754
        70                         -0.2778409              -7.5604
        71                         -0.2490257              -6.7763
        72                         -0.2442056              -6.6452
        73                         -0.2045440              -5.5659
        74                         -0.1666995              -4.5361
        75                         -0.1624069              -4.4193
        76                         -0.1360307              -3.7016
        77                         -0.1241651              -3.3787
        78                         -0.1237232              -3.3667
       ...                                ...                  ...
       134                          0.7515147              20.4498
      -------------------------------------------------------------
                  HL-Gap            0.0077888 Eh            0.2119 eV

Wiberg/Mayer (AO) data.
largest (>0.10) Wiberg bond orders for each atom

     #   Z sym  total        # sym  WBO       # sym  WBO       # sym  WBO
 ---------------------------------------------------------------------------
     1   6 C    3.895 --    27 H    0.987    26 H    0.980    28 H    0.980
                             2 O    0.921
     2   8 O    2.166 --     3 C    1.059     1 C    0.921     4 O    0.113
     3   6 C    3.848 --     4 O    1.585     5 C    1.099     2 O    1.059
     4   8 O    1.853 --     3 C    1.585     2 O    0.113
     5   6 C    3.886 --    24 C    1.259     6 N    1.167     3 C    1.099
                            25 O    0.121
     6   7 N    3.028 --     7 C    1.624     5 C    1.167
     7   6 C    3.920 --     6 N    1.624    21 N    1.096     8 C    0.972
     8   6 C    3.913 --     9 C    0.990    10 C    0.989     7 C    0.972
                            11 N    0.897
     9   6 C    3.987 --     8 C    0.990    31 H    0.986    29 H    0.981
                            30 H    0.981
    10   6 C    3.988 --     8 C    0.989    34 H    0.984    32 H    0.983
                            33 H    0.982
    11   7 N    3.390 --    12 C    1.303     8 C    0.897    35 H    0.888
                            13 O    0.198
    12   6 C    3.923 --    13 O    1.573    11 N    1.303    14 C    0.967
    13   8 O    1.921 --    12 C    1.573    11 N    0.198
    14   6 C    3.801 --    19 N    1.428    15 O    1.112    12 C    0.967
    15   8 O    2.351 --    14 C    1.112    16 C    1.065
    16   6 C    3.839 --    18 N    1.586    15 O    1.065    17 C    1.042
    17   6 C    3.972 --    16 C    1.042    38 H    0.978    37 H    0.952
                            36 H    0.949
    18   7 N    2.959 --    16 C    1.586    19 N    1.145
    19   7 N    3.617 --    14 C    1.428    18 N    1.145    20 C    0.912
    20   6 C    3.883 --    39 H    0.973    41 H    0.966    40 H    0.966
                            19 N    0.912
    21   7 N    3.420 --    22 C    1.153     7 C    1.096    42 H    0.898
                            23 O    0.133
    22   6 C    3.873 --    23 O    1.589    21 N    1.153    24 C    0.964
    23   8 O    1.863 --    22 C    1.589    21 N    0.133
    24   6 C    3.934 --    25 O    1.533     5 C    1.259    22 C    0.964
    25   8 O    1.818 --    24 C    1.533     5 C    0.121
    26   1 H    1.013 --     1 C    0.980
    27   1 H    1.015 --     1 C    0.987
    28   1 H    1.013 --     1 C    0.980
    29   1 H    1.011 --     9 C    0.981
    30   1 H    1.010 --     9 C    0.981
    31   1 H    1.001 --     9 C    0.986
    32   1 H    0.997 --    10 C    0.983
    33   1 H    1.000 --    10 C    0.982
    34   1 H    0.999 --    10 C    0.984
    35   1 H    0.927 --    11 N    0.888
    36   1 H    0.989 --    17 C    0.949
    37   1 H    0.989 --    17 C    0.952
    38   1 H    0.991 --    17 C    0.978
    39   1 H    1.006 --    20 C    0.973
    40   1 H    0.991 --    20 C    0.966
    41   1 H    0.992 --    20 C    0.966
    42   1 H    0.946 --    21 N    0.898
 ---------------------------------------------------------------------------

           -------------------------------------------------
          | TOTAL ENERGY              -82.985615562761 Eh   |
          | GRADIENT NORM               0.000625704815 Eh/α |
          | HOMO-LUMO GAP               0.211943578625 eV   |
           -------------------------------------------------

 * finished run on 2023/06/21 at 17:36:31.706
