   * xtb version 6.5.1 (579679a) compiled by 'ehlert@majestix' on 2022-07-11
          program call               : /lustre/hpc/kemi/ree/PhD/git/ReactivityQM/dep/xtb-6.5.1/bin/xtb --gfn 1 /lustre/hpc/kemi/ree/PhD/git/ReactivityQM/calculations/R02oxygendeprot/reac01prodN12/conf19/R02oxygendeprot_reac01prodN12_conf19_gfn1.xyz --opt --vfukui --chrg 0 --uhf 0 --alpb DMSO

   ID    Z sym.   atoms
    1    6 C      1, 3, 5, 7-10, 12, 14, 15, 18, 19, 22, 24
    2    8 O      2, 4, 13, 20, 23, 25
    3    7 N      6, 11, 16, 17, 21
    4    1 H      26-42

      * Solvation model:               ALPB
        Solvent                        DMSO
        Solvent mass                       7.8130E+01 g/mol
          :  Hamiltonian                  GFN1-xTB          :
 * total energy  :   -82.9277265 Eh     change       -0.3410605E-09 Eh
 * total energy  :   -82.9388312 Eh     change       -0.1110468E-01 Eh
 * total energy  :   -82.9435246 Eh     change       -0.4693469E-02 Eh
 * total energy  :   -82.9443269 Eh     change       -0.8022592E-03 Eh
 * total energy  :   -82.9448098 Eh     change       -0.4828795E-03 Eh
 * total energy  :   -82.9450279 Eh     change       -0.2181410E-03 Eh
 * total energy  :   -82.9451807 Eh     change       -0.1527789E-03 Eh
 * total energy  :   -82.9453050 Eh     change       -0.1243633E-03 Eh
 * total energy  :   -82.9454225 Eh     change       -0.1174519E-03 Eh
 * total energy  :   -82.9455308 Eh     change       -0.1082781E-03 Eh
 * total energy  :   -82.9486943 Eh     change       -0.6908003E-05 Eh
 * total energy  :   -82.9487016 Eh     change       -0.7282041E-05 Eh
 * total energy  :   -82.9487103 Eh     change       -0.8680442E-05 Eh
 * total energy  :   -82.9487201 Eh     change       -0.9830416E-05 Eh
 * total energy  :   -82.9487298 Eh     change       -0.9679092E-05 Eh
 * total energy  :   -82.9487399 Eh     change       -0.1010044E-04 Eh
 * total energy  :   -82.9487498 Eh     change       -0.9906994E-05 Eh
 * total energy  :   -82.9487595 Eh     change       -0.9636889E-05 Eh
 * total energy  :   -82.9487626 Eh     change       -0.3108208E-05 Eh
   *** GEOMETRY OPTIMIZATION CONVERGED AFTER 94 ITERATIONS ***

 final structure:
================
42
 xtb: 6.5.1 (579679a)
C            5.33344947862919        1.58455423365324        2.11818842782592
O            4.58248575036592        1.38147826550519        0.92251457132977
C            3.54462343210913        0.54163241263726        1.01096613978509
O            3.24504690375655       -0.01460968602812        2.05163556544072
C            2.80813187616294        0.35041402516454       -0.25729590063488
N            1.81123171182868       -0.56286209700564       -0.15940676296057
C            1.06453202409297       -0.85745918358758       -1.18015771048858
C           -0.00530940458380       -1.91239186700867       -0.98766127816967
C            0.55403621667960       -3.03180559458643       -0.10671156439986
C           -0.55901600573206       -2.47809555058347       -2.29423157580542
N           -1.11702546275696       -1.29051616602639       -0.22663677729749
C           -1.76367862578653       -0.22606643751562       -0.68745695096925
O           -1.47849520538501        0.43646451859483       -1.65368055093591
C           -3.00977930162305        0.13316378435223        0.22758863354649
C           -4.10027982129106       -0.91788174394173        0.04123010351575
N           -2.50723839444021        0.25038438320713        1.55265761645541
N           -2.62208843770541        1.48394410866961        1.93136289678487
C           -3.21258769784545        2.17055242539917        0.94851979548746
C           -3.54519273874930        3.60147673181276        0.97162719423515
O           -3.48487876188838        1.42086819415785       -0.09094926764496
N            1.23073408890661       -0.24913325173499       -2.38626397283101
C            2.18685241603218        0.71383428948562       -2.64036879886018
O            2.25891557674246        1.22789498255252       -3.74274189704485
C            3.09453974313285        1.05257940416526       -1.47561933482570
O            3.98524671456306        1.88986060979013       -1.63213641024998
H            5.74693355299500        0.63627881117440        2.47130273110103
H            4.69690075508750        2.00926843629419        2.89883913132297
H            6.13743998695644        2.27565250544457        1.87175652880092
H            1.35123631497655       -3.54827742697202       -0.63866818139832
H            0.95664654726774       -2.61354321073575        0.81560444918872
H           -0.23169837657192       -3.74567167904502        0.13058264888377
H            0.24756447630633       -2.92027952919389       -2.87623849617290
H           -1.29309988195789       -3.24865948805524       -2.06729479037177
H           -1.04676600986009       -1.70335186199652       -2.88268044952405
H           -1.45798007939333       -1.78354010418796        0.58131749025187
H           -4.93889773649048       -0.67426949884645        0.68999417781332
H           -4.42937619758178       -0.91404221332019       -0.99539098698377
H           -3.71121874686327       -1.89862301474927        0.29933479793916
H           -4.61983638687824        3.72502278375619        0.83072949869253
H           -3.05019877377082        4.11004347301051        0.14273696968808
H           -3.24239009736651        4.04486958082484        1.91644605950802
H            0.59048157796709       -0.44915835454081       -3.13900477002608

          :  Hamiltonian                  GFN1-xTB          :
         :: total energy             -82.948762572630 Eh    ::
         :: gradient norm              0.000336355446 Eh/a0 ::
         :: HOMO-LUMO gap              0.108237120071 eV    ::
         :: SCC energy               -83.719500019081 Eh    ::
         :: -> Gsolv                  -0.080975279462 Eh    ::
         :: repulsion energy           0.797394756175 Eh    ::

    * Orbital Energies and Occupations

         #    Occupation            Energy/Eh            Energy/eV
      -------------------------------------------------------------
         1        2.0000           -0.8879283             -24.1618
       ...           ...                  ...                  ...
        55        2.0000           -0.5148895             -14.0109
        56        2.0000           -0.5098320             -13.8732
        57        2.0000           -0.5081519             -13.8275
        58        2.0000           -0.4947076             -13.4617
        59        2.0000           -0.4887637             -13.2999
        60        2.0000           -0.4882045             -13.2847
        61        2.0000           -0.4779467             -13.0056
        62        2.0000           -0.4763020             -12.9608
        63        2.0000           -0.4732955             -12.8790
        64        2.0000           -0.4684510             -12.7472
        65        2.0000           -0.4522109             -12.3053
        66        2.0000           -0.4153545             -11.3024
        67        1.7805           -0.4006175             -10.9014 (HOMO)
        68        0.2195           -0.3966398             -10.7931 (LUMO)
        69                         -0.3022553              -8.2248
        70                         -0.2909497              -7.9171
        71                         -0.2787568              -7.5854
        72                         -0.2771609              -7.5419
        73                         -0.2286442              -6.2217
        74                         -0.1590241              -4.3273
        75                         -0.1493417              -4.0638
        76                         -0.1484037              -4.0383
        77                         -0.1390902              -3.7848
        78                         -0.1348712              -3.6700
       ...                                ...                  ...
       134                          0.7469003              20.3242
      -------------------------------------------------------------
                  HL-Gap            0.0039776 Eh            0.1082 eV

Wiberg/Mayer (AO) data.
largest (>0.10) Wiberg bond orders for each atom

     #   Z sym  total        # sym  WBO       # sym  WBO       # sym  WBO
 ---------------------------------------------------------------------------
     1   6 C    3.880 --    28 H    0.986    27 H    0.980    26 H    0.979
                             2 O    0.907
     2   8 O    2.187 --     3 C    1.097     1 C    0.907     4 O    0.127
     3   6 C    3.840 --     4 O    1.620     2 O    1.097     5 C    1.039
     4   8 O    1.867 --     3 C    1.620     2 O    0.127
     5   6 C    3.755 --     6 N    1.269    24 C    1.186     3 C    1.039
     6   7 N    3.003 --     7 C    1.504     5 C    1.269
     7   6 C    3.851 --     6 N    1.504    21 N    1.174     8 C    0.980
     8   6 C    3.919 --    10 C    0.998     9 C    0.991     7 C    0.980
                            11 N    0.885
     9   6 C    3.984 --     8 C    0.991    31 H    0.983    29 H    0.982
                            30 H    0.980
    10   6 C    3.989 --     8 C    0.998    32 H    0.983    33 H    0.982
                            34 H    0.977
    11   7 N    3.358 --    12 C    1.319    35 H    0.892     8 C    0.885
                            13 O    0.175
    12   6 C    3.882 --    13 O    1.646    11 N    1.319    14 C    0.798
    13   8 O    1.983 --    12 C    1.646    11 N    0.175
    14   6 C    3.851 --    16 N    1.061    15 C    0.941    20 O    0.912
                            12 C    0.798
    15   6 C    3.942 --    38 H    0.980    37 H    0.980    36 H    0.977
                            14 C    0.941
    16   7 N    2.741 --    17 N    1.470    14 C    1.061
    17   7 N    2.960 --    16 N    1.470    18 C    1.339
    18   6 C    3.695 --    17 N    1.339    20 O    1.184    19 C    1.053
    19   6 C    3.974 --    18 C    1.053    41 H    0.980    40 H    0.944
                            39 H    0.943
    20   8 O    2.256 --    18 C    1.184    14 C    0.912
    21   7 N    3.434 --     7 C    1.174    22 C    1.124    42 H    0.882
                            23 O    0.119
    22   6 C    3.851 --    23 O    1.632    21 N    1.124    24 C    0.954
    23   8 O    1.868 --    22 C    1.632    21 N    0.119
    24   6 C    3.883 --    25 O    1.592     5 C    1.186    22 C    0.954
    25   8 O    1.791 --    24 C    1.592
    26   1 H    1.009 --     1 C    0.979
    27   1 H    1.009 --     1 C    0.980
    28   1 H    1.012 --     1 C    0.986
    29   1 H    0.999 --     9 C    0.982
    30   1 H    1.012 --     9 C    0.980
    31   1 H    0.997 --     9 C    0.983
    32   1 H    0.997 --    10 C    0.983
    33   1 H    0.999 --    10 C    0.982
    34   1 H    1.001 --    10 C    0.977
    35   1 H    0.939 --    11 N    0.892
    36   1 H    0.993 --    15 C    0.977
    37   1 H    0.994 --    15 C    0.980
    38   1 H    0.997 --    15 C    0.980
    39   1 H    0.982 --    19 C    0.943
    40   1 H    0.982 --    19 C    0.944
    41   1 H    0.995 --    19 C    0.980
    42   1 H    0.941 --    21 N    0.882
 ---------------------------------------------------------------------------

           -------------------------------------------------
          | TOTAL ENERGY              -82.948762572630 Eh   |
          | GRADIENT NORM               0.000336355446 Eh/α |
          | HOMO-LUMO GAP               0.108237120071 eV   |
           -------------------------------------------------

 * finished run on 2023/06/21 at 17:27:42.775
