                         Program Version 5.0.1 -  RELEASE  -
|  1> # ORCA input file
|  2> ! SP r2SCAN-3c CPCM
|  3>
|  4> %maxcore 1875.0
|  5> %pal nprocs 4 end
|  6> %cpcm smd true SMDsolvent "DMSO" end
|  7>
|  8> *xyz 1 1
|  9> C      -3.051969    4.312260    0.486541
| 10> O      -2.447120    3.050292    0.166094
| 11> C      -2.459482    2.126230    1.103305
| 12> O      -2.944486    2.255415    2.197176
| 13> C      -1.801596    0.835847    0.665448
| 14> C      -1.011810    0.618422   -0.595454
| 15> O      -0.808599    1.647853   -1.447218
| 16> C      -1.592113   -0.618434   -1.310654
| 17> O      -1.852966   -0.578160   -2.494377
| 18> N      -1.723912   -1.631934   -0.456245
| 19> C      -2.226339   -2.925709   -0.920973
| 20> C      -1.274850   -1.392614    0.916027
| 21> C      -1.629879   -2.541519    1.847024
| 22> C       0.252791   -1.073791    0.852784
| 23> C       0.801809   -0.734086    2.234745
| 24> C       1.062253   -2.193483    0.208172
| 25> N       0.371308    0.119803   -0.084597
| 26> C       1.084938    1.327098    0.505589
| 27> O       0.520499    2.020143    1.288654
| 28> C       2.412910    1.455538   -0.025313
| 29> N       3.294014    2.391518    0.221585
| 30> N       4.382790    2.103011   -0.495901
| 31> C       4.133838    0.998442   -1.156267
| 32> C       5.025969    0.279955   -2.081056
| 33> O       2.905395    0.544522   -0.896516
| 34> N      -1.921422   -0.186892    1.410555
| 35> H      -2.585714    4.730460    1.381281
| 36> H      -2.884366    4.958525   -0.372012
| 37> H      -4.121207    4.174891    0.660347
| 38> H      -0.941209    1.343095   -2.365421
| 39> H      -2.364310   -2.842413   -1.997936
| 40> H      -1.499070   -3.703976   -0.701567
| 41> H      -3.176340   -3.153428   -0.438766
| 42> H      -1.369411   -2.265512    2.866838
| 43> H      -2.702811   -2.720537    1.804855
| 44> H      -1.102209   -3.452057    1.577279
| 45> H       0.810311   -1.639794    2.838124
| 46> H       0.188736    0.017875    2.729492
| 47> H       1.825769   -0.374129    2.152032
| 48> H       0.670840   -2.436803   -0.777592
| 49> H       2.099459   -1.877533    0.107268
| 50> H       1.030788   -3.083883    0.833141
| 51> H       0.895624   -0.157071   -0.915550
| 52> H       4.544185    0.181260   -3.053995
| 53> H       5.212633   -0.725452   -1.702751
| 54> H       5.966326    0.816757   -2.183500
| 55> **                         ****END OF INPUT****

CARTESIAN COORDINATES (ANGSTROEM)
---------------------------------
  C     -3.051969    4.312260    0.486541
  O     -2.447120    3.050292    0.166094
  C     -2.459482    2.126230    1.103305
  O     -2.944486    2.255415    2.197176
  C     -1.801596    0.835847    0.665448
  C     -1.011810    0.618422   -0.595454
  O     -0.808599    1.647853   -1.447218
  C     -1.592113   -0.618434   -1.310654
  O     -1.852966   -0.578160   -2.494377
  N     -1.723912   -1.631934   -0.456245
  C     -2.226339   -2.925709   -0.920973
  C     -1.274850   -1.392614    0.916027
  C     -1.629879   -2.541519    1.847024
  C      0.252791   -1.073791    0.852784
  C      0.801809   -0.734086    2.234745
  C      1.062253   -2.193483    0.208172
  N      0.371308    0.119803   -0.084597
  C      1.084938    1.327098    0.505589
  O      0.520499    2.020143    1.288654
  C      2.412910    1.455538   -0.025313
  N      3.294014    2.391518    0.221585
  N      4.382790    2.103011   -0.495901
  C      4.133838    0.998442   -1.156267
  C      5.025969    0.279955   -2.081056
  O      2.905395    0.544522   -0.896516
  N     -1.921422   -0.186892    1.410555
  H     -2.585714    4.730460    1.381281
  H     -2.884366    4.958525   -0.372012
  H     -4.121207    4.174891    0.660347
  H     -0.941209    1.343095   -2.365421
  H     -2.364310   -2.842413   -1.997936
  H     -1.499070   -3.703976   -0.701567
  H     -3.176340   -3.153428   -0.438766
  H     -1.369411   -2.265512    2.866838
  H     -2.702811   -2.720537    1.804855
  H     -1.102209   -3.452057    1.577279
  H      0.810311   -1.639794    2.838124
  H      0.188736    0.017875    2.729492
  H      1.825769   -0.374129    2.152032
  H      0.670840   -2.436803   -0.777592
  H      2.099459   -1.877533    0.107268
  H      1.030788   -3.083883    0.833141
  H      0.895624   -0.157071   -0.915550
  H      4.544185    0.181260   -3.053995
  H      5.212633   -0.725452   -1.702751
  H      5.966326    0.816757   -2.183500

 Total Charge           Charge          ....    1
 Multiplicity           Mult            ....    1
 Number of Electrons    NEL             ....  192
 Basis Dimension        Dim             ....  649

ORBITAL ENERGIES
----------------

  NO   OCC          E(Eh)            E(eV)
   0   2.0000     -19.102698      -519.8108
   1   2.0000     -19.024574      -517.6850
   2   2.0000     -19.020670      -517.5787
   3   2.0000     -19.013732      -517.3899
   4   2.0000     -18.962007      -515.9824
   5   2.0000     -18.956471      -515.8318
   6   2.0000     -14.316947      -389.5839
   7   2.0000     -14.246016      -387.6538
   8   2.0000     -14.231991      -387.2722
   9   2.0000     -14.228562      -387.1789
  10   2.0000     -14.201326      -386.4377
  11   2.0000     -10.230104      -278.3753
  12   2.0000     -10.200038      -277.5572
  13   2.0000     -10.183769      -277.1144
  14   2.0000     -10.181912      -277.0639
  15   2.0000     -10.181252      -277.0459
  16   2.0000     -10.166742      -276.6511
  17   2.0000     -10.151394      -276.2335
  18   2.0000     -10.141217      -275.9566
  19   2.0000     -10.134550      -275.7751
  20   2.0000     -10.085453      -274.4391
  21   2.0000     -10.069931      -274.0168
  22   2.0000     -10.057852      -273.6881
  23   2.0000     -10.044911      -273.3359
  24   2.0000     -10.044780      -273.3324
  25   2.0000     -10.037639      -273.1380
  26   2.0000      -1.193120       -32.4665
  27   2.0000      -1.116592       -30.3840
  28   2.0000      -1.098635       -29.8954
  29   2.0000      -1.086632       -29.5688
  30   2.0000      -1.042542       -28.3690
  31   2.0000      -1.019698       -27.7474
  32   2.0000      -1.013294       -27.5731
  33   2.0000      -1.005186       -27.3525
  34   2.0000      -0.968784       -26.3620
  35   2.0000      -0.917271       -24.9602
  36   2.0000      -0.864751       -23.5311
  37   2.0000      -0.824248       -22.4289
  38   2.0000      -0.769309       -20.9340
  39   2.0000      -0.746309       -20.3081
  40   2.0000      -0.737092       -20.0573
  41   2.0000      -0.724964       -19.7273
  42   2.0000      -0.712787       -19.3959
  43   2.0000      -0.696892       -18.9634
  44   2.0000      -0.688039       -18.7225
  45   2.0000      -0.645655       -17.5692
  46   2.0000      -0.639214       -17.3939
  47   2.0000      -0.629684       -17.1346
  48   2.0000      -0.624638       -16.9973
  49   2.0000      -0.598933       -16.2978
  50   2.0000      -0.593436       -16.1482
  51   2.0000      -0.567140       -15.4327
  52   2.0000      -0.555978       -15.1289
  53   2.0000      -0.550389       -14.9769
  54   2.0000      -0.527763       -14.3612
  55   2.0000      -0.527601       -14.3568
  56   2.0000      -0.515640       -14.0313
  57   2.0000      -0.496171       -13.5015
  58   2.0000      -0.492643       -13.4055
  59   2.0000      -0.483598       -13.1594
  60   2.0000      -0.472823       -12.8662
  61   2.0000      -0.466774       -12.7016
  62   2.0000      -0.465410       -12.6644
  63   2.0000      -0.454411       -12.3652
  64   2.0000      -0.441461       -12.0128
  65   2.0000      -0.433829       -11.8051
  66   2.0000      -0.430270       -11.7082
  67   2.0000      -0.429350       -11.6832
  68   2.0000      -0.410277       -11.1642
  69   2.0000      -0.405267       -11.0279
  70   2.0000      -0.403449       -10.9784
  71   2.0000      -0.397074       -10.8049
  72   2.0000      -0.394895       -10.7456
  73   2.0000      -0.390301       -10.6206
  74   2.0000      -0.388891       -10.5823
  75   2.0000      -0.385494       -10.4898
  76   2.0000      -0.382648       -10.4124
  77   2.0000      -0.378474       -10.2988
  78   2.0000      -0.377145       -10.2626
  79   2.0000      -0.372191       -10.1278
  80   2.0000      -0.367972       -10.0130
  81   2.0000      -0.356294        -9.6953
  82   2.0000      -0.355263        -9.6672
  83   2.0000      -0.351388        -9.5618
  84   2.0000      -0.346769        -9.4361
  85   2.0000      -0.339479        -9.2377
  86   2.0000      -0.327149        -8.9022
  87   2.0000      -0.324412        -8.8277
  88   2.0000      -0.317519        -8.6401
  89   2.0000      -0.294833        -8.0228
  90   2.0000      -0.292009        -7.9460
  91   2.0000      -0.288167        -7.8414
  92   2.0000      -0.280681        -7.6377
  93   2.0000      -0.277804        -7.5594
  94   2.0000      -0.262098        -7.1321
  95   2.0000      -0.248710        -6.7678
  96   0.0000      -0.162406        -4.4193
  97   0.0000      -0.121552        -3.3076
  98   0.0000      -0.055164        -1.5011
  99   0.0000      -0.046005        -1.2519
 100   0.0000      -0.004303        -0.1171

MULLIKEN ATOMIC CHARGES
-----------------------
   0 C :   -0.305340
   1 O :   -0.147966
   2 C :    0.009144
   3 O :   -0.373020
   4 C :    0.149276
   5 C :    0.684044
   6 O :   -0.362997
   7 C :    0.018060
   8 O :   -0.431935
   9 N :    0.241361
  10 C :   -0.435127
  11 C :   -0.094527
  12 C :   -0.451700
  13 C :    0.176114
  14 C :   -0.515423
  15 C :   -0.565978
  16 N :   -0.382469
  17 C :   -0.100135
  18 O :   -0.285156
  19 C :    0.429801
  20 N :   -0.071343
  21 N :   -0.248223
  22 C :    0.437442
  23 C :   -0.620048
  24 O :   -0.044911
  25 N :   -0.209620
  26 H :    0.183446
  27 H :    0.184046
  28 H :    0.183947
  29 H :    0.366191
  30 H :    0.199048
  31 H :    0.197629
  32 H :    0.196150
  33 H :    0.202801
  34 H :    0.208316
  35 H :    0.210658
  36 H :    0.214541
  37 H :    0.225381
  38 H :    0.211451
  39 H :    0.209649
  40 H :    0.201504
  41 H :    0.216049
  42 H :    0.444258
  43 H :    0.214520
  44 H :    0.215695
  45 H :    0.215395
Sum of atomic charges:    1.0000000

LOEWDIN ATOMIC CHARGES
----------------------
   0 C :   -0.026814
   1 O :   -0.553174
   2 C :    0.391694
   3 O :   -0.375915
   4 C :    0.288261
   5 C :    0.376007
   6 O :   -0.413482
   7 C :    0.385906
   8 O :   -0.435546
   9 N :   -0.700298
  10 C :   -0.078659
  11 C :    0.252976
  12 C :   -0.309634
  13 C :    0.131778
  14 C :   -0.324145
  15 C :   -0.329476
  16 N :   -0.595782
  17 C :    0.440798
  18 O :   -0.289010
  19 C :    0.391249
  20 N :   -0.268898
  21 N :   -0.305179
  22 C :    0.420962
  23 C :   -0.304834
  24 O :   -0.389732
  25 N :   -0.497654
  26 H :    0.188053
  27 H :    0.190444
  28 H :    0.187308
  29 H :    0.314649
  30 H :    0.211200
  31 H :    0.196789
  32 H :    0.195898
  33 H :    0.188386
  34 H :    0.188701
  35 H :    0.182085
  36 H :    0.192046
  37 H :    0.194977
  38 H :    0.187921
  39 H :    0.188980
  40 H :    0.182440
  41 H :    0.191161
  42 H :    0.334544
  43 H :    0.202009
  44 H :    0.202719
  45 H :    0.198292

  Mayer bond orders larger than 0.100000
B(  0-C ,  1-O ) :   0.8228 B(  0-C , 26-H ) :   0.9522 B(  0-C , 27-H ) :   0.9608
B(  0-C , 28-H ) :   0.9494 B(  1-O ,  2-C ) :   1.1789 B(  2-C ,  3-O ) :   1.9374
B(  2-C ,  4-C ) :   0.9496 B(  2-C , 25-N ) :   0.1630 B(  4-C ,  5-C ) :   0.7475
B(  4-C ,  7-C ) :   0.2019 B(  4-C , 25-N ) :   1.7972 B(  5-C ,  6-O ) :   1.0784
B(  5-C ,  7-C ) :   0.6071 B(  5-C , 16-N ) :   0.8553 B(  6-O , 29-H ) :   0.8136
B(  7-C ,  8-O ) :   1.9537 B(  7-C ,  9-N ) :   1.3178 B(  9-N , 10-C ) :   0.8737
B(  9-N , 11-C ) :   1.1426 B(  9-N , 13-C ) :  -0.1112 B( 10-C , 30-H ) :   0.9432
B( 10-C , 31-H ) :   0.9311 B( 10-C , 32-H ) :   0.9380 B( 11-C , 12-C ) :   0.9809
B( 11-C , 13-C ) :   0.6301 B( 11-C , 16-N ) :  -0.1043 B( 11-C , 25-N ) :   0.7382
B( 12-C , 33-H ) :   0.9238 B( 12-C , 34-H ) :   0.9647 B( 12-C , 35-H ) :   0.9593
B( 13-C , 14-C ) :   0.9392 B( 13-C , 15-C ) :   0.9579 B( 13-C , 16-N ) :   1.0358
B( 14-C , 17-C ) :   0.1447 B( 14-C , 36-H ) :   0.9245 B( 14-C , 37-H ) :   0.9328
B( 14-C , 38-H ) :   0.9358 B( 15-C , 39-H ) :   0.9472 B( 15-C , 40-H ) :   0.9515
B( 15-C , 41-H ) :   0.9341 B( 16-N , 17-C ) :   0.5785 B( 16-N , 19-C ) :   0.1355
B( 16-N , 42-H ) :   0.7824 B( 17-C , 18-O ) :   1.9178 B( 17-C , 19-C ) :   0.8919
B( 17-C , 21-N ) :   0.1172 B( 17-C , 38-H ) :   0.1039 B( 19-C , 20-N ) :   1.6187
B( 19-C , 22-C ) :   0.1433 B( 19-C , 24-O ) :   1.0732 B( 20-N , 21-N ) :   1.2774
B( 21-N , 22-C ) :   1.4648 B( 22-C , 23-C ) :   0.8423 B( 22-C , 24-O ) :   1.0921
B( 23-C , 43-H ) :   0.9332 B( 23-C , 44-H ) :   0.9294 B( 23-C , 45-H ) :   0.9794

Dispersion correction           -0.024016176
FINAL SINGLE POINT ENERGY     -1308.327191648423

DIPOLE MOMENT
-------------
                                X             Y             Z
Electronic contribution:      1.12508      16.06563      -2.95341
Nuclear contribution   :      1.20356     -20.35547       1.00799
                        -----------------------------------------
Total Dipole Moment    :      2.32864      -4.28984      -1.94541
                        -----------------------------------------
Magnitude (a.u.)       :      5.25452
Magnitude (Debye)      :     13.35592

Rotational constants in cm-1:     0.009640     0.006243     0.004939
Rotational constants in MHz :   289.001494   187.161639   148.066691

                             ****ORCA TERMINATED NORMALLY****
TOTAL RUN TIME: 0 days 0 hours 2 minutes 4 seconds 316 msec
