   * xtb version 6.5.1 (579679a) compiled by 'ehlert@majestix' on 2022-07-11
          program call               : /lustre/hpc/kemi/ree/PhD/git/ReactivityQM/dep/xtb-6.5.1/bin/xtb --gfn 1 /lustre/hpc/kemi/ree/PhD/git/ReactivityQM/calculations/R03/reac02prodN10/conf06/R03_reac02prodN10_conf06_gfn1.xyz --opt --vfukui --chrg 1 --uhf 0 --alpb DMSO

   ID    Z sym.   atoms
    1    6 C      1, 3, 5, 6, 8, 11-16, 18, 20, 23, 24
    2    8 O      2, 4, 7, 9, 19, 25
    3    7 N      10, 17, 21, 22, 26
    4    1 H      27-46

      * Solvation model:               ALPB
        Solvent                        DMSO
        Solvent mass                       7.8130E+01 g/mol
          :  Hamiltonian                  GFN1-xTB          :
 * total energy  :   -86.2686839 Eh     change       -0.2432841E-08 Eh
 * total energy  :   -86.2865694 Eh     change       -0.1788550E-01 Eh
 * total energy  :   -86.2937058 Eh     change       -0.7136383E-02 Eh
 * total energy  :   -86.2950851 Eh     change       -0.1379295E-02 Eh
 * total energy  :   -86.2959211 Eh     change       -0.8360048E-03 Eh
 * total energy  :   -86.2963477 Eh     change       -0.4265705E-03 Eh
 * total energy  :   -86.2968246 Eh     change       -0.4769528E-03 Eh
 * total energy  :   -86.2972362 Eh     change       -0.4115493E-03 Eh
 * total energy  :   -86.2975512 Eh     change       -0.3150331E-03 Eh
 * total energy  :   -86.2978214 Eh     change       -0.2701335E-03 Eh
 * total energy  :   -86.3375154 Eh     change       -0.9957010E-05 Eh
 * total energy  :   -86.3375257 Eh     change       -0.1032719E-04 Eh
 * total energy  :   -86.3375337 Eh     change       -0.7999956E-05 Eh
 * total energy  :   -86.3375441 Eh     change       -0.1032420E-04 Eh
 * total energy  :   -86.3375561 Eh     change       -0.1203984E-04 Eh
 * total energy  :   -86.3375680 Eh     change       -0.1186792E-04 Eh
 * total energy  :   -86.3375804 Eh     change       -0.1246657E-04 Eh
 * total energy  :   -86.3375939 Eh     change       -0.1344804E-04 Eh
 * total energy  :   -86.3375972 Eh     change       -0.3330847E-05 Eh
   *** GEOMETRY OPTIMIZATION CONVERGED AFTER 152 ITERATIONS ***

 final structure:
================
46
 xtb: 6.5.1 (579679a)
C           -3.05196893393172        4.31226015368696        0.48654136226578
O           -2.44712036208935        3.05029233774800        0.16609387074460
C           -2.45948172448382        2.12622997774623        1.10330528044571
O           -2.94448563801675        2.25541532964826        2.19717558908304
C           -1.80159584398067        0.83584653008599        0.66544801538092
C           -1.01181012239082        0.61842185265840       -0.59545401077745
O           -0.80859879483877        1.64785326638937       -1.44721833287819
C           -1.59211322083665       -0.61843356295828       -1.31065436292823
O           -1.85296575364166       -0.57816002313859       -2.49437740310190
N           -1.72391176989619       -1.63193361964787       -0.45624494686374
C           -2.22633903895336       -2.92570921915480       -0.92097281344317
C           -1.27484970673915       -1.39261417896892        0.91602698993115
C           -1.62987911300705       -2.54151875187276        1.84702403132485
C            0.25279110216576       -1.07379092449785        0.85278378183238
C            0.80180880845280       -0.73408578906493        2.23474476053308
C            1.06225305300054       -2.19348275036513        0.20817159019847
N            0.37130814270696        0.11980326043263       -0.08459653118926
C            1.08493843446194        1.32709779988803        0.50558875655929
O            0.52049861432580        2.02014289320812        1.28865351877455
C            2.41290999246496        1.45553755507831       -0.02531317542468
N            3.29401371336854        2.39151757176076        0.22158476691109
N            4.38278983084187        2.10301084791616       -0.49590100637573
C            4.13383846933317        0.99844190687668       -1.15626666133326
C            5.02596936423654        0.27995499388350       -2.08105616679521
O            2.90539503299280        0.54452192584018       -0.89651620814367
N           -1.92142199812353       -0.18689167480486        1.41055508772143
H           -2.58571385673304        4.73045994187087        1.38128087274020
H           -2.88436589766192        4.95852534781212       -0.37201209318107
H           -4.12120669411782        4.17489051189548        0.66034691356138
H           -0.94120892330940        1.34309483574099       -2.36542112216719
H           -2.36430957155232       -2.84241337277132       -1.99793637980903
H           -1.49907022047825       -3.70397633535983       -0.70156732516073
H           -3.17633984459105       -3.15342818966025       -0.43876580118894
H           -1.36941124282608       -2.26551236836926        2.86683761885385
H           -2.70281120722981       -2.72053743311251        1.80485490301851
H           -1.10220940238122       -3.45205685088251        1.57727897252433
H            0.81031114121097       -1.63979361360743        2.83812422610618
H            0.18873646367411        0.01787462764386        2.72949246822085
H            1.82576933527321       -0.37412925897022        2.15203152066727
H            0.67084003398922       -2.43680338548507       -0.77759229163734
H            2.09945937872719       -1.87753331985327        0.10726828875308
H            1.03078837505894       -3.08388286926402        0.83314117445539
H            0.89562415485987       -0.15707125123032       -0.91555026590751
H            4.54418518451818        0.18126004849949       -3.05399520277817
H            5.21263327738455       -0.72545182461511       -1.70275094196697
H            5.96632597876427        0.81675705134043       -2.18350031756566

          :  Hamiltonian                  GFN1-xTB          :
         :: total energy             -86.337597215715 Eh    ::
         :: gradient norm              0.000444244295 Eh/a0 ::
         :: HOMO-LUMO gap              2.093399247405 eV    ::
         :: SCC energy               -87.140917970653 Eh    ::
         :: -> Gsolv                  -0.118246689973 Eh    ::
         :: repulsion energy           0.837413479445 Eh    ::

    * Orbital Energies and Occupations

         #    Occupation            Energy/Eh            Energy/eV
      -------------------------------------------------------------
         1        2.0000           -0.9086173             -24.7247
       ...           ...                  ...                  ...
        58        2.0000           -0.5363643             -14.5952
        59        2.0000           -0.5326824             -14.4950
        60        2.0000           -0.5294543             -14.4072
        61        2.0000           -0.5283422             -14.3769
        62        2.0000           -0.5211615             -14.1815
        63        2.0000           -0.5193506             -14.1323
        64        2.0000           -0.5139515             -13.9853
        65        2.0000           -0.5081854             -13.8284
        66        2.0000           -0.4953117             -13.4781
        67        2.0000           -0.4933854             -13.4257
        68        2.0000           -0.4896963             -13.3253
        69        2.0000           -0.4788310             -13.0297
        70        2.0000           -0.4650270             -12.6540 (HOMO)
        71                         -0.3880960             -10.5606 (LUMO)
        72                         -0.3589046              -9.7663
        73                         -0.2946264              -8.0172
        74                         -0.2892386              -7.8706
        75                         -0.2595730              -7.0633
        76                         -0.2462025              -6.6995
        77                         -0.1647057              -4.4819
        78                         -0.1585263              -4.3137
        79                         -0.1559237              -4.2429
        80                         -0.1487859              -4.0487
        81                         -0.1481549              -4.0315
       ...                                ...                  ...
       144                          0.7331200              19.9492
      -------------------------------------------------------------
                  HL-Gap            0.0769310 Eh            2.0934 eV

Wiberg/Mayer (AO) data.
largest (>0.10) Wiberg bond orders for each atom

     #   Z sym  total        # sym  WBO       # sym  WBO       # sym  WBO
 ---------------------------------------------------------------------------
     1   6 C    3.854 --    28 H    0.985    27 H    0.978    29 H    0.978
                             2 O    0.880
     2   8 O    2.233 --     3 C    1.155     1 C    0.880     4 O    0.149
     3   6 C    3.860 --     4 O    1.684     2 O    1.155     5 C    0.948
     4   8 O    1.953 --     3 C    1.684     2 O    0.149
     5   6 C    3.955 --    26 N    1.838     6 C    0.969     3 C    0.948
     6   6 C    3.864 --     7 O    1.061     5 C    0.969     8 C    0.885
                            17 N    0.794
     7   8 O    1.961 --     6 C    1.061    30 H    0.795
     8   6 C    3.924 --     9 O    1.610    10 N    1.302     6 C    0.885
     9   8 O    1.956 --     8 C    1.610    10 N    0.184
    10   7 N    3.398 --     8 C    1.302    12 C    0.924    11 C    0.912
                             9 O    0.184
    11   6 C    3.911 --    32 H    0.981    33 H    0.979    31 H    0.976
                            10 N    0.912
    12   6 C    3.924 --    13 C    0.999    26 N    0.975    14 C    0.925
                            10 N    0.924
    13   6 C    3.983 --    12 C    0.999    36 H    0.981    34 H    0.978
                            35 H    0.978
    14   6 C    3.875 --    15 C    1.002    16 C    1.002    12 C    0.925
                            17 N    0.849
    15   6 C    3.981 --    14 C    1.002    38 H    0.977    39 H    0.977
                            37 H    0.975
    16   6 C    3.981 --    14 C    1.002    40 H    0.978    41 H    0.977
                            42 H    0.973
    17   7 N    3.570 --    43 H    0.871    14 C    0.849    18 C    0.838
                             6 C    0.794
    18   6 C    3.874 --    19 O    1.788    20 C    1.097    17 N    0.838
    19   8 O    2.068 --    18 C    1.788
    20   6 C    3.882 --    21 N    1.521    18 C    1.097    25 O    1.033
    21   7 N    3.021 --    20 C    1.521    22 N    1.291
    22   7 N    2.993 --    23 C    1.514    21 N    1.291
    23   6 C    3.847 --    22 N    1.514    25 O    1.098    24 C    1.044
    24   6 C    3.976 --    23 C    1.044    46 H    0.979    44 H    0.951
                            45 H    0.950
    25   8 O    2.338 --    23 C    1.098    20 C    1.033
    26   7 N    3.040 --     5 C    1.838    12 C    0.975
    27   1 H    1.004 --     1 C    0.978
    28   1 H    1.008 --     1 C    0.985
    29   1 H    1.003 --     1 C    0.978
    30   1 H    0.836 --     7 O    0.795
    31   1 H    0.999 --    11 C    0.976
    32   1 H    1.000 --    11 C    0.981
    33   1 H    0.999 --    11 C    0.979
    34   1 H    1.000 --    13 C    0.978
    35   1 H    0.997 --    13 C    0.978
    36   1 H    0.997 --    13 C    0.981
    37   1 H    0.996 --    15 C    0.975
    38   1 H    1.001 --    15 C    0.977
    39   1 H    0.996 --    15 C    0.977
    40   1 H    0.993 --    16 C    0.978
    41   1 H    0.997 --    16 C    0.977
    42   1 H    0.994 --    16 C    0.973
    43   1 H    0.926 --    17 N    0.871
    44   1 H    0.989 --    24 C    0.951
    45   1 H    0.990 --    24 C    0.950
    46   1 H    0.994 --    24 C    0.979
 ---------------------------------------------------------------------------

           -------------------------------------------------
          | TOTAL ENERGY              -86.337597215715 Eh   |
          | GRADIENT NORM               0.000444244295 Eh/α |
          | HOMO-LUMO GAP               2.093399247405 eV   |
           -------------------------------------------------

 * finished run on 2023/06/20 at 15:45:19.644
