   * xtb version 6.5.1 (579679a) compiled by 'ehlert@majestix' on 2022-07-11
          program call               : /lustre/hpc/kemi/ree/PhD/git/ReactivityQM/dep/xtb-6.5.1/bin/xtb --gfn 1 /lustre/hpc/kemi/ree/PhD/git/ReactivityQM/calculations/R02methylcation/reac01prodN17/conf18/R02methylcation_reac01prodN17_conf18_gfn1.xyz --opt --vfukui --chrg 0 --uhf 0 --alpb DMSO

   ID    Z sym.   atoms
    1    6 C      1, 3, 5, 7-10, 12, 13, 15, 18, 19, 22, 24
    2    8 O      2, 4, 14, 20, 23, 25
    3    7 N      6, 11, 16, 17, 21
    4    1 H      26-42

      * Solvation model:               ALPB
        Solvent                        DMSO
        Solvent mass                       7.8130E+01 g/mol
          :  Hamiltonian                  GFN1-xTB          :
 * total energy  :   -82.9325225 Eh     change       -0.7442651E-09 Eh
 * total energy  :   -82.9467487 Eh     change       -0.1422622E-01 Eh
 * total energy  :   -82.9524728 Eh     change       -0.5724037E-02 Eh
 * total energy  :   -82.9536361 Eh     change       -0.1163308E-02 Eh
 * total energy  :   -82.9542951 Eh     change       -0.6590499E-03 Eh
 * total energy  :   -82.9546643 Eh     change       -0.3692031E-03 Eh
 * total energy  :   -82.9549568 Eh     change       -0.2925017E-03 Eh
 * total energy  :   -82.9552321 Eh     change       -0.2752793E-03 Eh
 * total energy  :   -82.9555204 Eh     change       -0.2882652E-03 Eh
 * total energy  :   -82.9558345 Eh     change       -0.3141521E-03 Eh
 * total energy  :   -82.9588733 Eh     change       -0.1625652E-04 Eh
 * total energy  :   -82.9588874 Eh     change       -0.1413018E-04 Eh
 * total energy  :   -82.9589001 Eh     change       -0.1275273E-04 Eh
 * total energy  :   -82.9589188 Eh     change       -0.1861036E-04 Eh
 * total energy  :   -82.9589462 Eh     change       -0.2741848E-04 Eh
 * total energy  :   -82.9589756 Eh     change       -0.2944412E-04 Eh
 * total energy  :   -82.9589947 Eh     change       -0.1907119E-04 Eh
 * total energy  :   -82.9590032 Eh     change       -0.8463442E-05 Eh
 * total energy  :   -82.9590080 Eh     change       -0.4864536E-05 Eh
   *** GEOMETRY OPTIMIZATION CONVERGED AFTER 33 ITERATIONS ***

 final structure:
================
42
 xtb: 6.5.1 (579679a)
C            3.93782179868484        2.23959111319453       -2.92681288151046
O            3.87404175858860        1.22424917967574       -1.93066843279420
C            2.67980699941809        1.06319679702447       -1.32637083911306
O            1.71394083317216        1.75440201858691       -1.62485332084772
C            2.64290608327634        0.01766940698429       -0.31042702432780
N            1.38684296635655       -0.12343346893208        0.23984978914030
C            1.15927045506658       -0.97937205874965        1.17013287856315
C           -0.27440270330227       -1.09889630960185        1.64513368705787
C           -0.44032173451622       -1.43968836119700        3.11824615935342
C           -1.00522213648777       -2.11145458159631        0.75799449629762
N           -0.82788496706769        0.28542375100873        1.32877579057541
C           -0.45600550113322        1.33138437366412        2.31157350176567
C           -2.30418149601171        0.30635439810735        1.13313827384411
O           -3.03453253815069        0.21568440223302        2.07348162188396
C           -2.62584311294906        0.47258012925390       -0.26387109592775
N           -1.75873165570122        0.56164842886260       -1.24102090014443
N           -2.45907945858943        0.70503248026597       -2.37417898334888
C           -3.72624782867865        0.69881733428629       -2.04233542847568
C           -4.88978322491716        0.82840731906796       -2.93876759252242
O           -3.88781707982423        0.55419628924399       -0.72695263731961
N            2.13112597142820       -1.80947404177461        1.65962714653600
C            3.43548519793135       -1.78422924125309        1.20451226863026
O            4.25734679518553       -2.54655093002191        1.69190649654549
C            3.74017991218580       -0.78271623028540        0.10568134495421
O            4.89503178421691       -0.72852052183961       -0.33977658641528
H            4.95093103210384        2.22901268762726       -3.32722060811931
H            3.71841330605627        3.21877518397382       -2.49069629693828
H            3.21807255529831        2.03867832092736       -3.72615043489184
H           -0.20287835770356       -2.49180938911956        3.26535072101737
H            0.22128951783555       -0.84330140767300        3.74272224282064
H           -1.47208554920793       -1.27573959171767        3.42487825376762
H           -0.51487405767882       -3.07818661824047        0.85830964677240
H           -2.04568115498276       -2.21420914559232        1.06001526939653
H           -0.95891478830822       -1.79999229920503       -0.28472622533406
H           -0.32203272099584        0.51562950226422        0.43112761847469
H           -0.71887644161257        2.29563281375802        1.88231503923863
H           -1.00697970429631        1.16944028466702        3.23294970955231
H            0.61625729562641        1.26919837818476        2.47801397625681
H           -4.55402243487921        0.91943390750890       -3.96877160643973
H           -5.53366555654916       -0.04497793667017       -2.83510329942760
H           -5.47334979903223        1.70652434857070       -2.66178725810245
H            1.91464974013298       -2.46840871547909        2.38788451954862

          :  Hamiltonian                  GFN1-xTB          :
         :: total energy             -82.959008022128 Eh    ::
         :: gradient norm              0.000566531752 Eh/a0 ::
         :: HOMO-LUMO gap              0.269513180310 eV    ::
         :: SCC energy               -83.731758171707 Eh    ::
         :: -> Gsolv                  -0.088679700615 Eh    ::
         :: repulsion energy           0.801011838536 Eh    ::

    * Orbital Energies and Occupations

         #    Occupation            Energy/Eh            Energy/eV
      -------------------------------------------------------------
         1        2.0000           -0.8956827             -24.3728
       ...           ...                  ...                  ...
        55        2.0000           -0.5144133             -13.9979
        56        2.0000           -0.5109258             -13.9030
        57        2.0000           -0.5049708             -13.7410
        58        2.0000           -0.4975650             -13.5394
        59        2.0000           -0.4862376             -13.2312
        60        2.0000           -0.4832528             -13.1500
        61        2.0000           -0.4760957             -12.9552
        62        2.0000           -0.4756818             -12.9440
        63        2.0000           -0.4625023             -12.5853
        64        2.0000           -0.4520713             -12.3015
        65        2.0000           -0.4439088             -12.0794
        66        2.0000           -0.3978118             -10.8250
        67        1.9892           -0.3847347             -10.4692 (HOMO)
        68        0.0108           -0.3748303             -10.1997 (LUMO)
        69                         -0.2866951              -7.8014
        70                         -0.2850551              -7.7567
        71                         -0.2662169              -7.2441
        72                         -0.2500533              -6.8043
        73                         -0.2131048              -5.7989
        74                         -0.1631817              -4.4404
        75                         -0.1539460              -4.1891
        76                         -0.1490926              -4.0570
        77                         -0.1369742              -3.7273
        78                         -0.1279157              -3.4808
       ...                                ...                  ...
       134                          0.7522196              20.4689
      -------------------------------------------------------------
                  HL-Gap            0.0099044 Eh            0.2695 eV

Wiberg/Mayer (AO) data.
largest (>0.10) Wiberg bond orders for each atom

     #   Z sym  total        # sym  WBO       # sym  WBO       # sym  WBO
 ---------------------------------------------------------------------------
     1   6 C    3.891 --    26 H    0.987    28 H    0.981    27 H    0.980
                             2 O    0.917
     2   8 O    2.173 --     3 C    1.069     1 C    0.917     4 O    0.114
     3   6 C    3.853 --     4 O    1.581     5 C    1.097     2 O    1.069
     4   8 O    1.856 --     3 C    1.581     2 O    0.114
     5   6 C    3.899 --    24 C    1.257     6 N    1.158     3 C    1.097
                            25 O    0.123
     6   7 N    3.100 --     7 C    1.591     5 C    1.158
     7   6 C    3.935 --     6 N    1.591    21 N    1.124     8 C    0.975
     8   6 C    3.889 --     9 C    1.005    10 C    0.988     7 C    0.975
                            11 N    0.844
     9   6 C    3.985 --     8 C    1.005    30 H    0.982    31 H    0.977
                            29 H    0.975
    10   6 C    3.985 --     8 C    0.988    34 H    0.982    33 H    0.979
                            32 H    0.978
    11   7 N    3.594 --    12 C    0.905    13 C    0.880     8 C    0.844
                            35 H    0.819
    12   6 C    3.894 --    36 H    0.982    37 H    0.982    38 H    0.980
                            11 N    0.905
    13   6 C    3.874 --    14 O    1.768    15 C    1.080    11 N    0.880
    14   8 O    2.035 --    13 C    1.768
    15   6 C    3.886 --    16 N    1.521    13 C    1.080    20 O    1.054
    16   7 N    3.037 --    15 C    1.521    17 N    1.275
    17   7 N    2.989 --    18 C    1.526    16 N    1.275
    18   6 C    3.851 --    17 N    1.526    20 O    1.109    19 C    1.040
    19   6 C    3.979 --    18 C    1.040    39 H    0.980    40 H    0.955
                            41 H    0.954
    20   8 O    2.347 --    18 C    1.109    15 C    1.054
    21   7 N    3.424 --    22 C    1.131     7 C    1.124    42 H    0.890
                            23 O    0.131
    22   6 C    3.870 --    23 O    1.611    21 N    1.131    24 C    0.959
    23   8 O    1.886 --    22 C    1.611    21 N    0.131
    24   6 C    3.938 --    25 O    1.545     5 C    1.257    22 C    0.959
    25   8 O    1.841 --    24 C    1.545     5 C    0.123
    26   1 H    1.014 --     1 C    0.987
    27   1 H    1.012 --     1 C    0.980
    28   1 H    1.012 --     1 C    0.981
    29   1 H    0.996 --     9 C    0.975
    30   1 H    0.997 --     9 C    0.982
    31   1 H    1.000 --     9 C    0.977
    32   1 H    0.997 --    10 C    0.978
    33   1 H    0.996 --    10 C    0.979
    34   1 H    1.005 --    10 C    0.982
    35   1 H    0.980 --    11 N    0.819
    36   1 H    0.991 --    12 C    0.982
    37   1 H    0.998 --    12 C    0.982
    38   1 H    0.998 --    12 C    0.980
    39   1 H    0.995 --    19 C    0.980
    40   1 H    0.992 --    19 C    0.955
    41   1 H    0.992 --    19 C    0.954
    42   1 H    0.935 --    21 N    0.890
 ---------------------------------------------------------------------------

           -------------------------------------------------
          | TOTAL ENERGY              -82.959008022128 Eh   |
          | GRADIENT NORM               0.000566531752 Eh/α |
          | HOMO-LUMO GAP               0.269513180310 eV   |
           -------------------------------------------------

 * finished run on 2023/06/21 at 18:00:16.267
