   * xtb version 6.5.1 (579679a) compiled by 'ehlert@majestix' on 2022-07-11
          program call               : /lustre/hpc/kemi/ree/PhD/git/ReactivityQM/dep/xtb-6.5.1/bin/xtb --gfn 1 /lustre/hpc/kemi/ree/PhD/git/ReactivityQM/calculations/RaltegravirCLI/reac01prodE01/conf09/RaltegravirCLI_reac01prodE01_conf09_gfn1.xyz --opt --vfukui --chrg -1 --uhf 0 --alpb DMSO

   ID    Z sym.   atoms
    1    6 C      1, 2, 5-7
    2    7 N      3, 4
    3    8 O      8, 10
    4   17 Cl     9
    5    1 H      11-16

      * Solvation model:               ALPB
        Solvent                        DMSO
        Solvent mass                       7.8130E+01 g/mol
          :  Hamiltonian                  GFN1-xTB          :
 * total energy  :   -34.1555293 Eh     change       -0.5094591E-11 Eh
 * total energy  :   -34.1683559 Eh     change       -0.1282665E-01 Eh
 * total energy  :   -34.1786365 Eh     change       -0.1028056E-01 Eh
 * total energy  :   -34.1817353 Eh     change       -0.3098848E-02 Eh
 * total energy  :   -34.1874563 Eh     change       -0.5720941E-02 Eh
 * total energy  :   -34.1921588 Eh     change       -0.4702493E-02 Eh
 * total energy  :   -34.1961645 Eh     change       -0.4005748E-02 Eh
 * total energy  :   -34.1981265 Eh     change       -0.1961993E-02 Eh
 * total energy  :   -34.2004356 Eh     change       -0.2309120E-02 Eh
 * total energy  :   -34.2016682 Eh     change       -0.1232537E-02 Eh
 * total energy  :   -34.2081324 Eh     change       -0.5728655E-04 Eh
 * total energy  :   -34.2081866 Eh     change       -0.5414998E-04 Eh
 * total energy  :   -34.2081687 Eh     change        0.1786218E-04 Eh
 * total energy  :   -34.2082701 Eh     change       -0.1013991E-03 Eh
 * total energy  :   -34.2082931 Eh     change       -0.2298050E-04 Eh
 * total energy  :   -34.2083189 Eh     change       -0.2578311E-04 Eh
 * total energy  :   -34.2083352 Eh     change       -0.1636292E-04 Eh
 * total energy  :   -34.2083476 Eh     change       -0.1234251E-04 Eh
 * total energy  :   -34.2083512 Eh     change       -0.3632378E-05 Eh
   *** GEOMETRY OPTIMIZATION CONVERGED AFTER 44 ITERATIONS ***

 final structure:
================
16
 xtb: 6.5.1 (579679a)
C            3.23223978651913       -0.28237688814236        0.08676904428602
C            1.77234878286091       -0.30049375485829       -0.14754038188609
N            1.15445515916152       -0.57561441789456       -1.25823261182423
N           -0.17285930459854       -0.47171621546502       -0.99908361653611
C           -0.29196811626201       -0.13801635298535        0.25307315871833
C           -1.55117398760579        0.09185651338079        0.99730171086281
C           -2.78566451189828       -0.06384532310501        0.16288773432419
O           -1.55730389141745        0.37653472412304        2.17325615766221
Cl          -2.27462150396893        2.51093080492174       -2.40541099445478
O            0.91938653996097       -0.01814399660939        0.84149387840729
H            3.53294954838287        0.67792533775121        0.50413840939283
H            3.75594701799201       -0.45666155811299       -0.84953793172481
H            3.50320734939637       -1.05810587691048        0.80233223622628
H           -3.67258772584242        0.03477388202308        0.78284974578113
H           -2.78651113347147        0.70599492938143       -0.61253609976493
H           -2.77784500921174       -1.03304280750662       -0.33176143949767

          :  Hamiltonian                  GFN1-xTB          :
         :: total energy             -34.208351221176 Eh    ::
         :: gradient norm              0.000523351974 Eh/a0 ::
         :: HOMO-LUMO gap              3.356204617405 eV    ::
         :: SCC energy               -34.493030925952 Eh    ::
         :: -> Gsolv                  -0.110895803709 Eh    ::
         :: repulsion energy           0.291502095233 Eh    ::

    * Orbital Energies and Occupations

         #    Occupation            Energy/Eh            Energy/eV
      -------------------------------------------------------------
         1        2.0000           -0.8606392             -23.4192
       ...           ...                  ...                  ...
        16        2.0000           -0.5453605             -14.8400
        17        2.0000           -0.5412210             -14.7274
        18        2.0000           -0.5320201             -14.4770
        19        2.0000           -0.5214480             -14.1893
        20        2.0000           -0.5164796             -14.0541
        21        2.0000           -0.5030261             -13.6880
        22        2.0000           -0.4792409             -13.0408
        23        2.0000           -0.4742485             -12.9050
        24        2.0000           -0.4742352             -12.9046
        25        2.0000           -0.4723109             -12.8522
        26        2.0000           -0.4584134             -12.4741
        27        2.0000           -0.4536553             -12.3446
        28        2.0000           -0.4470747             -12.1655 (HOMO)
        29                         -0.3237364              -8.8093 (LUMO)
        30                         -0.2550872              -6.9413
        31                         -0.2092098              -5.6929
        32                         -0.1425478              -3.8789
        33                         -0.1228583              -3.3431
        34                         -0.0746032              -2.0301
        35                         -0.0740116              -2.0140
        36                         -0.0634457              -1.7264
        37                         -0.0477344              -1.2989
        38                          0.0347693               0.9461
        39                          0.0356300               0.9695
       ...                                ...                  ...
        57                          0.7120526              19.3759
      -------------------------------------------------------------
                  HL-Gap            0.1233383 Eh            3.3562 eV

Wiberg/Mayer (AO) data.
largest (>0.10) Wiberg bond orders for each atom

     #   Z sym  total        # sym  WBO       # sym  WBO       # sym  WBO
 ---------------------------------------------------------------------------
     1   6 C    3.987 --     2 C    1.031    12 H    0.983    11 H    0.965
                            13 H    0.961
     2   6 C    3.874 --     3 N    1.585    10 O    1.097     1 C    1.031
     3   7 N    2.983 --     2 C    1.585     4 N    1.220
     4   7 N    3.010 --     5 C    1.597     3 N    1.220
     5   6 C    3.871 --     4 N    1.597    10 O    1.048     6 C    1.012
     6   6 C    3.865 --     8 O    1.746     7 C    1.014     5 C    1.012
     7   6 C    3.990 --     6 C    1.014    14 H    0.983    16 H    0.963
                            15 H    0.940
     8   8 O    1.970 --     6 C    1.746
     9  17 Cl   0.039
    10   8 O    2.330 --     2 C    1.097     5 C    1.048
    11   1 H    0.997 --     1 C    0.965
    12   1 H    0.999 --     1 C    0.983
    13   1 H    0.997 --     1 C    0.961
    14   1 H    1.001 --     7 C    0.983
    15   1 H    1.017 --     7 C    0.940
    16   1 H    1.003 --     7 C    0.963
 ---------------------------------------------------------------------------

           -------------------------------------------------
          | TOTAL ENERGY              -34.208351221176 Eh   |
          | GRADIENT NORM               0.000523351974 Eh/α |
          | HOMO-LUMO GAP               3.356204617405 eV   |
           -------------------------------------------------

 * finished run on 2023/06/20 at 14:52:06.163
