   * xtb version 6.5.1 (579679a) compiled by 'ehlert@majestix' on 2022-07-11
          program call               : /lustre/hpc/kemi/ree/PhD/git/ReactivityQM/dep/xtb-6.5.1/bin/xtb --gfn 1 /lustre/hpc/kemi/ree/PhD/git/ReactivityQM/calculations/R02oxygendeprot/reac01prodE12/conf12/R02oxygendeprot_reac01prodE12_conf12_gfn1.xyz --opt --vfukui --chrg -2 --uhf 0 --alpb DMSO

   ID    Z sym.   atoms
    1    6 C      1, 3, 5, 6, 8, 9, 12-15, 17, 19, 22, 23
    2    8 O      2, 4, 7, 10, 18, 24
    3    7 N      11, 16, 20, 21, 25
    4    1 H      26-42

      * Solvation model:               ALPB
        Solvent                        DMSO
        Solvent mass                       7.8130E+01 g/mol
          :  Hamiltonian                  GFN1-xTB          :
 * total energy  :   -83.5976748 Eh     change       -0.3120107E-08 Eh
 * total energy  :   -83.6135715 Eh     change       -0.1589668E-01 Eh
 * total energy  :   -83.6201032 Eh     change       -0.6531679E-02 Eh
 * total energy  :   -83.6212113 Eh     change       -0.1108155E-02 Eh
 * total energy  :   -83.6217998 Eh     change       -0.5885321E-03 Eh
 * total energy  :   -83.6220497 Eh     change       -0.2498145E-03 Eh
 * total energy  :   -83.6223028 Eh     change       -0.2531520E-03 Eh
 * total energy  :   -83.6225383 Eh     change       -0.2355263E-03 Eh
 * total energy  :   -83.6227854 Eh     change       -0.2470767E-03 Eh
 * total energy  :   -83.6231141 Eh     change       -0.3287049E-03 Eh
 * total energy  :   -83.6472953 Eh     change       -0.2636854E-04 Eh
 * total energy  :   -83.6473138 Eh     change       -0.1850834E-04 Eh
 * total energy  :   -83.6473290 Eh     change       -0.1516017E-04 Eh
 * total energy  :   -83.6473396 Eh     change       -0.1060007E-04 Eh
 * total energy  :   -83.6473481 Eh     change       -0.8461838E-05 Eh
 * total energy  :   -83.6473539 Eh     change       -0.5812620E-05 Eh
 * total energy  :   -83.6473607 Eh     change       -0.6804180E-05 Eh
 * total energy  :   -83.6473596 Eh     change        0.1049442E-05 Eh
 * total energy  :   -83.6473644 Eh     change       -0.4824989E-05 Eh
   *** GEOMETRY OPTIMIZATION CONVERGED AFTER 66 ITERATIONS ***

 final structure:
================
42
 xtb: 6.5.1 (579679a)
C            6.05209160929005        1.73941562737407       -1.52698743471935
O            4.96346488379524        0.88717577421045       -1.23090383866977
C            3.92571152147022        1.47171820971009       -0.53118904659510
O            4.01061549783965        2.66432280467118       -0.21809259578219
C            2.84513959257913        0.59124392921533       -0.22022715062851
C            2.73965959217998       -0.75604277563387       -0.62016677217911
O            3.57535140660600       -1.42571596011840       -1.26079566321670
C            1.41324286329134       -1.45902960976972       -0.17525424935976
C            1.62499040712943       -2.97310378487164       -0.06793491973437
O            0.35299614729825       -1.18543153206905       -1.07844574322664
N            1.08438848081015       -0.92350176512618        1.13813979687200
C            0.91277236937786        0.47700185789828        1.04665184129506
C           -0.45029372768239        0.98619252983715        1.48499024720100
C           -0.53091991576345        2.50445871968791        1.26876716039407
C           -0.72798754461322        0.64854238540815        2.95890056543360
N           -1.33977318584835        0.25215022631704        0.57013881283919
C           -2.63108291176730        0.45974888656224        0.65356350049152
O           -3.28803917694995        1.19883769254021        1.41954973676274
C           -3.36116566357959       -0.35839862775690       -0.38832226417531
N           -2.83198161129814       -1.07930170335023       -1.33130135389759
N           -3.86747678659268       -1.62472572767860       -2.05123505104411
C           -4.95572436216789       -1.19860760409219       -1.50012397222368
C           -6.35005596752568       -1.50027547468352       -1.90427818382779
O           -4.71377678146280       -0.39536931815825       -0.45028979838954
N            1.74963562125140        1.21589553876609        0.43705626873904
H            6.51828251449461        2.12026479142451       -0.61075609233919
H            5.73377881916261        2.59492896099923       -2.13431510940036
H            6.78165122524287        1.15182012872034       -2.08516859791616
H            2.37205642531080       -3.19066602928237        0.69364163010791
H            0.68752143341097       -3.45816534806042        0.19762369484936
H            1.96892981089416       -3.36108867703428       -1.02644578932708
H            0.24394618086991       -1.36745366311433        1.49559217411931
H           -0.36585369182272        2.74345206991948        0.21707374975824
H            0.23968056763586        2.99879355791882        1.86212310130897
H           -1.50569955879887        2.88344469369524        1.57207742194046
H           -1.69640406250768        1.04412773738597        3.26262091244319
H           -0.73242082885866       -0.42986831869956        3.11395164176727
H            0.04411004150900        1.08928157145829        3.59085162843656
H           -0.38556092115207       -0.72607261742218       -0.56119022652198
H           -6.89112134203694       -1.95848881306423       -1.07708276716527
H           -6.86971392738866       -0.58280074759974       -2.17971704974550
H           -6.34496304360145       -2.17947259612456       -2.75309121468300

          :  Hamiltonian                  GFN1-xTB          :
         :: total energy             -83.647364443861 Eh    ::
         :: gradient norm              0.000841741631 Eh/a0 ::
         :: HOMO-LUMO gap              2.347794660336 eV    ::
         :: SCC energy               -84.372488183739 Eh    ::
         :: -> Gsolv                  -0.274436993073 Eh    ::
         :: repulsion energy           0.751582812590 Eh    ::

    * Orbital Energies and Occupations

         #    Occupation            Energy/Eh            Energy/eV
      -------------------------------------------------------------
         1        2.0000           -0.8202215             -22.3194
       ...           ...                  ...                  ...
        56        2.0000           -0.4392510             -11.9526
        57        2.0000           -0.4337816             -11.8038
        58        2.0000           -0.4223602             -11.4930
        59        2.0000           -0.4170729             -11.3491
        60        2.0000           -0.4134169             -11.2496
        61        2.0000           -0.4117276             -11.2037
        62        2.0000           -0.3979288             -10.8282
        63        2.0000           -0.3845568             -10.4643
        64        2.0000           -0.3764553             -10.2439
        65        2.0000           -0.3661846              -9.9644
        66        2.0000           -0.3531518              -9.6098
        67        2.0000           -0.3515213              -9.5654
        68        2.0000           -0.3302221              -8.9858 (HOMO)
        69                         -0.2439423              -6.6380 (LUMO)
        70                         -0.2202944              -5.9945
        71                         -0.2197861              -5.9807
        72                         -0.2017787              -5.4907
        73                         -0.1283608              -3.4929
        74                         -0.1280048              -3.4832
        75                         -0.1144442              -3.1142
        76                         -0.1045551              -2.8451
        77                         -0.0928016              -2.5253
        78                         -0.0875999              -2.3837
        79                         -0.0817131              -2.2235
       ...                                ...                  ...
       134                          0.7568891              20.5960
      -------------------------------------------------------------
                  HL-Gap            0.0862799 Eh            2.3478 eV

Wiberg/Mayer (AO) data.
largest (>0.10) Wiberg bond orders for each atom

     #   Z sym  total        # sym  WBO       # sym  WBO       # sym  WBO
 ---------------------------------------------------------------------------
     1   6 C    3.913 --    28 H    0.987    26 H    0.980    27 H    0.980
                             2 O    0.942
     2   8 O    2.117 --     3 C    0.991     1 C    0.942
     3   6 C    3.853 --     4 O    1.520     5 C    1.211     2 O    0.991
     4   8 O    1.814 --     3 C    1.520
     5   6 C    3.892 --     6 C    1.317     3 C    1.211    25 N    1.045
                             7 O    0.117
     6   6 C    3.923 --     7 O    1.519     5 C    1.317     8 C    0.907
     7   8 O    1.822 --     6 C    1.519     5 C    0.117
     8   6 C    3.892 --     9 C    0.988    10 O    0.950    11 N    0.945
                             6 C    0.907
     9   6 C    3.997 --    29 H    0.989     8 C    0.988    30 H    0.987
                            31 H    0.984
    10   8 O    1.875 --     8 C    0.950    39 H    0.785
    11   7 N    3.126 --    12 C    1.040     8 C    0.945    32 H    0.934
    12   6 C    3.937 --    25 N    1.741    11 N    1.040    13 C    0.970
    13   6 C    3.969 --    14 C    0.990    15 C    0.983    12 C    0.970
                            16 N    0.966
    14   6 C    3.996 --    13 C    0.990    34 H    0.987    33 H    0.986
                            35 H    0.984
    15   6 C    3.994 --    38 H    0.988    37 H    0.983    13 C    0.983
                            36 H    0.982
    16   7 N    3.007 --    17 C    1.481    13 C    0.966    18 O    0.223
                            39 H    0.133
    17   6 C    3.940 --    16 N    1.481    18 O    1.431    19 C    0.955
    18   8 O    1.782 --    17 C    1.431    16 N    0.223
    19   6 C    3.832 --    20 N    1.626    24 O    1.044    17 C    0.955
    20   7 N    2.985 --    19 C    1.626    21 N    1.168
    21   7 N    2.977 --    22 C    1.638    20 N    1.168
    22   6 C    3.886 --    21 N    1.638    24 O    1.076    23 C    1.025
    23   6 C    3.992 --    22 C    1.025    42 H    0.985    40 H    0.970
                            41 H    0.969
    24   8 O    2.302 --    22 C    1.076    19 C    1.044
    25   7 N    3.016 --    12 C    1.741     5 C    1.045
    26   1 H    1.019 --     1 C    0.980
    27   1 H    1.019 --     1 C    0.980
    28   1 H    1.019 --     1 C    0.987
    29   1 H    1.012 --     9 C    0.989
    30   1 H    1.010 --     9 C    0.987
    31   1 H    1.019 --     9 C    0.984
    32   1 H    0.981 --    11 N    0.934
    33   1 H    1.020 --    14 C    0.986
    34   1 H    1.013 --    14 C    0.987
    35   1 H    1.020 --    14 C    0.984
    36   1 H    1.020 --    15 C    0.982
    37   1 H    1.008 --    15 C    0.983
    38   1 H    1.008 --    15 C    0.988
    39   1 H    0.948 --    10 O    0.785    16 N    0.133
    40   1 H    1.001 --    23 C    0.970
    41   1 H    1.001 --    23 C    0.969
    42   1 H    1.003 --    23 C    0.985
 ---------------------------------------------------------------------------

           -------------------------------------------------
          | TOTAL ENERGY              -83.647364443861 Eh   |
          | GRADIENT NORM               0.000841741631 Eh/α |
          | HOMO-LUMO GAP               2.347794660336 eV   |
           -------------------------------------------------

 * finished run on 2023/06/21 at 17:14:29.959
