   * xtb version 6.5.1 (579679a) compiled by 'ehlert@majestix' on 2022-07-11
          program call               : /lustre/hpc/kemi/ree/PhD/git/ReactivityQM/dep/xtb-6.5.1/bin/xtb --gfn 1 /lustre/hpc/kemi/ree/PhD/git/ReactivityQM/calculations/RaltegravirCLI/reac02prodN07/conf16/RaltegravirCLI_reac02prodN07_conf16_gfn1.xyz --opt --vfukui --chrg 1 --uhf 0 --alpb DMSO

   ID    Z sym.   atoms
    1    6 C      1, 3-6, 9-11, 14-18, 20-22, 24
    2    7 N      2, 7, 8, 13
    3    8 O      12, 23, 25
    4    9 F      19
    5    1 H      26-47

      * Solvation model:               ALPB
        Solvent                        DMSO
        Solvent mass                       7.8130E+01 g/mol
          :  Hamiltonian                  GFN1-xTB          :
 * total energy  :   -79.3966085 Eh     change       -0.4540794E-09 Eh
 * total energy  :   -79.4125140 Eh     change       -0.1590543E-01 Eh
 * total energy  :   -79.4191560 Eh     change       -0.6642037E-02 Eh
 * total energy  :   -79.4204743 Eh     change       -0.1318314E-02 Eh
 * total energy  :   -79.4216669 Eh     change       -0.1192581E-02 Eh
 * total energy  :   -79.4222273 Eh     change       -0.5603758E-03 Eh
 * total energy  :   -79.4226779 Eh     change       -0.4506476E-03 Eh
 * total energy  :   -79.4230436 Eh     change       -0.3656481E-03 Eh
 * total energy  :   -79.4232981 Eh     change       -0.2545550E-03 Eh
 * total energy  :   -79.4234810 Eh     change       -0.1828900E-03 Eh
 * total energy  :   -79.5141172 Eh     change       -0.4169391E-04 Eh
 * total energy  :   -79.5141544 Eh     change       -0.3715346E-04 Eh
 * total energy  :   -79.5141795 Eh     change       -0.2511968E-04 Eh
 * total energy  :   -79.5141944 Eh     change       -0.1485919E-04 Eh
 * total energy  :   -79.5142045 Eh     change       -0.1014404E-04 Eh
 * total energy  :   -79.5142131 Eh     change       -0.8537583E-05 Eh
 * total energy  :   -79.5142210 Eh     change       -0.7936118E-05 Eh
 * total energy  :   -79.5142271 Eh     change       -0.6088373E-05 Eh
 * total energy  :   -79.5142319 Eh     change       -0.4791409E-05 Eh
   *** GEOMETRY OPTIMIZATION CONVERGED AFTER 68 ITERATIONS ***

 final structure:
================
47
 xtb: 6.5.1 (579679a)
C           -4.10405672511196       -1.52591203302826       -1.04904474366782
N           -2.70793762127882       -1.20833553274573       -0.71753878219652
C           -2.30575295444231        0.02803082912683       -0.30915050289466
C           -3.25802771839903        1.20139458117976       -0.13529613523400
C           -3.93361637194237        1.07614740611696        1.23948594284896
C           -2.45590341826383        2.51348731924670       -0.18770935624238
N           -4.26887544247903        1.19935014491658       -1.18296831630206
N           -1.05817943179100        0.26817727968260        0.01179546031912
C           -0.15804714039828       -0.72220307559430       -0.08612984015145
C            1.15913792833691        0.82259079544130        1.23148681111325
C            0.57873088660630        0.48650180552229        2.54918604053995
O            1.58140240131301        1.85706519917038        0.84954118778236
N            1.22046072387169       -0.37791824957809        0.28722823241011
C            2.06737818204116       -0.10768669863960       -0.93086099992586
C            3.52281747485252       -0.10514161249625       -0.54913479793848
C            4.15562882336830       -1.31660776602029       -0.27129239638261
C            5.49738476242909       -1.34383087175163        0.07772487415228
C            6.18316201571507       -0.14264308043702        0.13743208236419
F            7.47749007743707       -0.15909868626147        0.47131016833892
C            5.58309151389831        1.07515838425594       -0.13246641471533
C            4.23938931351514        1.08716414816713       -0.47610605069205
C           -0.44923981745165       -1.97011279131089       -0.51977300594471
O            0.49446353094701       -2.92327203214740       -0.61938097388308
C           -1.81964565792069       -2.27309580079185       -0.88075603791708
O           -2.16934148768499       -3.37145560913819       -1.28343329568149
H           -4.23282190962962       -2.60464197472438       -0.96605263401455
H           -4.31500608775247       -1.20484612809332       -2.06765260884702
H           -4.77318793315074       -1.01889514506714       -0.36282195743333
H           -4.54666334117409        0.17861956394560        1.29687454082669
H           -4.56732377719926        1.94493840305259        1.41174687295168
H           -3.17354248716329        1.03221487559569        2.01819597291997
H           -1.74940044530445        2.56302198591453        0.63932151061453
H           -3.14263007472290        3.35532966508553       -0.11988191907365
H           -1.90562375317905        2.57906099379908       -1.12486716819360
H           -3.84156348848249        1.46664398569391       -2.06026906139014
H           -4.97607130224185        1.88727932291998       -0.96068893502202
H            0.01144806942292       -0.43873897850586        2.53063121885661
H            1.40130549147146        0.38941145193446        3.26043246083345
H           -0.05035787546971        1.31366776877041        2.87655442988353
H            1.61730792288361       -1.17912572771440        0.78356858706576
H            1.73808481070264        0.84565207431123       -1.34521494527049
H            1.84582725183911       -0.91672623773905       -1.62849330199081
H            3.59494725966814       -2.24133392248536       -0.33282466246142
H            6.00119271646495       -2.27614687262736        0.29634530928376
H            6.15494514617033        1.99210825824645       -0.07202267907055
H            3.74347108924208        2.02707596595660       -0.68613097473597
H            0.09374787043980       -3.76232738115030       -0.91089720583039

          :  Hamiltonian                  GFN1-xTB          :
         :: total energy             -79.514231872173 Eh    ::
         :: gradient norm              0.000537159181 Eh/a0 ::
         :: HOMO-LUMO gap              2.200843323942 eV    ::
         :: SCC energy               -80.417768585855 Eh    ::
         :: -> Gsolv                  -0.104120167775 Eh    ::
         :: repulsion energy           0.936148374686 Eh    ::

    * Orbital Energies and Occupations

         #    Occupation            Energy/Eh            Energy/eV
      -------------------------------------------------------------
         1        2.0000           -0.8945989             -24.3433
       ...           ...                  ...                  ...
        55        2.0000           -0.5235194             -14.2457
        56        2.0000           -0.5159727             -14.0403
        57        2.0000           -0.5133896             -13.9700
        58        2.0000           -0.5089405             -13.8490
        59        2.0000           -0.5025557             -13.6752
        60        2.0000           -0.4905954             -13.3498
        61        2.0000           -0.4880123             -13.2795
        62        2.0000           -0.4809555             -13.0875
        63        2.0000           -0.4770333             -12.9807
        64        2.0000           -0.4694211             -12.7736
        65        2.0000           -0.4579553             -12.4616
        66        2.0000           -0.4468450             -12.1593
        67        2.0000           -0.4244090             -11.5488 (HOMO)
        68                         -0.3435295              -9.3479 (LUMO)
        69                         -0.3248806              -8.8405
        70                         -0.3007600              -8.1841
        71                         -0.2914080              -7.9296
        72                         -0.2888859              -7.8610
        73                         -0.1975752              -5.3763
        74                         -0.1778021              -4.8382
        75                         -0.1666361              -4.5344
        76                         -0.1579833              -4.2989
        77                         -0.1410954              -3.8394
        78                         -0.1401706              -3.8142
       ...                                ...                  ...
       144                          0.7259375              19.7538
      -------------------------------------------------------------
                  HL-Gap            0.0808795 Eh            2.2008 eV

Wiberg/Mayer (AO) data.
largest (>0.10) Wiberg bond orders for each atom

     #   Z sym  total        # sym  WBO       # sym  WBO       # sym  WBO
 ---------------------------------------------------------------------------
     1   6 C    3.908 --    28 H    0.977    26 H    0.975    27 H    0.973
                             2 N    0.918
     2   7 N    3.526 --     3 C    1.226    24 C    1.105     1 C    0.918
                            25 O    0.131
     3   6 C    3.911 --     8 N    1.484     2 N    1.226     4 C    0.978
     4   6 C    3.964 --     7 N    0.989     6 C    0.987     3 C    0.978
                             5 C    0.976
     5   6 C    3.992 --    31 H    0.986    30 H    0.981    29 H    0.979
                             4 C    0.976
     6   6 C    3.993 --     4 C    0.987    34 H    0.985    33 H    0.984
                            32 H    0.983
     7   7 N    2.976 --     4 C    0.989    35 H    0.939    36 H    0.935
     8   7 N    3.023 --     3 C    1.484     9 C    1.244
     9   6 C    3.895 --    22 C    1.515     8 N    1.244    13 N    0.886
    10   6 C    3.816 --    12 O    1.869    11 C    1.032    13 N    0.825
    11   6 C    3.979 --    10 C    1.032    37 H    0.977    39 H    0.953
                            38 H    0.929
    12   8 O    2.087 --    10 C    1.869
    13   7 N    3.609 --     9 C    0.886    40 H    0.876    14 C    0.864
                            10 C    0.825
    14   6 C    3.886 --    15 C    1.007    41 H    0.972    42 H    0.968
                            13 N    0.864
    15   6 C    3.983 --    21 C    1.416    16 C    1.411    14 C    1.007
    16   6 C    3.993 --    17 C    1.449    15 C    1.411    43 H    0.968
                            20 C    0.109
    17   6 C    3.991 --    16 C    1.449    18 C    1.395    44 H    0.967
                            21 C    0.109
    18   6 C    3.865 --    20 C    1.397    17 C    1.395    19 F    0.939
    19   9 F    1.072 --    18 C    0.939
    20   6 C    3.991 --    21 C    1.446    18 C    1.397    45 H    0.968
                            16 C    0.109
    21   6 C    3.991 --    20 C    1.446    15 C    1.416    46 H    0.968
                            17 C    0.109
    22   6 C    3.925 --     9 C    1.515    24 C    1.085    23 O    1.079
    23   8 O    2.054 --    22 C    1.079    47 H    0.796
    24   6 C    3.920 --    25 O    1.578     2 N    1.105    22 C    1.085
    25   8 O    1.918 --    24 C    1.578     2 N    0.131
    26   1 H    1.005 --     1 C    0.975
    27   1 H    1.012 --     1 C    0.973
    28   1 H    1.021 --     1 C    0.977
    29   1 H    1.003 --     5 C    0.979
    30   1 H    0.997 --     5 C    0.981
    31   1 H    1.003 --     5 C    0.986
    32   1 H    1.011 --     6 C    0.983
    33   1 H    1.002 --     6 C    0.984
    34   1 H    1.005 --     6 C    0.985
    35   1 H    0.953 --     7 N    0.939
    36   1 H    0.949 --     7 N    0.935
    37   1 H    0.995 --    11 C    0.977
    38   1 H    0.986 --    11 C    0.929
    39   1 H    0.991 --    11 C    0.953
    40   1 H    0.934 --    13 N    0.876
    41   1 H    0.999 --    14 C    0.972
    42   1 H    1.000 --    14 C    0.968
    43   1 H    0.996 --    16 C    0.968
    44   1 H    0.995 --    17 C    0.967
    45   1 H    0.996 --    20 C    0.968
    46   1 H    1.003 --    21 C    0.968
    47   1 H    0.827 --    23 O    0.796
 ---------------------------------------------------------------------------

           -------------------------------------------------
          | TOTAL ENERGY              -79.514231872173 Eh   |
          | GRADIENT NORM               0.000537159181 Eh/α |
          | HOMO-LUMO GAP               2.200843323942 eV   |
           -------------------------------------------------

 * finished run on 2023/06/20 at 15:25:35.218
