   * xtb version 6.5.1 (579679a) compiled by 'ehlert@majestix' on 2022-07-11
          program call               : /lustre/hpc/kemi/ree/PhD/git/ReactivityQM/dep/xtb-6.5.1/bin/xtb --gfn 1 /lustre/hpc/kemi/ree/PhD/git/ReactivityQM/calculations/R03/reac02prodN03/conf12/R03_reac02prodN03_conf12_gfn1.xyz --opt --vfukui --chrg 1 --uhf 0 --alpb DMSO

   ID    Z sym.   atoms
    1    6 C      1, 3, 5, 6, 8-11, 13, 15, 18, 19, 22, 23, 25
    2    8 O      2, 4, 14, 20, 24, 26
    3    7 N      7, 12, 16, 17, 21
    4    1 H      27-46

      * Solvation model:               ALPB
        Solvent                        DMSO
        Solvent mass                       7.8130E+01 g/mol
          :  Hamiltonian                  GFN1-xTB          :
 * total energy  :   -86.3032574 Eh     change       -0.1050182E-10 Eh
 * total energy  :   -86.3299442 Eh     change       -0.2668686E-01 Eh
 * total energy  :   -86.3387017 Eh     change       -0.8757426E-02 Eh
 * total energy  :   -86.3408439 Eh     change       -0.2142204E-02 Eh
 * total energy  :   -86.3416685 Eh     change       -0.8246435E-03 Eh
 * total energy  :   -86.3418642 Eh     change       -0.1956440E-03 Eh
 * total energy  :   -86.3420023 Eh     change       -0.1381305E-03 Eh
 * total energy  :   -86.3420888 Eh     change       -0.8648193E-04 Eh
 * total energy  :   -86.3421583 Eh     change       -0.6954185E-04 Eh
 * total energy  :   -86.3422197 Eh     change       -0.6137822E-04 Eh
 * total energy  :   -86.3429570 Eh     change       -0.9654522E-05 Eh
 * total energy  :   -86.3429687 Eh     change       -0.1169723E-04 Eh
 * total energy  :   -86.3429770 Eh     change       -0.8304113E-05 Eh
 * total energy  :   -86.3429845 Eh     change       -0.7433190E-05 Eh
 * total energy  :   -86.3429919 Eh     change       -0.7386403E-05 Eh
 * total energy  :   -86.3429979 Eh     change       -0.6012129E-05 Eh
 * total energy  :   -86.3430030 Eh     change       -0.5165359E-05 Eh
 * total energy  :   -86.3430094 Eh     change       -0.6401290E-05 Eh
 * total energy  :   -86.3430128 Eh     change       -0.3385692E-05 Eh
   *** GEOMETRY OPTIMIZATION CONVERGED AFTER 56 ITERATIONS ***

 final structure:
================
46
 xtb: 6.5.1 (579679a)
C           -2.99550288362184       -0.86148801320170       -2.54476139808790
O           -3.89817567225999        0.19850614052895       -2.19829862531103
C           -3.80458150288932        1.00183489267064       -1.19566905914798
O           -4.75134666344359        1.86542375034510       -1.07362727387822
C           -5.83753175133840        1.89255814085334       -2.01743022651799
C           -2.75521952899499        1.03214724170219       -0.19894231317207
N           -1.71917796225133        0.13825444163740       -0.31436260473235
C           -0.74682845277630        0.10554049576083        0.54406166032657
C            0.32075227091098       -0.95977399435548        0.32930813359342
C            0.17136418087408       -1.60119531731617       -1.05527660898266
C            0.17065542575825       -2.03961043128047        1.41206248297048
N            1.63031712489097       -0.30406178531401        0.38210862978836
C            2.80238323886612       -0.99219858479142        0.31934781760828
O            2.92275877939781       -2.19679617765920        0.41202150571999
C            3.93926918895963       -0.05587414082788        0.15132304689100
N            3.85427941465507        1.23445001088241        0.01663839502234
N            5.12599119563996        1.69869002418905       -0.12075016326403
C            5.90768225238301        0.66118380045738       -0.06287653149588
C            7.38315455605844        0.63489509467248       -0.16678249030938
O            5.21584642756166       -0.47466312107692        0.10677176976749
N           -0.70092859116472        0.95118585997612        1.62381526953521
C            0.32840623188919        0.96553911945692        2.67241679060234
C           -1.68699906515226        1.88826435490553        1.84084971103699
O           -1.68248446794949        2.65148922147023        2.79315360137216
C           -2.76661379239699        1.92361040884323        0.85391351231108
O           -3.69934428577306        2.82837596695397        1.06736668903036
H           -2.91673586589216       -1.56589078339532       -1.71768653594747
H           -3.43311079191056       -1.33990160122556       -3.42024752509259
H           -2.01509600677970       -0.44876504620499       -2.77963215878738
H           -5.44742603383472        2.09986717002825       -3.01445091323979
H           -6.49999323524017        2.68784062774405       -1.68312947868582
H           -6.34755017620846        0.92870946770960       -2.01182195235226
H            0.20528720038841       -0.83743460121238       -1.82965579588733
H           -0.77281516265866       -2.13671713267340       -1.11714267340947
H            0.98629179045141       -2.30633775769589       -1.21255845634519
H            0.43026314363558       -1.65786403622349        2.39604653114881
H            0.81449382546641       -2.88648822091774        1.18268277356121
H           -0.86414991060685       -2.37809783453262        1.42665269428964
H            1.66178337808312        0.66521799927087        0.10155596794034
H            7.68324392731870        0.06139981771516       -1.04479321590904
H            7.76199336939447        1.65126772213747       -0.24856102591646
H            7.80992025788609        0.15274180676540        0.71308196245016
H           -0.11233738654116        0.57841406911480        3.59100145812602
H            1.18621394380749        0.37279163753574        2.38228697758272
H            0.62694784655646        2.00221652299869        2.82875267670017
H           -3.48534978115007        3.33212877357720        1.88123396909824

          :  Hamiltonian                  GFN1-xTB          :
         :: total energy             -86.343012824726 Eh    ::
         :: gradient norm              0.000800154344 Eh/a0 ::
         :: HOMO-LUMO gap              1.964426919566 eV    ::
         :: SCC energy               -87.172227716913 Eh    ::
         :: -> Gsolv                  -0.102810980289 Eh    ::
         :: repulsion energy           0.858553371598 Eh    ::

    * Orbital Energies and Occupations

         #    Occupation            Energy/Eh            Energy/eV
      -------------------------------------------------------------
         1        2.0000           -0.9135522             -24.8590
       ...           ...                  ...                  ...
        58        2.0000           -0.5267138             -14.3326
        59        2.0000           -0.5202371             -14.1564
        60        2.0000           -0.5150736             -14.0159
        61        2.0000           -0.5111233             -13.9084
        62        2.0000           -0.5046418             -13.7320
        63        2.0000           -0.4938469             -13.4383
        64        2.0000           -0.4880878             -13.2815
        65        2.0000           -0.4823571             -13.1256
        66        2.0000           -0.4735260             -12.8853
        67        2.0000           -0.4677102             -12.7270
        68        2.0000           -0.4627172             -12.5912
        69        2.0000           -0.4582283             -12.4690
        70        2.0000           -0.4541304             -12.3575 (HOMO)
        71                         -0.3819391             -10.3931 (LUMO)
        72                         -0.3196261              -8.6975
        73                         -0.3183772              -8.6635
        74                         -0.2916489              -7.9362
        75                         -0.2613859              -7.1127
        76                         -0.2070017              -5.6328
        77                         -0.1988801              -5.4118
        78                         -0.1716913              -4.6720
        79                         -0.1626377              -4.4256
        80                         -0.1517669              -4.1298
        81                         -0.1437533              -3.9117
       ...                                ...                  ...
       144                          0.7239861              19.7007
      -------------------------------------------------------------
                  HL-Gap            0.0721914 Eh            1.9644 eV

Wiberg/Mayer (AO) data.
largest (>0.10) Wiberg bond orders for each atom

     #   Z sym  total        # sym  WBO       # sym  WBO       # sym  WBO
 ---------------------------------------------------------------------------
     1   6 C    3.815 --    28 H    0.978    29 H    0.971    27 H    0.971
                             2 O    0.850
     2   8 O    2.308 --     3 C    1.252     1 C    0.850
     3   6 C    3.815 --     4 O    1.262     2 O    1.252     6 C    1.117
     4   8 O    2.310 --     3 C    1.262     5 C    0.854
     5   6 C    3.823 --    31 H    0.981    32 H    0.972    30 H    0.972
                             4 O    0.854
     6   6 C    3.956 --    25 C    1.414     7 N    1.163     3 C    1.117
     7   7 N    3.036 --     8 C    1.567     6 C    1.163
     8   6 C    3.920 --     7 N    1.567    21 N    1.173     9 C    0.976
     9   6 C    3.934 --    10 C    0.990    11 C    0.978     8 C    0.976
                            12 N    0.927
    10   6 C    3.988 --     9 C    0.990    33 H    0.983    34 H    0.982
                            35 H    0.979
    11   6 C    3.984 --    38 H    0.984    36 H    0.981     9 C    0.978
                            37 H    0.975
    12   7 N    3.320 --    13 C    1.212     9 C    0.927    39 H    0.894
                            14 O    0.167
    13   6 C    3.912 --    14 O    1.617    12 N    1.212    15 C    0.994
    14   8 O    1.931 --    13 C    1.617    12 N    0.167
    15   6 C    3.878 --    16 N    1.604    20 O    1.066    13 C    0.994
    16   7 N    3.020 --    15 C    1.604    17 N    1.206
    17   7 N    2.981 --    18 C    1.598    16 N    1.206
    18   6 C    3.869 --    17 N    1.598    20 O    1.085    19 C    1.032
    19   6 C    3.985 --    18 C    1.032    41 H    0.982    42 H    0.964
                            40 H    0.961
    20   8 O    2.334 --    18 C    1.085    15 C    1.066
    21   7 N    3.525 --     8 C    1.173    23 C    1.146    22 C    0.915
                            24 O    0.142
    22   6 C    3.903 --    44 H    0.975    45 H    0.972    43 H    0.972
                            21 N    0.915
    23   6 C    3.918 --    24 O    1.588    21 N    1.146    25 C    1.045
    24   8 O    1.932 --    23 C    1.588    21 N    0.142
    25   6 C    3.913 --     6 C    1.414    26 O    1.174    23 C    1.045
    26   8 O    2.146 --    25 C    1.174    46 H    0.780
    27   1 H    1.012 --     1 C    0.971
    28   1 H    1.001 --     1 C    0.978
    29   1 H    1.011 --     1 C    0.971
    30   1 H    0.998 --     5 C    0.972
    31   1 H    1.002 --     5 C    0.981
    32   1 H    0.998 --     5 C    0.972
    33   1 H    1.005 --    10 C    0.983
    34   1 H    1.005 --    10 C    0.982
    35   1 H    1.002 --    10 C    0.979
    36   1 H    0.999 --    11 C    0.981
    37   1 H    1.009 --    11 C    0.975
    38   1 H    1.000 --    11 C    0.984
    39   1 H    0.950 --    12 N    0.894
    40   1 H    0.996 --    19 C    0.961
    41   1 H    0.998 --    19 C    0.982
    42   1 H    0.996 --    19 C    0.964
    43   1 H    0.998 --    22 C    0.972
    44   1 H    1.008 --    22 C    0.975
    45   1 H    1.000 --    22 C    0.972
    46   1 H    0.824 --    26 O    0.780
 ---------------------------------------------------------------------------

           -------------------------------------------------
          | TOTAL ENERGY              -86.343012824726 Eh   |
          | GRADIENT NORM               0.000800154344 Eh/α |
          | HOMO-LUMO GAP               1.964426919566 eV   |
           -------------------------------------------------

 * finished run on 2023/06/20 at 15:38:30.095
