   * xtb version 6.5.1 (579679a) compiled by 'ehlert@majestix' on 2022-07-11
          program call               : /lustre/hpc/kemi/ree/PhD/git/ReactivityQM/dep/xtb-6.5.1/bin/xtb --gfn 1 /lustre/hpc/kemi/ree/PhD/git/ReactivityQM/calculations/R02methylcation/reac01prodN04/conf01/R02methylcation_reac01prodN04_conf01_gfn1.xyz --opt --vfukui --chrg 0 --uhf 0 --alpb DMSO

   ID    Z sym.   atoms
    1    6 C      1, 3, 5, 6, 8-11, 13, 15, 18, 19, 22, 24
    2    8 O      2, 4, 14, 20, 23, 25
    3    7 N      7, 12, 16, 17, 21
    4    1 H      26-42

      * Solvation model:               ALPB
        Solvent                        DMSO
        Solvent mass                       7.8130E+01 g/mol
          :  Hamiltonian                  GFN1-xTB          :
 * total energy  :   -82.9673570 Eh     change       -0.8185452E-11 Eh
 * total energy  :   -82.9847951 Eh     change       -0.1743810E-01 Eh
 * total energy  :   -82.9912032 Eh     change       -0.6408066E-02 Eh
 * total energy  :   -82.9927674 Eh     change       -0.1564247E-02 Eh
 * total energy  :   -82.9933517 Eh     change       -0.5842906E-03 Eh
 * total energy  :   -82.9935496 Eh     change       -0.1978708E-03 Eh
 * total energy  :   -82.9936877 Eh     change       -0.1380586E-03 Eh
 * total energy  :   -82.9937976 Eh     change       -0.1099467E-03 Eh
 * total energy  :   -82.9939290 Eh     change       -0.1314393E-03 Eh
 * total energy  :   -82.9940698 Eh     change       -0.1407540E-03 Eh
 * total energy  :   -82.9967114 Eh     change       -0.7055877E-05 Eh
 * total energy  :   -82.9967180 Eh     change       -0.6523307E-05 Eh
 * total energy  :   -82.9967257 Eh     change       -0.7753050E-05 Eh
 * total energy  :   -82.9967331 Eh     change       -0.7418524E-05 Eh
 * total energy  :   -82.9967392 Eh     change       -0.6117861E-05 Eh
 * total energy  :   -82.9967448 Eh     change       -0.5536786E-05 Eh
 * total energy  :   -82.9967505 Eh     change       -0.5708767E-05 Eh
 * total energy  :   -82.9967559 Eh     change       -0.5421234E-05 Eh
 * total energy  :   -82.9967604 Eh     change       -0.4524187E-05 Eh
   *** GEOMETRY OPTIMIZATION CONVERGED AFTER 58 ITERATIONS ***

 final structure:
================
42
 xtb: 6.5.1 (579679a)
C           -3.57423955280211        1.08190240420078       -1.47121481672091
O           -4.14386172605803        1.33762067254130       -0.18894383198136
C           -3.64301058913307        0.93824587669797        0.96814661432912
O           -4.39147687265011        1.26320838841539        2.00214410733654
C           -5.61823250549028        1.96374303640590        1.78974272829523
C           -2.45713553946006        0.23096182283960        1.18619769893209
N           -1.67498696472402       -0.06796417888976        0.07244796109835
C           -0.58905007402054       -0.72980197600636        0.20434434765417
C            0.24649425272811       -1.10605250220988       -1.00225973787987
C           -0.00211334445957       -0.14302653031045       -2.16567776471392
C           -0.09164569235778       -2.54538474850033       -1.40420989569214
N            1.66057617917113       -1.06929418920985       -0.62403595390507
C            2.22670974053638        0.05200358128574       -0.11906313730074
O            1.61318879994726        1.05168043761406        0.20705509181018
C            3.69514369577390       -0.10611122104476        0.02562849187274
N            4.39040107132604       -1.15122816550961       -0.31087681531405
N            5.68792330120785       -0.87525338550588       -0.00464337262284
C            5.70263402973750        0.32213465640720        0.49975507965596
C            6.87645890365939        1.07885979874085        0.98799526457468
O            4.47519292048897        0.85975470095155        0.54529879750752
N           -0.14807971398556       -1.20805335744731        1.41641224585883
C           -0.78295248429410       -0.98652252897984        2.60718103052061
O           -0.33602939462930       -1.43114322576052        3.64939305098908
C           -2.06492950897284       -0.17187453587475        2.51745331815031
O           -2.68243213283812        0.07732491993473        3.54712145696476
H           -3.45371926592782        0.00991382626043       -1.63368973934886
H           -2.60723497405024        1.57777064252345       -1.56936223636875
H           -4.28023791024140        1.49247070011846       -2.19333349973442
H           -6.05796041661894        2.10901042180644        2.77497978549168
H           -6.28657797499452        1.37372933822693        1.15985412610140
H           -5.42740123303506        2.92770543305802        1.31398133164427
H           -1.03398770174262       -0.23480561021344       -2.49785195064186
H            0.17914313273834        0.88353952051896       -1.84985769973996
H            0.66002087020412       -0.38732501904681       -2.99396150376086
H            0.12646491725534       -3.22690739292631       -0.58370000753835
H           -1.14951210166897       -2.61590267077307       -1.65156180512380
H            0.49422857247843       -2.83640517157589       -2.27400813496968
H            2.26030031008395       -1.80414086332614       -0.96371641645873
H            6.73381206915402        1.35747397243996        2.03203205463741
H            7.77002969901795        0.46700303542211        0.89171384384844
H            6.99730128520259        1.99375104561372        0.40803722545770
H            0.70078492343572       -1.75260995891447        1.44087666708315

          :  Hamiltonian                  GFN1-xTB          :
         :: total energy             -82.996760436295 Eh    ::
         :: gradient norm              0.000380433772 Eh/a0 ::
         :: HOMO-LUMO gap              2.368398564641 eV    ::
         :: SCC energy               -83.776355660784 Eh    ::
         :: -> Gsolv                  -0.065918622650 Eh    ::
         :: repulsion energy           0.805948140858 Eh    ::

    * Orbital Energies and Occupations

         #    Occupation            Energy/Eh            Energy/eV
      -------------------------------------------------------------
         1        2.0000           -0.8640494             -23.5120
       ...           ...                  ...                  ...
        55        2.0000           -0.5063496             -13.7785
        56        2.0000           -0.5061010             -13.7717
        57        2.0000           -0.4998746             -13.6023
        58        2.0000           -0.4932924             -13.4232
        59        2.0000           -0.4833606             -13.1529
        60        2.0000           -0.4759550             -12.9514
        61        2.0000           -0.4681457             -12.7389
        62        2.0000           -0.4624296             -12.5834
        63        2.0000           -0.4537124             -12.3461
        64        2.0000           -0.4526832             -12.3181
        65        2.0000           -0.4451666             -12.1136
        66        2.0000           -0.4184710             -11.3872
        67        2.0000           -0.4121257             -11.2145 (HOMO)
        68                         -0.3250887              -8.8461 (LUMO)
        69                         -0.3122975              -8.4980
        70                         -0.2707255              -7.3668
        71                         -0.2571448              -6.9973
        72                         -0.2455952              -6.6830
        73                         -0.1998386              -5.4379
        74                         -0.1536340              -4.1806
        75                         -0.1515645              -4.1243
        76                         -0.1425474              -3.8789
        77                         -0.1422178              -3.8699
        78                         -0.1335179              -3.6332
       ...                                ...                  ...
       134                          0.7556689              20.5628
      -------------------------------------------------------------
                  HL-Gap            0.0870370 Eh            2.3684 eV

Wiberg/Mayer (AO) data.
largest (>0.10) Wiberg bond orders for each atom

     #   Z sym  total        # sym  WBO       # sym  WBO       # sym  WBO
 ---------------------------------------------------------------------------
     1   6 C    3.854 --    28 H    0.981    26 H    0.977    27 H    0.976
                             2 O    0.883
     2   8 O    2.222 --     3 C    1.129     1 C    0.883
     3   6 C    3.833 --     6 C    1.338     4 O    1.151     2 O    1.129
     4   8 O    2.237 --     3 C    1.151     5 C    0.889
     5   6 C    3.863 --    29 H    0.984    30 H    0.978    31 H    0.978
                             4 O    0.889
     6   6 C    3.923 --     3 C    1.338    24 C    1.163     7 N    1.106
     7   7 N    3.043 --     8 C    1.653     6 C    1.106
     8   6 C    3.932 --     7 N    1.653    21 N    1.107     9 C    0.976
     9   6 C    3.937 --    10 C    0.990    11 C    0.984     8 C    0.976
                            12 N    0.925
    10   6 C    3.990 --     9 C    0.990    34 H    0.985    32 H    0.983
                            33 H    0.981
    11   6 C    3.988 --    35 H    0.984     9 C    0.984    36 H    0.984
                            37 H    0.982
    12   7 N    3.333 --    13 C    1.238     9 C    0.925    38 H    0.892
                            14 O    0.174
    13   6 C    3.916 --    14 O    1.601    12 N    1.238    15 C    0.992
    14   8 O    1.902 --    13 C    1.601    12 N    0.174
    15   6 C    3.876 --    16 N    1.609    20 O    1.063    13 C    0.992
    16   7 N    3.016 --    15 C    1.609    17 N    1.203
    17   7 N    2.981 --    18 C    1.603    16 N    1.203
    18   6 C    3.871 --    17 N    1.603    20 O    1.084    19 C    1.031
    19   6 C    3.986 --    18 C    1.031    40 H    0.983    39 H    0.964
                            41 H    0.963
    20   8 O    2.330 --    18 C    1.084    15 C    1.063
    21   7 N    3.441 --    22 C    1.165     8 C    1.107    42 H    0.887
                            23 O    0.139
    22   6 C    3.884 --    23 O    1.631    21 N    1.165    24 C    0.940
    23   8 O    1.910 --    22 C    1.631    21 N    0.139
    24   6 C    3.920 --    25 O    1.631     6 C    1.163    22 C    0.940
    25   8 O    1.917 --    24 C    1.631
    26   1 H    1.020 --     1 C    0.977
    27   1 H    1.020 --     1 C    0.976
    28   1 H    1.008 --     1 C    0.981
    29   1 H    1.009 --     5 C    0.984
    30   1 H    1.005 --     5 C    0.978
    31   1 H    1.005 --     5 C    0.978
    32   1 H    1.007 --    10 C    0.983
    33   1 H    1.009 --    10 C    0.981
    34   1 H    1.001 --    10 C    0.985
    35   1 H    0.999 --    11 C    0.984
    36   1 H    1.001 --    11 C    0.984
    37   1 H    0.996 --    11 C    0.982
    38   1 H    0.944 --    12 N    0.892
    39   1 H    0.997 --    19 C    0.964
    40   1 H    0.998 --    19 C    0.983
    41   1 H    0.997 --    19 C    0.963
    42   1 H    0.938 --    21 N    0.887
 ---------------------------------------------------------------------------

           -------------------------------------------------
          | TOTAL ENERGY              -82.996760436295 Eh   |
          | GRADIENT NORM               0.000380433772 Eh/α |
          | HOMO-LUMO GAP               2.368398564641 eV   |
           -------------------------------------------------

 * finished run on 2023/06/21 at 17:33:58.797
