   * xtb version 6.5.1 (579679a) compiled by 'ehlert@majestix' on 2022-07-11
          program call               : /lustre/hpc/kemi/ree/PhD/git/ReactivityQM/dep/xtb-6.5.1/bin/xtb --gfn 1 /lustre/hpc/kemi/ree/PhD/git/ReactivityQM/calculations/R02deprot/reac01prodN05/conf19/R02deprot_reac01prodN05_conf19_gfn1.xyz --opt --vfukui --chrg 0 --uhf 0 --alpb DMSO

   ID    Z sym.   atoms
    1    6 C      1, 3, 5, 7-10, 12, 14, 17, 18, 21, 23, 25
    2    8 O      2, 4, 13, 19, 22, 24
    3    7 N      6, 11, 15, 16, 20
    4    1 H      26-42

      * Solvation model:               ALPB
        Solvent                        DMSO
        Solvent mass                       7.8130E+01 g/mol
          :  Hamiltonian                  GFN1-xTB          :
 * total energy  :   -82.9202114 Eh     change       -0.1669775E-10 Eh
 * total energy  :   -82.9365958 Eh     change       -0.1638450E-01 Eh
 * total energy  :   -82.9430157 Eh     change       -0.6419857E-02 Eh
 * total energy  :   -82.9445550 Eh     change       -0.1539275E-02 Eh
 * total energy  :   -82.9454817 Eh     change       -0.9267453E-03 Eh
 * total energy  :   -82.9459655 Eh     change       -0.4837497E-03 Eh
 * total energy  :   -82.9463603 Eh     change       -0.3948310E-03 Eh
 * total energy  :   -82.9466707 Eh     change       -0.3103609E-03 Eh
 * total energy  :   -82.9468677 Eh     change       -0.1970643E-03 Eh
 * total energy  :   -82.9469990 Eh     change       -0.1313072E-03 Eh
 * total energy  :   -82.9480613 Eh     change       -0.1322519E-04 Eh
 * total energy  :   -82.9480695 Eh     change       -0.8139392E-05 Eh
 * total energy  :   -82.9480758 Eh     change       -0.6369622E-05 Eh
 * total energy  :   -82.9480864 Eh     change       -0.1060143E-04 Eh
 * total energy  :   -82.9480949 Eh     change       -0.8498198E-05 Eh
 * total energy  :   -82.9481024 Eh     change       -0.7460737E-05 Eh
 * total energy  :   -82.9481119 Eh     change       -0.9501668E-05 Eh
 * total energy  :   -82.9481259 Eh     change       -0.1399668E-04 Eh
 * total energy  :   -82.9481297 Eh     change       -0.3755212E-05 Eh
   *** GEOMETRY OPTIMIZATION CONVERGED AFTER 44 ITERATIONS ***

 final structure:
================
42
 xtb: 6.5.1 (579679a)
C           -6.31774118321103       -1.04587160243706        0.30947548898715
O           -5.05914798587995       -0.37633206847548        0.09465018595888
C           -3.95391120723483       -1.06924268614277        0.44095846242770
O           -4.00251829569095       -2.17310509436766        0.91250261578670
C           -2.69236357397377       -0.31483277929486        0.15713881776661
N           -1.57116388825136       -0.94442930466877        0.53261027646912
C           -0.41429808651362       -0.31760513609810        0.30112747467881
C            0.82262932841220       -1.07016700266006        0.76304550989796
C            0.75933642800817       -1.23838876343788        2.28809358618613
C            0.86809134488617       -2.43620314231241        0.06421634334440
N            1.98775958152857       -0.27446536703953        0.39163849205768
C            3.25794789995559       -0.63488750488304        0.62435598909976
O            3.61983004365145       -1.65501942673078        1.19065207850849
C            4.20950027037752        0.38305939858507        0.09718793927075
N            3.89821663646540        1.49952917625244       -0.48838998510851
N            5.07179458581032        2.11378010811911       -0.81434522306639
C            6.02333975711813        1.33126524415026       -0.40665723064375
C            7.48274049649123        1.54424202658699       -0.52595201471081
O            5.54398161253658        0.22326294388050        0.17826361200839
N           -0.25467988979233        0.85403878960572       -0.26765350218266
C           -1.34216152476972        1.57345198779348       -0.69937840753707
O           -1.24003349187069        2.66424813715059       -1.26411234348411
C           -2.61028043480032        0.92246164993890       -0.43540338045135
O           -3.79718359087160        1.65731432629003       -0.80317892061834
C           -3.97126436501436        1.94475325889531       -2.22407886306163
H           -6.45248391970964       -1.23754349608789        1.37544233513731
H           -6.32713859074880       -1.98758319029387       -0.24196529383795
H           -7.08875091699472       -0.37677776863938       -0.06166827439678
H            1.61117349686904       -1.81720773045177        2.64128263443598
H           -0.16075617018538       -1.75889988293337        2.54934776970758
H            0.76415399474235       -0.26211497052685        2.77114268938947
H            0.96667870748548       -2.30116209523855       -1.01201620233696
H           -0.05780705758056       -2.97088334591429        0.27085727345213
H            1.70978668834882       -3.02173802529047        0.43015313772249
H            1.79170707103956        0.59702650384018       -0.09344885263427
H            7.93021796486241        1.62186924188422        0.46507974278071
H            7.67537540825488        2.45772196618341       -1.08315442384003
H            7.94098451081305        0.69848640826973       -1.03799825072181
H           -4.58111406301829        1.13422754393342       -0.46930683361556
H           -4.91862559965872        2.46903708111896       -2.31281693050580
H           -3.14078855248417        2.58291826642990       -2.52189959590490
H           -3.98103443940442        1.01176832501890       -2.78582592641342

          :  Hamiltonian                  GFN1-xTB          :
         :: total energy             -82.948129652078 Eh    ::
         :: gradient norm              0.000386499128 Eh/a0 ::
         :: HOMO-LUMO gap              2.379052160753 eV    ::
         :: SCC energy               -83.721524183681 Eh    ::
         :: -> Gsolv                  -0.070557726324 Eh    ::
         :: repulsion energy           0.798685007359 Eh    ::

    * Orbital Energies and Occupations

         #    Occupation            Energy/Eh            Energy/eV
      -------------------------------------------------------------
         1        2.0000           -0.8983166             -24.4444
       ...           ...                  ...                  ...
        55        2.0000           -0.4958417             -13.4925
        56        2.0000           -0.4945478             -13.4573
        57        2.0000           -0.4898703             -13.3301
        58        2.0000           -0.4788574             -13.0304
        59        2.0000           -0.4722981             -12.8519
        60        2.0000           -0.4697774             -12.7833
        61        2.0000           -0.4595449             -12.5049
        62        2.0000           -0.4554600             -12.3937
        63        2.0000           -0.4477143             -12.1829
        64        2.0000           -0.4389344             -11.9440
        65        2.0000           -0.4384086             -11.9297
        66        2.0000           -0.4208391             -11.4516
        67        2.0000           -0.4122971             -11.2192 (HOMO)
        68                         -0.3248686              -8.8401 (LUMO)
        69                         -0.3041205              -8.2755
        70                         -0.2687107              -7.3120
        71                         -0.2542526              -6.9186
        72                         -0.2311271              -6.2893
        73                         -0.1924270              -5.2362
        74                         -0.1650913              -4.4924
        75                         -0.1504880              -4.0950
        76                         -0.1443275              -3.9274
        77                         -0.1419112              -3.8616
        78                         -0.1413713              -3.8469
       ...                                ...                  ...
       134                          0.7384137              20.0933
      -------------------------------------------------------------
                  HL-Gap            0.0874286 Eh            2.3791 eV

Wiberg/Mayer (AO) data.
largest (>0.10) Wiberg bond orders for each atom

     #   Z sym  total        # sym  WBO       # sym  WBO       # sym  WBO
 ---------------------------------------------------------------------------
     1   6 C    3.847 --    28 H    0.986    27 H    0.980    26 H    0.979
                             2 O    0.868
     2   8 O    2.214 --     3 C    1.065     1 C    0.868     4 O    0.129
     3   6 C    3.834 --     4 O    1.710     2 O    1.065     5 C    0.981
     4   8 O    1.965 --     3 C    1.710     2 O    0.129
     5   6 C    3.977 --    23 C    1.469     6 N    1.318     3 C    0.981
     6   7 N    3.008 --     7 C    1.346     5 C    1.318
     7   6 C    3.948 --    20 N    1.472     6 N    1.346     8 C    0.979
     8   6 C    3.935 --    10 C    0.980     7 C    0.979     9 C    0.979
                            11 N    0.929
     9   6 C    3.991 --    31 H    0.986    30 H    0.985    29 H    0.982
                             8 C    0.979
    10   6 C    3.991 --    32 H    0.986    33 H    0.984    34 H    0.982
                             8 C    0.980
    11   7 N    3.370 --    12 C    1.282     8 C    0.929    35 H    0.876
                            13 O    0.184
    12   6 C    3.922 --    13 O    1.575    11 N    1.282    14 C    0.983
    13   8 O    1.894 --    12 C    1.575    11 N    0.184
    14   6 C    3.872 --    15 N    1.616    19 O    1.062    12 C    0.983
    15   7 N    3.011 --    14 C    1.616    16 N    1.195
    16   7 N    2.980 --    17 C    1.610    15 N    1.195
    17   6 C    3.873 --    16 N    1.610    19 O    1.082    18 C    1.031
    18   6 C    3.987 --    17 C    1.031    37 H    0.983    38 H    0.966
                            36 H    0.963
    19   8 O    2.327 --    17 C    1.082    14 C    1.062
    20   7 N    3.031 --     7 C    1.472    21 C    1.166    22 O    0.108
    21   6 C    3.930 --    22 O    1.524    20 N    1.166    23 C    1.127
    22   8 O    1.844 --    21 C    1.524    20 N    0.108
    23   6 C    3.779 --     5 C    1.469    21 C    1.127    24 O    0.822
    24   8 O    2.433 --    23 C    0.822    25 C    0.818    39 H    0.710
    25   6 C    3.794 --    42 H    0.984    40 H    0.981    41 H    0.973
                            24 O    0.818
    26   1 H    1.004 --     1 C    0.979
    27   1 H    1.004 --     1 C    0.980
    28   1 H    1.007 --     1 C    0.986
    29   1 H    1.010 --     9 C    0.982
    30   1 H    1.010 --     9 C    0.985
    31   1 H    1.004 --     9 C    0.986
    32   1 H    1.003 --    10 C    0.986
    33   1 H    1.011 --    10 C    0.984
    34   1 H    1.010 --    10 C    0.982
    35   1 H    0.974 --    11 N    0.876
    36   1 H    0.997 --    18 C    0.963
    37   1 H    0.999 --    18 C    0.983
    38   1 H    0.997 --    18 C    0.966
    39   1 H    0.818 --    24 O    0.710
    40   1 H    0.997 --    25 C    0.981
    41   1 H    1.016 --    25 C    0.973
    42   1 H    0.998 --    25 C    0.984
 ---------------------------------------------------------------------------

           -------------------------------------------------
          | TOTAL ENERGY              -82.948129652078 Eh   |
          | GRADIENT NORM               0.000386499128 Eh/α |
          | HOMO-LUMO GAP               2.379052160753 eV   |
           -------------------------------------------------

 * finished run on 2023/06/20 at 18:10:13.560
