   * xtb version 6.5.1 (579679a) compiled by 'ehlert@majestix' on 2022-07-11
          program call               : /lustre/hpc/kemi/ree/PhD/git/ReactivityQM/dep/xtb-6.5.1/bin/xtb --gfn 1 /lustre/hpc/kemi/ree/PhD/git/ReactivityQM/calculations/R03/reac01prodN05/conf04/R03_reac01prodN05_conf04_gfn1.xyz --opt --vfukui --chrg 1 --uhf 0 --alpb DMSO

   ID    Z sym.   atoms
    1    6 C      1, 2, 4-7, 9, 10
    2    9 F      3
    3    7 N      8
    4    1 H      11-21

      * Solvation model:               ALPB
        Solvent                        DMSO
        Solvent mass                       7.8130E+01 g/mol
          :  Hamiltonian                  GFN1-xTB          :
 * total energy  :   -30.7528708 Eh     change       -0.6830803E-10 Eh
 * total energy  :   -30.7565660 Eh     change       -0.3695202E-02 Eh
 * total energy  :   -30.7581946 Eh     change       -0.1628541E-02 Eh
 * total energy  :   -30.7589140 Eh     change       -0.7193876E-03 Eh
 * total energy  :   -30.7596869 Eh     change       -0.7729293E-03 Eh
 * total energy  :   -30.7602600 Eh     change       -0.5730867E-03 Eh
 * total energy  :   -30.7607569 Eh     change       -0.4969480E-03 Eh
 * total energy  :   -30.7611320 Eh     change       -0.3750709E-03 Eh
 * total energy  :   -30.7614019 Eh     change       -0.2699506E-03 Eh
 * total energy  :   -30.7616485 Eh     change       -0.2465859E-03 Eh
 * total energy  :   -30.7621629 Eh     change       -0.5059375E-04 Eh
 * total energy  :   -30.7621849 Eh     change       -0.2202225E-04 Eh
 * total energy  :   -30.7621963 Eh     change       -0.1144304E-04 Eh
 * total energy  :   -30.7622030 Eh     change       -0.6635092E-05 Eh
 * total energy  :   -30.7622063 Eh     change       -0.3292093E-05 Eh
 * total energy  :   -30.7622103 Eh     change       -0.4022624E-05 Eh
 * total energy  :   -30.7622154 Eh     change       -0.5165154E-05 Eh
 * total energy  :   -30.7622211 Eh     change       -0.5690280E-05 Eh
 * total energy  :   -30.7622246 Eh     change       -0.3433387E-05 Eh
   *** GEOMETRY OPTIMIZATION CONVERGED AFTER 22 ITERATIONS ***

 final structure:
================
21
 xtb: 6.5.1 (579679a)
C           -2.65790642358165        0.60591085103674       -0.07564103870498
C           -1.77818203991794       -0.46188900064056        0.65075183005769
F           -2.63329664498340       -1.16711159427961        1.45063949331376
C           -1.19839863700198       -1.30928157147957       -0.41367107345632
C            0.05628043085845       -1.07083770596278       -0.87036060003134
C            0.90781316704635       -0.14118684362768       -0.21560943069012
C            2.27465195802202        0.07522805902452       -0.72937388830525
N            3.12188781714730        0.81547317422910        0.16641759730191
C            0.45968184069976        0.51355040449978        0.96086108840373
C           -0.79285421683099        0.31062479420215        1.43964839720066
H           -3.42331594376325        0.08049555748178       -0.64202348588245
H           -2.05216390261718        1.21326369010926       -0.74168008773797
H           -3.12459589694379        1.23203117305686        0.68132121582203
H           -1.84005669491098       -2.05994690814440       -0.85985040366718
H            0.45244811764338       -1.63594145945482       -1.70629774808408
H            2.18812585510484        0.62165857403297       -1.67809715671635
H            2.71655689402641       -0.89819497698540       -0.99479945677448
H            3.98391734769902        1.05860922015363       -0.29684781537749
H            3.32543264626241        0.28292778516455        0.99852092343647
H            1.15755653097895        1.15611162112510        1.48569214262896
H           -1.14358320493804        0.77850815645846        2.35202049726238

          :  Hamiltonian                  GFN1-xTB          :
         :: total energy             -30.762224568760 Eh    ::
         :: gradient norm              0.000447288708 Eh/a0 ::
         :: HOMO-LUMO gap              0.722207783872 eV    ::
         :: SCC energy               -31.154142282744 Eh    ::
         :: -> Gsolv                  -0.085313974127 Eh    ::
         :: repulsion energy           0.401966228897 Eh    ::

    * Orbital Energies and Occupations

         #    Occupation            Energy/Eh            Energy/eV
      -------------------------------------------------------------
         1        2.0000           -0.8943759             -24.3372
       ...           ...                  ...                  ...
        15        2.0000           -0.5978393             -16.2680
        16        2.0000           -0.5924814             -16.1222
        17        2.0000           -0.5779356             -15.7264
        18        2.0000           -0.5699163             -15.5082
        19        2.0000           -0.5647736             -15.3683
        20        2.0000           -0.5631831             -15.3250
        21        2.0000           -0.5543350             -15.0842
        22        2.0000           -0.5507833             -14.9876
        23        2.0000           -0.5321021             -14.4792
        24        2.0000           -0.5216838             -14.1957
        25        2.0000           -0.5188131             -14.1176
        26        2.0000           -0.5090967             -13.8532
        27        2.0000           -0.4460541             -12.1378 (HOMO)
        28        0.0000           -0.4195135             -11.4155 (LUMO)
        29                         -0.3250300              -8.8445
        30                         -0.2513888              -6.8406
        31                         -0.1592706              -4.3340
        32                         -0.1559735              -4.2443
        33                         -0.1422707              -3.8714
        34                         -0.1359269              -3.6988
        35                         -0.1281714              -3.4877
        36                         -0.1181661              -3.2155
        37                         -0.1093487              -2.9755
        38                         -0.0982367              -2.6732
       ...                                ...                  ...
        62                          0.5470114              14.8849
      -------------------------------------------------------------
                  HL-Gap            0.0265406 Eh            0.7222 eV

Wiberg/Mayer (AO) data.
largest (>0.10) Wiberg bond orders for each atom

     #   Z sym  total        # sym  WBO       # sym  WBO       # sym  WBO
 ---------------------------------------------------------------------------
     1   6 C    3.947 --    12 H    0.983    13 H    0.975    11 H    0.974
                             2 C    0.858
     2   6 C    3.887 --     4 C    1.038    10 C    1.036     3 F    0.899
                             1 C    0.858
     3   9 F    1.008 --     2 C    0.899
     4   6 C    3.956 --     5 C    1.659     2 C    1.038    14 H    0.961
     5   6 C    3.987 --     4 C    1.659     6 C    1.264    15 H    0.961
     6   6 C    3.926 --     9 C    1.266     5 C    1.264     7 C    1.080
     7   6 C    3.981 --     6 C    1.080     8 N    1.023    17 H    0.903
                            16 H    0.902
     8   7 N    3.040 --     7 C    1.023    19 H    0.924    18 H    0.920
     9   6 C    3.985 --    10 C    1.655     6 C    1.266    20 H    0.956
    10   6 C    3.953 --     9 C    1.655     2 C    1.036    21 H    0.961
    11   1 H    0.993 --     1 C    0.974
    12   1 H    0.995 --     1 C    0.983
    13   1 H    0.993 --     1 C    0.975
    14   1 H    0.988 --     4 C    0.961
    15   1 H    0.989 --     5 C    0.961
    16   1 H    0.992 --     7 C    0.902
    17   1 H    0.982 --     7 C    0.903
    18   1 H    0.936 --     8 N    0.920
    19   1 H    0.941 --     8 N    0.924
    20   1 H    1.001 --     9 C    0.956
    21   1 H    0.989 --    10 C    0.961
 ---------------------------------------------------------------------------

           -------------------------------------------------
          | TOTAL ENERGY              -30.762224568760 Eh   |
          | GRADIENT NORM               0.000447288708 Eh/α |
          | HOMO-LUMO GAP               0.722207783872 eV   |
           -------------------------------------------------

 * finished run on 2023/06/20 at 15:14:35.513
