   * xtb version 6.5.1 (579679a) compiled by 'ehlert@majestix' on 2022-07-11
          program call               : /lustre/hpc/kemi/ree/PhD/git/ReactivityQM/dep/xtb-6.5.1/bin/xtb --gfn 1 /lustre/hpc/kemi/ree/PhD/git/ReactivityQM/calculations/R03/reac01prodN01/conf09/R03_reac01prodN01_conf09_gfn1.xyz --opt --vfukui --chrg 1 --uhf 0 --alpb DMSO

   ID    Z sym.   atoms
    1    6 C      1, 3-7, 9, 10
    2    7 N      2
    3    9 F      8
    4    1 H      11-21

      * Solvation model:               ALPB
        Solvent                        DMSO
        Solvent mass                       7.8130E+01 g/mol
          :  Hamiltonian                  GFN1-xTB          :
 * total energy  :   -30.8255565 Eh     change       -0.1524114E-11 Eh
 * total energy  :   -30.8291845 Eh     change       -0.3628010E-02 Eh
 * total energy  :   -30.8298088 Eh     change       -0.6243265E-03 Eh
 * total energy  :   -30.8298648 Eh     change       -0.5597782E-04 Eh
 * total energy  :   -30.8298786 Eh     change       -0.1374886E-04 Eh
 * total energy  :   -30.8298828 Eh     change       -0.4278858E-05 Eh
   *** GEOMETRY OPTIMIZATION CONVERGED AFTER 6 ITERATIONS ***

 final structure:
================
21
 xtb: 6.5.1 (579679a)
C           -3.26675516910364        0.12825861548226       -0.17403058446730
N           -1.83253480849179       -0.23314856594174       -0.28078022874370
C           -0.95190753881557        0.66893647114929        0.53159119967762
C            0.48561304481874        0.25646679145835        0.35562717617555
C            1.08024938141674       -0.61591802800325        1.26553372546801
C            2.40515531641414       -0.99583869625967        1.10869146267427
C            3.10990200197437       -0.49069308210791        0.02972209729728
F            4.38774247519576       -0.84898864542810       -0.12565529613984
C            2.54593635656067        0.37172712229599       -0.89474579269566
C            1.22121577014423        0.74465367596335       -0.72344697365723
H           -3.83464850202073       -0.56987071670340       -0.78405268204654
H           -3.56563685778296        0.05530596937758        0.86845448981233
H           -3.39461396632984        1.14479187312345       -0.53698459592024
H           -1.70701599809470       -1.19211476971874        0.03333223171670
H           -1.55014420166540       -0.18393012597993       -1.25675614122915
H           -1.12780999917525        1.68522523740726        0.17622786423610
H           -1.27715438153190        0.57893974089157        1.56870279712529
H            0.50584537710039       -0.99704497718124        2.10057088320642
H            2.88111880369153       -1.67067656625394        1.80833601727989
H            3.12948689832818        0.74299195548644       -1.72712793952858
H            0.75595699736706        1.42092572094236       -1.42955871024126

          :  Hamiltonian                  GFN1-xTB          :
         :: total energy             -30.829882842422 Eh    ::
         :: gradient norm              0.000740903201 Eh/a0 ::
         :: HOMO-LUMO gap              4.541803154646 eV    ::
         :: SCC energy               -31.241457260785 Eh    ::
         :: -> Gsolv                  -0.101344428121 Eh    ::
         :: repulsion energy           0.421300776476 Eh    ::

    * Orbital Energies and Occupations

         #    Occupation            Energy/Eh            Energy/eV
      -------------------------------------------------------------
         1        2.0000           -0.8856151             -24.0988
       ...           ...                  ...                  ...
        15        2.0000           -0.5955910             -16.2069
        16        2.0000           -0.5790293             -15.7562
        17        2.0000           -0.5676080             -15.4454
        18        2.0000           -0.5635697             -15.3355
        19        2.0000           -0.5597853             -15.2325
        20        2.0000           -0.5590396             -15.2122
        21        2.0000           -0.5536796             -15.0664
        22        2.0000           -0.5337262             -14.5234
        23        2.0000           -0.5321736             -14.4812
        24        2.0000           -0.5175511             -14.0833
        25        2.0000           -0.4919582             -13.3869
        26        2.0000           -0.4708519             -12.8125
        27        2.0000           -0.4596409             -12.5075 (HOMO)
        28                         -0.2927327              -7.9657 (LUMO)
        29                         -0.2917575              -7.9391
        30                         -0.1812518              -4.9321
        31                         -0.1729615              -4.7065
        32                         -0.1676990              -4.5633
        33                         -0.1559702              -4.2442
        34                         -0.1527121              -4.1555
        35                         -0.1164368              -3.1684
        36                         -0.1101841              -2.9983
        37                         -0.1024688              -2.7883
        38                         -0.0997754              -2.7150
       ...                                ...                  ...
        62                          0.6272940              17.0695
      -------------------------------------------------------------
                  HL-Gap            0.1669082 Eh            4.5418 eV

Wiberg/Mayer (AO) data.
largest (>0.10) Wiberg bond orders for each atom

     #   Z sym  total        # sym  WBO       # sym  WBO       # sym  WBO
 ---------------------------------------------------------------------------
     1   6 C    3.894 --    12 H    0.984    13 H    0.984    11 H    0.980
                             2 N    0.920
     2   7 N    3.607 --     1 C    0.920     3 C    0.894    15 H    0.893
                            14 H    0.892
     3   6 C    3.902 --     4 C    1.005    17 H    0.974    16 H    0.973
                             2 N    0.894
     4   6 C    3.983 --     5 C    1.414    10 C    1.412     3 C    1.005
     5   6 C    3.993 --     6 C    1.447     4 C    1.414    18 H    0.969
                             9 C    0.109
     6   6 C    3.991 --     5 C    1.447     7 C    1.396    19 H    0.967
                            10 C    0.109
     7   6 C    3.865 --     6 C    1.396     9 C    1.395     8 F    0.941
     8   9 F    1.074 --     7 C    0.941
     9   6 C    3.991 --    10 C    1.448     7 C    1.395    20 H    0.967
                             5 C    0.109
    10   6 C    3.993 --     9 C    1.448     4 C    1.412    21 H    0.970
                             6 C    0.109
    11   1 H    0.989 --     1 C    0.980
    12   1 H    0.991 --     1 C    0.984
    13   1 H    0.991 --     1 C    0.984
    14   1 H    0.920 --     2 N    0.892
    15   1 H    0.922 --     2 N    0.893
    16   1 H    0.995 --     3 C    0.973
    17   1 H    0.995 --     3 C    0.974
    18   1 H    0.996 --     5 C    0.969
    19   1 H    0.995 --     6 C    0.967
    20   1 H    0.995 --     9 C    0.967
    21   1 H    0.995 --    10 C    0.970
 ---------------------------------------------------------------------------

           -------------------------------------------------
          | TOTAL ENERGY              -30.829882842422 Eh   |
          | GRADIENT NORM               0.000740903201 Eh/α |
          | HOMO-LUMO GAP               4.541803154646 eV   |
           -------------------------------------------------

 * finished run on 2023/06/20 at 15:13:51.294
