   * xtb version 6.5.1 (579679a) compiled by 'ehlert@majestix' on 2022-07-11
          program call               : /lustre/hpc/kemi/ree/PhD/git/ReactivityQM/dep/xtb-6.5.1/bin/xtb --gfn 1 /lustre/hpc/kemi/ree/PhD/git/ReactivityQM/calculations/R02/reac01prodE14/conf09/R02_reac01prodE14_conf09_gfn1.xyz --opt --vfukui --chrg -1 --uhf 0 --alpb DMSO

   ID    Z sym.   atoms
    1    6 C      1, 3, 5, 7-10, 12, 14, 17, 18, 21, 23, 24
    2    8 O      2, 4, 13, 19, 22, 25
    3    7 N      6, 11, 15, 16, 20
    4    1 H      26-43

      * Solvation model:               ALPB
        Solvent                        DMSO
        Solvent mass                       7.8130E+01 g/mol
          :  Hamiltonian                  GFN1-xTB          :
 * total energy  :   -83.8637787 Eh     change       -0.6971561E-09 Eh
 * total energy  :   -83.8793622 Eh     change       -0.1558350E-01 Eh
 * total energy  :   -83.8854759 Eh     change       -0.6113710E-02 Eh
 * total energy  :   -83.8863708 Eh     change       -0.8949464E-03 Eh
 * total energy  :   -83.8868034 Eh     change       -0.4326244E-03 Eh
 * total energy  :   -83.8869868 Eh     change       -0.1834011E-03 Eh
 * total energy  :   -83.8871535 Eh     change       -0.1666118E-03 Eh
 * total energy  :   -83.8872820 Eh     change       -0.1285760E-03 Eh
 * total energy  :   -83.8873892 Eh     change       -0.1071589E-03 Eh
 * total energy  :   -83.8874847 Eh     change       -0.9552438E-04 Eh
 * total energy  :   -83.8881787 Eh     change       -0.1113920E-04 Eh
 * total energy  :   -83.8881849 Eh     change       -0.6256935E-05 Eh
 * total energy  :   -83.8881968 Eh     change       -0.1186776E-04 Eh
 * total energy  :   -83.8882044 Eh     change       -0.7643443E-05 Eh
 * total energy  :   -83.8882130 Eh     change       -0.8587469E-05 Eh
 * total energy  :   -83.8882199 Eh     change       -0.6886450E-05 Eh
 * total energy  :   -83.8882261 Eh     change       -0.6219118E-05 Eh
 * total energy  :   -83.8882315 Eh     change       -0.5367016E-05 Eh
 * total energy  :   -83.8882340 Eh     change       -0.2534054E-05 Eh
   *** GEOMETRY OPTIMIZATION CONVERGED AFTER 44 ITERATIONS ***

 final structure:
================
43
 xtb: 6.5.1 (579679a)
C            5.90616529626430        1.29872187105745       -1.69730539716255
O            4.87224045321669        1.13141387063301       -0.74399583065998
C            3.73051327342771        0.48773478748951       -1.21631301053650
O            3.69426847442240        0.12769312064332       -2.40163490906902
C            2.71145740882806        0.31751159903223       -0.25252558543486
N            1.58184690561970       -0.29734102733154       -0.71523689425772
C            0.56472916842297       -0.53159858394952        0.02462651751510
C           -0.65650123631674       -1.24889159818454       -0.50338235654108
C           -0.81136482571158       -2.61676102391466        0.18017036944407
C           -0.53986460913652       -1.40878387417781       -2.02265305855262
N           -1.83139651822163       -0.41361914506620       -0.18334541375147
C           -3.09750972038171       -0.73092740075135       -0.49704316568820
O           -3.46603648557094       -1.73973100314588       -1.07726259033666
C           -4.03687098293186        0.33243394045706       -0.03957612070939
N           -3.70826855261101        1.43813038366857        0.55738217036533
N           -4.86720401067352        2.11704702926157        0.79510599249776
C           -5.82779603964082        1.38125480946575        0.32691864895613
C           -7.27782116789811        1.67511920817782        0.33761670085899
O           -5.36850061189596        0.24227273369791       -0.21369987004325
N            0.54207016547762       -0.15888929487155        1.38730919804767
C            1.56503208322629        0.45915719199057        2.01407864205340
O            1.48427016491480        0.73983534634256        3.20937189586668
C            2.83100163678655        0.78990982448324        1.18677887682545
C            4.01420492073582        0.15016967919889        1.93893389193753
O            3.03224331580296        2.21179386885064        1.26441260538447
H            6.72279972960914        1.82406094528228       -1.20033540438485
H            6.26711800398195        0.32987324317746       -2.06324985013684
H            5.56216940209348        1.88907214988141       -2.55485530847336
H           -0.95486319962624       -2.48762827324215        1.25164881306378
H           -1.66622544644287       -3.15410096295314       -0.22665173487465
H            0.08887892909468       -3.20674140668207        0.01306228107745
H           -0.49791449134195       -0.42858039918206       -2.49662551272400
H           -1.39028449056303       -1.96209489131172       -2.41600586662921
H            0.37736348266048       -1.94894844596190       -2.25554444294885
H           -1.67259254693440        0.46124254845530        0.29465037385820
H           -7.82054336684861        0.85803888140182        0.81147901942937
H           -7.64578100112471        1.77642099608491       -0.68339069543802
H           -7.45956272215803        2.59891425242483        0.88098448598905
H           -0.26296895729001       -0.38576017400249        1.94681371624065
H            3.94650618843410       -0.93447363807268        1.87289149335219
H            3.98283014630593        0.44848196008346        2.98725719727118
H            4.95759326142303        0.47815735202745        1.50897663135355
H            2.42457057256751        2.66336554952845        0.67016549697132

          :  Hamiltonian                  GFN1-xTB          :
         :: total energy             -83.888234042564 Eh    ::
         :: gradient norm              0.000369671568 Eh/a0 ::
         :: HOMO-LUMO gap              0.829051023880 eV    ::
         :: SCC energy               -84.653324978517 Eh    ::
         :: -> Gsolv                  -0.117879636352 Eh    ::
         :: repulsion energy           0.791382352499 Eh    ::

    * Orbital Energies and Occupations

         #    Occupation            Energy/Eh            Energy/eV
      -------------------------------------------------------------
         1        2.0000           -0.8581248             -23.3508
       ...           ...                  ...                  ...
        56        2.0000           -0.4735772             -12.8867
        57        2.0000           -0.4705771             -12.8051
        58        2.0000           -0.4659790             -12.6799
        59        2.0000           -0.4554905             -12.3945
        60        2.0000           -0.4532545             -12.3337
        61        2.0000           -0.4451365             -12.1128
        62        2.0000           -0.4439421             -12.0803
        63        2.0000           -0.4353768             -11.8472
        64        2.0000           -0.4288537             -11.6697
        65        2.0000           -0.4182475             -11.3811
        66        2.0000           -0.4043132             -11.0019
        67        2.0000           -0.3872383             -10.5373
        68        2.0000           -0.3321416              -9.0380 (HOMO)
        69        0.0000           -0.3016745              -8.2090 (LUMO)
        70                         -0.2520419              -6.8584
        71                         -0.2454947              -6.6803
        72                         -0.2022585              -5.5037
        73                         -0.1899978              -5.1701
        74                         -0.1462398              -3.9794
        75                         -0.1401672              -3.8141
        76                         -0.1143768              -3.1124
        77                         -0.1136766              -3.0933
        78                         -0.1085510              -2.9538
        79                         -0.0972184              -2.6454
       ...                                ...                  ...
       136                          0.7324904              19.9321
      -------------------------------------------------------------
                  HL-Gap            0.0304671 Eh            0.8291 eV

Wiberg/Mayer (AO) data.
largest (>0.10) Wiberg bond orders for each atom

     #   Z sym  total        # sym  WBO       # sym  WBO       # sym  WBO
 ---------------------------------------------------------------------------
     1   6 C    3.911 --    26 H    0.987    27 H    0.981    28 H    0.981
                             2 O    0.940
     2   8 O    2.102 --     3 C    0.962     1 C    0.940
     3   6 C    3.865 --     4 O    1.491     5 C    1.285     2 O    0.962
     4   8 O    1.791 --     3 C    1.491     5 C    0.107
     5   6 C    3.853 --     3 C    1.285     6 N    1.206    23 C    0.977
                             7 C    0.109     4 O    0.107
     6   7 N    3.054 --     7 C    1.623     5 C    1.206
     7   6 C    3.902 --     6 N    1.623    20 N    0.992     8 C    0.983
                             5 C    0.109
     8   6 C    3.926 --    10 C    0.995     9 C    0.984     7 C    0.983
                            11 N    0.902
     9   6 C    3.990 --    31 H    0.986    29 H    0.984     8 C    0.984
                            30 H    0.981
    10   6 C    3.993 --     8 C    0.995    32 H    0.986    33 H    0.984
                            34 H    0.984
    11   7 N    3.361 --    12 C    1.280     8 C    0.902    35 H    0.898
                            13 O    0.184
    12   6 C    3.921 --    13 O    1.579    11 N    1.280    14 C    0.982
    13   8 O    1.898 --    12 C    1.579    11 N    0.184
    14   6 C    3.871 --    15 N    1.615    19 O    1.063    12 C    0.982
    15   7 N    3.014 --    14 C    1.615    16 N    1.194
    16   7 N    2.980 --    17 C    1.611    15 N    1.194
    17   6 C    3.873 --    16 N    1.611    19 O    1.081    18 C    1.031
    18   6 C    3.987 --    17 C    1.031    38 H    0.983    36 H    0.966
                            37 H    0.963
    19   8 O    2.327 --    17 C    1.081    14 C    1.063
    20   7 N    3.396 --    21 C    1.238     7 C    0.992    39 H    0.901
                            22 O    0.143
    21   6 C    3.882 --    22 O    1.574    20 N    1.238    23 C    0.927
    22   8 O    1.857 --    21 C    1.574    20 N    0.143
    23   6 C    3.908 --    24 C    0.979     5 C    0.977    21 C    0.927
                            25 O    0.920
    24   6 C    3.996 --    40 H    0.989    41 H    0.985    42 H    0.982
                            23 C    0.979
    25   8 O    1.885 --    23 C    0.920    43 H    0.869
    26   1 H    1.018 --     1 C    0.987
    27   1 H    1.018 --     1 C    0.981
    28   1 H    1.019 --     1 C    0.981
    29   1 H    1.004 --     9 C    0.984
    30   1 H    1.010 --     9 C    0.981
    31   1 H    1.005 --     9 C    0.986
    32   1 H    1.011 --    10 C    0.986
    33   1 H    1.011 --    10 C    0.984
    34   1 H    1.015 --    10 C    0.984
    35   1 H    0.959 --    11 N    0.898
    36   1 H    0.997 --    18 C    0.966
    37   1 H    0.997 --    18 C    0.963
    38   1 H    0.999 --    18 C    0.983
    39   1 H    0.949 --    20 N    0.901
    40   1 H    1.012 --    24 C    0.989
    41   1 H    1.014 --    24 C    0.985
    42   1 H    1.021 --    24 C    0.982
    43   1 H    0.899 --    25 O    0.869
 ---------------------------------------------------------------------------

           -------------------------------------------------
          | TOTAL ENERGY              -83.888234042564 Eh   |
          | GRADIENT NORM               0.000369671568 Eh/α |
          | HOMO-LUMO GAP               0.829051023880 eV   |
           -------------------------------------------------

 * finished run on 2023/06/20 at 15:16:03.333
