   * xtb version 6.5.1 (579679a) compiled by 'ehlert@majestix' on 2022-07-11
          program call               : /lustre/hpc/kemi/ree/PhD/git/ReactivityQM/dep/xtb-6.5.1/bin/xtb --gfn 1 /lustre/hpc/kemi/ree/PhD/git/ReactivityQM/calculations/R02methylcation/reac01prodE07/conf05/R02methylcation_reac01prodE07_conf05_gfn1.xyz --opt --vfukui --chrg -2 --uhf 0 --alpb DMSO

   ID    Z sym.   atoms
    1    6 C      1, 3, 5, 7-10, 12, 14, 15, 18, 19, 22, 24
    2    8 O      2, 4, 13, 20, 23, 25
    3    7 N      6, 11, 16, 17, 21
    4    1 H      26-42

      * Solvation model:               ALPB
        Solvent                        DMSO
        Solvent mass                       7.8130E+01 g/mol
          :  Hamiltonian                  GFN1-xTB          :
 * total energy  :   -83.5824822 Eh     change       -0.8724470E-09 Eh
 * total energy  :   -83.5973160 Eh     change       -0.1483376E-01 Eh
 * total energy  :   -83.6038112 Eh     change       -0.6495202E-02 Eh
 * total energy  :   -83.6051489 Eh     change       -0.1337746E-02 Eh
 * total energy  :   -83.6062954 Eh     change       -0.1146489E-02 Eh
 * total energy  :   -83.6069412 Eh     change       -0.6457796E-03 Eh
 * total energy  :   -83.6074883 Eh     change       -0.5470760E-03 Eh
 * total energy  :   -83.6078428 Eh     change       -0.3544818E-03 Eh
 * total energy  :   -83.6081171 Eh     change       -0.2743418E-03 Eh
 * total energy  :   -83.6083979 Eh     change       -0.2807920E-03 Eh
 * total energy  :   -83.6155164 Eh     change       -0.2888199E-04 Eh
 * total energy  :   -83.6155440 Eh     change       -0.2754275E-04 Eh
 * total energy  :   -83.6155709 Eh     change       -0.2690209E-04 Eh
 * total energy  :   -83.6155968 Eh     change       -0.2590509E-04 Eh
 * total energy  :   -83.6156196 Eh     change       -0.2288530E-04 Eh
 * total energy  :   -83.6156399 Eh     change       -0.2025005E-04 Eh
 * total energy  :   -83.6156580 Eh     change       -0.1805723E-04 Eh
 * total energy  :   -83.6156773 Eh     change       -0.1938923E-04 Eh
 * total energy  :   -83.6156823 Eh     change       -0.4911407E-05 Eh
   *** GEOMETRY OPTIMIZATION CONVERGED AFTER 68 ITERATIONS ***

 final structure:
================
42
 xtb: 6.5.1 (579679a)
C            6.19410621438215        2.47236818565117        1.23212744208260
O            5.22579194069315        2.23074869067189        0.22461995627197
C            4.17783335731351        1.44065576183315        0.58896971336615
O            4.11431155190162        0.98957982789502        1.72892291674679
C            3.20068504558230        1.20238951271365       -0.45811268270397
N            2.14672640082182        0.40558678210737       -0.03617285386432
C            1.20116694845432        0.10031758332390       -0.84633544489253
C            0.06584837824423       -0.81728058169322       -0.43877248737561
C            0.48168394027449       -2.25737546406126       -0.77699511311750
C           -0.20749705099679       -0.67732291622096        1.06572485898262
N           -1.11227060342900       -0.44468009450133       -1.24676876214743
C           -2.30021634456223       -1.23010648737166       -0.98142659809188
O           -2.45098743138138       -2.34109939469042       -1.86464029885144
C           -2.96714861882711       -3.50093960788026       -1.24640481598145
C           -3.40051430633456       -0.65401389421129       -0.40244687583334
N           -4.65677751065073       -1.15229618248035       -0.28371294828028
N           -5.34413174564178       -0.25935658512608        0.51796455350398
C           -4.53927540802021        0.68735645768830        0.84359502760124
C           -4.83162714299668        1.87539429860266        1.69074757194489
O           -3.27649003938674        0.53157149357168        0.31575735986589
N            1.19830786424805        0.53368339426717       -2.15494284028039
C            2.16558489013534        1.32366484558232       -2.70392835627051
O            2.08103479425457        1.67379685083523       -3.88347383089008
C            3.29996879816581        1.70748552075931       -1.78057092105069
O            4.21994008679373        2.42093555772921       -2.23259455766154
H            6.65053491458601        1.53522038572821        1.56716798504079
H            5.74249638583299        2.97022855764582        2.09648291530078
H            6.95738269083103        3.11609310382326        0.79632686870961
H            0.55973129944367       -2.37677659461374       -1.85781260331065
H           -0.25655356103935       -2.96299118904992       -0.39912826784385
H            1.44561165830845       -2.48511784287824       -0.32229629587494
H            0.70445788755442       -0.87527340105232        1.62894476094625
H           -0.55059399735535        0.33236041102188        1.29141476812939
H           -0.97832861828156       -1.38583719762009        1.36817240841209
H           -1.33480305200333        0.52618932495194       -1.02301036905216
H           -2.38093643984971       -3.78542620168431       -0.35963834120094
H           -4.01395524792452       -3.35841660415085       -0.93572985039152
H           -2.92054500856470       -4.31387837470573       -1.97611299566217
H           -5.88592097392138        1.87324111953714        1.96054546334618
H           -4.23340859002207        1.86017472401143        2.60376966760004
H           -4.60267448468331        2.79786782725283        1.15432798787436
H            0.41145212805765        0.27127939679368       -2.73542811509092

          :  Hamiltonian                  GFN1-xTB          :
         :: total energy             -83.615682256301 Eh    ::
         :: gradient norm              0.000360684575 Eh/a0 ::
         :: HOMO-LUMO gap              0.464144371078 eV    ::
         :: SCC energy               -84.346980157820 Eh    ::
         :: -> Gsolv                  -0.255894230700 Eh    ::
         :: repulsion energy           0.757206767012 Eh    ::

    * Orbital Energies and Occupations

         #    Occupation            Energy/Eh            Energy/eV
      -------------------------------------------------------------
         1        2.0000           -0.7901369             -21.5007
       ...           ...                  ...                  ...
        56        2.0000           -0.4421615             -12.0318
        57        2.0000           -0.4272284             -11.6255
        58        2.0000           -0.4250144             -11.5652
        59        2.0000           -0.4236645             -11.5285
        60        2.0000           -0.4131712             -11.2430
        61        2.0000           -0.4006654             -10.9027
        62        2.0000           -0.3944904             -10.7346
        63        2.0000           -0.3795875             -10.3291
        64        2.0000           -0.3713291             -10.1044
        65        2.0000           -0.3659123              -9.9570
        66        2.0000           -0.3622722              -9.8579
        67        2.0000           -0.3522698              -9.5857
        68        1.9997           -0.2760638              -7.5121 (HOMO)
        69        0.0003           -0.2590068              -7.0479 (LUMO)
        70                         -0.2207060              -6.0057
        71                         -0.1859214              -5.0592
        72                         -0.1798433              -4.8938
        73                         -0.1372238              -3.7341
        74                         -0.1177938              -3.2053
        75                         -0.1119603              -3.0466
        76                         -0.1041224              -2.8333
        77                         -0.0968442              -2.6353
        78                         -0.0928128              -2.5256
        79                         -0.0910163              -2.4767
       ...                                ...                  ...
       134                          0.7574573              20.6115
      -------------------------------------------------------------
                  HL-Gap            0.0170570 Eh            0.4641 eV

Wiberg/Mayer (AO) data.
largest (>0.10) Wiberg bond orders for each atom

     #   Z sym  total        # sym  WBO       # sym  WBO       # sym  WBO
 ---------------------------------------------------------------------------
     1   6 C    3.903 --    28 H    0.987    26 H    0.980    27 H    0.980
                             2 O    0.930
     2   8 O    2.153 --     3 C    1.036     1 C    0.930     4 O    0.107
     3   6 C    3.848 --     4 O    1.567     5 C    1.126     2 O    1.036
     4   8 O    1.844 --     3 C    1.567     2 O    0.107
     5   6 C    3.919 --    24 C    1.279     6 N    1.145     3 C    1.126
                            25 O    0.130
     6   7 N    3.020 --     7 C    1.632     5 C    1.145
     7   6 C    3.926 --     6 N    1.632    21 N    1.098     8 C    0.979
     8   6 C    3.972 --    10 C    0.988     9 C    0.982     7 C    0.979
                            11 N    0.961
     9   6 C    3.994 --    31 H    0.988    29 H    0.986     8 C    0.982
                            30 H    0.980
    10   6 C    3.997 --     8 C    0.988    33 H    0.985    34 H    0.985
                            32 H    0.985
    11   7 N    3.039 --    12 C    0.962     8 C    0.961    35 H    0.943
    12   6 C    3.680 --    15 C    1.477    11 N    0.962    13 O    0.903
                            16 N    0.151
    13   8 O    2.001 --    14 C    0.961    12 C    0.903
    14   6 C    3.932 --    38 H    0.985    36 H    0.977    37 H    0.975
                            13 O    0.961
    15   6 C    3.862 --    12 C    1.477    16 N    1.283    20 O    0.955
    16   7 N    2.823 --    15 C    1.283    17 N    1.147    12 C    0.151
                            18 C    0.119
    17   7 N    2.987 --    18 C    1.678    16 N    1.147
    18   6 C    3.885 --    17 N    1.678    19 C    1.018    20 O    0.991
                            16 N    0.119
    19   6 C    3.996 --    18 C    1.018    39 H    0.987    41 H    0.976
                            40 H    0.975
    20   8 O    2.180 --    18 C    0.991    15 C    0.955
    21   7 N    3.440 --    22 C    1.181     7 C    1.098    42 H    0.889
                            23 O    0.136
    22   6 C    3.884 --    23 O    1.556    21 N    1.181    24 C    0.973
    23   8 O    1.837 --    22 C    1.556    21 N    0.136
    24   6 C    3.944 --    25 O    1.503     5 C    1.279    22 C    0.973
    25   8 O    1.808 --    24 C    1.503     5 C    0.130
    26   1 H    1.015 --     1 C    0.980
    27   1 H    1.015 --     1 C    0.980
    28   1 H    1.016 --     1 C    0.987
    29   1 H    1.013 --     9 C    0.986
    30   1 H    1.012 --     9 C    0.980
    31   1 H    1.009 --     9 C    0.988
    32   1 H    1.017 --    10 C    0.985
    33   1 H    1.012 --    10 C    0.985
    34   1 H    1.017 --    10 C    0.985
    35   1 H    0.980 --    11 N    0.943
    36   1 H    1.026 --    14 C    0.977
    37   1 H    1.047 --    14 C    0.975
    38   1 H    1.023 --    14 C    0.985
    39   1 H    1.008 --    19 C    0.987
    40   1 H    1.007 --    19 C    0.975
    41   1 H    1.007 --    19 C    0.976
    42   1 H    0.968 --    21 N    0.889
 ---------------------------------------------------------------------------

           -------------------------------------------------
          | TOTAL ENERGY              -83.615682256301 Eh   |
          | GRADIENT NORM               0.000360684575 Eh/α |
          | HOMO-LUMO GAP               0.464144371078 eV   |
           -------------------------------------------------

 * finished run on 2023/06/21 at 17:16:08.818
