   * xtb version 6.5.1 (579679a) compiled by 'ehlert@majestix' on 2022-07-11
          program call               : /lustre/hpc/kemi/ree/PhD/git/ReactivityQM/dep/xtb-6.5.1/bin/xtb --gfn 1 /lustre/hpc/kemi/ree/PhD/git/ReactivityQM/calculations/R03/reac02prodE02/conf11/R03_reac02prodE02_conf11_gfn1.xyz --opt --vfukui --chrg -1 --uhf 0 --alpb DMSO

   ID    Z sym.   atoms
    1    6 C      1, 3, 4, 6, 8-11, 13, 15, 18, 19, 22, 23, 25
    2    8 O      2, 5, 14, 20, 24, 26
    3    7 N      7, 12, 16, 17, 21
    4    1 H      27-46

      * Solvation model:               ALPB
        Solvent                        DMSO
        Solvent mass                       7.8130E+01 g/mol
          :  Hamiltonian                  GFN1-xTB          :
 * total energy  :   -87.0238524 Eh     change       -0.2879119E-10 Eh
 * total energy  :   -87.0365419 Eh     change       -0.1268949E-01 Eh
 * total energy  :   -87.0415648 Eh     change       -0.5022927E-02 Eh
 * total energy  :   -87.0428040 Eh     change       -0.1239192E-02 Eh
 * total energy  :   -87.0435497 Eh     change       -0.7456939E-03 Eh
 * total energy  :   -87.0439843 Eh     change       -0.4346462E-03 Eh
 * total energy  :   -87.0442818 Eh     change       -0.2974174E-03 Eh
 * total energy  :   -87.0444793 Eh     change       -0.1975905E-03 Eh
 * total energy  :   -87.0446195 Eh     change       -0.1401649E-03 Eh
 * total energy  :   -87.0447371 Eh     change       -0.1175808E-03 Eh
 * total energy  :   -87.0467117 Eh     change       -0.1876423E-04 Eh
 * total energy  :   -87.0467337 Eh     change       -0.2204879E-04 Eh
 * total energy  :   -87.0467519 Eh     change       -0.1813711E-04 Eh
 * total energy  :   -87.0467577 Eh     change       -0.5806811E-05 Eh
 * total energy  :   -87.0467774 Eh     change       -0.1967340E-04 Eh
 * total energy  :   -87.0467832 Eh     change       -0.5858687E-05 Eh
 * total energy  :   -87.0467921 Eh     change       -0.8866342E-05 Eh
 * total energy  :   -87.0467970 Eh     change       -0.4872374E-05 Eh
 * total energy  :   -87.0468016 Eh     change       -0.4651997E-05 Eh
   *** GEOMETRY OPTIMIZATION CONVERGED AFTER 77 ITERATIONS ***

 final structure:
================
46
 xtb: 6.5.1 (579679a)
C           -3.40976712336690        1.96032830226293        1.91168676329640
O           -3.94078539126183        1.59182267391295        0.66507856180730
C           -4.21279275695383        0.10870971588523        0.52743436251244
C           -5.35851555167586        0.10505166277755       -0.54356969223840
O           -4.47481464244788       -0.48910022249217        1.63788003154119
C           -2.91213184985171       -0.47118555673989       -0.18930447513471
N           -1.79579827181358        0.31543236700062       -0.23471158572753
C           -0.67489790887526       -0.09645289167238       -0.73103067704999
C            0.46737009797700        0.91615496688561       -0.76245657436024
C            0.05268865604972        2.18241115222009       -0.00003694870530
C            0.80511376606743        1.28663486251935       -2.21374394003726
N            1.62446680930134        0.32697276374607       -0.07083742395604
C            2.84490069009506        0.89990749142428       -0.02079669161360
O            3.19585506711096        1.89741196104708       -0.62516668939400
C            3.74792341830349        0.12480876814602        0.87291602487862
N            3.41754951463326       -0.91895796344043        1.57205991204597
N            4.53622493732849       -1.31175664522990        2.24471265563160
C            5.47728818863068       -0.48196157629192        1.91203281218149
C            6.88486729591870       -0.48042712175510        2.36674675333792
O            5.04127153288266        0.44926423274245        1.05015773545058
N           -0.53027255530766       -1.36260578212328       -1.24073131914807
C            0.68251574767344       -1.90019872101528       -1.85249874726499
C           -1.60571727175164       -2.24360111079200       -1.25524658463793
O           -1.49695991947400       -3.37807940825028       -1.73751900898013
C           -2.82721331569028       -1.74256012358162       -0.68304216257299
O           -3.87273362970719       -2.61762379123046       -0.70474163241018
H           -3.40272566676330        3.05431736641623        1.96458905505040
H           -2.37503043938531        1.60111918759662        2.04213811493695
H           -4.01269799110729        1.57466070900586        2.74998805390703
H           -6.21823474737538        0.62294138650731       -0.12081082899642
H           -5.63825795019654       -0.92036633866869       -0.77243771484562
H           -5.04113074918185        0.61287717322612       -1.45283280388092
H            0.87198308733962        2.89854601622748       -0.01045139656623
H           -0.81978142069786        2.62877804918786       -0.47460448748449
H           -0.19318664434998        1.93676977680652        1.03207815823694
H           -0.11866746159368        1.51787399506202       -2.74307182792647
H            1.31043866862863        0.47378571351599       -2.72817245599513
H            1.45033279883000        2.16243840680590       -2.23959133181679
H            1.44611456897130       -0.42300564274207        0.58238303938369
H            7.55134635308029       -0.58355852770264        1.51067642750759
H            7.04804058058732       -1.30462418299425        3.05648681350674
H            7.11650159798709        0.46223595245138        2.86212320188454
H            1.56078941347809       -1.35687679458357       -1.52417748217936
H            0.59476549342924       -1.84815406224343       -2.93826078215332
H            0.77392278446890       -2.94663042210848       -1.55929205231255
H           -3.57015580995179       -3.43559076771130       -1.13203415969914

          :  Hamiltonian                  GFN1-xTB          :
         :: total energy             -87.046801615447 Eh    ::
         :: gradient norm              0.000701730583 Eh/a0 ::
         :: HOMO-LUMO gap              0.889984546960 eV    ::
         :: SCC energy               -87.843747755524 Eh    ::
         :: -> Gsolv                  -0.131588237513 Eh    ::
         :: repulsion energy           0.826607514128 Eh    ::

    * Orbital Energies and Occupations

         #    Occupation            Energy/Eh            Energy/eV
      -------------------------------------------------------------
         1        2.0000           -0.8619710             -23.4554
       ...           ...                  ...                  ...
        59        2.0000           -0.4624226             -12.5832
        60        2.0000           -0.4594481             -12.5022
        61        2.0000           -0.4578761             -12.4594
        62        2.0000           -0.4501858             -12.2502
        63        2.0000           -0.4463006             -12.1445
        64        2.0000           -0.4429847             -12.0542
        65        2.0000           -0.4346953             -11.8287
        66        2.0000           -0.4322513             -11.7622
        67        2.0000           -0.4173818             -11.3575
        68        2.0000           -0.4027826             -10.9603
        69        2.0000           -0.3925117             -10.6808
        70        2.0000           -0.3606301              -9.8132
        71        2.0000           -0.3407316              -9.2718 (HOMO)
        72                         -0.3080253              -8.3818 (LUMO)
        73                         -0.2733354              -7.4378
        74                         -0.2553940              -6.9496
        75                         -0.2479083              -6.7459
        76                         -0.1965357              -5.3480
        77                         -0.1415315              -3.8513
        78                         -0.1399930              -3.8094
        79                         -0.1329475              -3.6177
        80                         -0.1177406              -3.2039
        81                         -0.1167968              -3.1782
        82                         -0.0951312              -2.5887
       ...                                ...                  ...
       144                          0.7300371              19.8653
      -------------------------------------------------------------
                  HL-Gap            0.0327063 Eh            0.8900 eV

Wiberg/Mayer (AO) data.
largest (>0.10) Wiberg bond orders for each atom

     #   Z sym  total        # sym  WBO       # sym  WBO       # sym  WBO
 ---------------------------------------------------------------------------
     1   6 C    3.936 --    27 H    0.985     2 O    0.977    28 H    0.976
                            29 H    0.975
     2   8 O    1.943 --     1 C    0.977     3 C    0.789
     3   6 C    3.896 --     5 O    1.251     4 C    0.930     6 C    0.873
                             2 O    0.789
     4   6 C    3.991 --    32 H    0.991    30 H    0.987    31 H    0.986
                             3 C    0.930
     5   8 O    1.540 --     3 C    1.251
     6   6 C    3.914 --    25 C    1.512     7 N    1.206     3 C    0.873
     7   7 N    3.043 --     8 C    1.569     6 C    1.206
     8   6 C    3.937 --     7 N    1.569    21 N    1.167     9 C    0.973
     9   6 C    3.930 --    10 C    0.991    11 C    0.986     8 C    0.973
                            12 N    0.913
    10   6 C    3.992 --     9 C    0.991    34 H    0.984    33 H    0.984
                            35 H    0.983
    11   6 C    3.990 --     9 C    0.986    36 H    0.985    37 H    0.981
                            38 H    0.979
    12   7 N    3.353 --    13 C    1.252     9 C    0.913    39 H    0.897
                            14 O    0.177
    13   6 C    3.918 --    14 O    1.595    12 N    1.252    15 C    0.985
    14   8 O    1.911 --    13 C    1.595    12 N    0.177
    15   6 C    3.874 --    16 N    1.612    20 O    1.065    13 C    0.985
    16   7 N    3.017 --    15 C    1.612    17 N    1.197
    17   7 N    2.981 --    18 C    1.608    16 N    1.197
    18   6 C    3.871 --    17 N    1.608    20 O    1.082    19 C    1.031
    19   6 C    3.987 --    18 C    1.031    41 H    0.983    42 H    0.964
                            40 H    0.963
    20   8 O    2.330 --    18 C    1.082    15 C    1.065
    21   7 N    3.493 --     8 C    1.167    23 C    1.108    22 C    0.938
                            24 O    0.122
    22   6 C    3.934 --    43 H    0.979    44 H    0.977    45 H    0.976
                            21 N    0.938
    23   6 C    3.911 --    24 O    1.504    25 C    1.134    21 N    1.108
    24   8 O    1.850 --    23 C    1.504    21 N    0.122
    25   6 C    3.912 --     6 C    1.512    23 C    1.134    26 O    1.040
    26   8 O    2.030 --    25 C    1.040    46 H    0.829
    27   1 H    1.023 --     1 C    0.985
    28   1 H    1.029 --     1 C    0.976
    29   1 H    1.035 --     1 C    0.975
    30   1 H    1.019 --     4 C    0.987
    31   1 H    1.023 --     4 C    0.986
    32   1 H    1.013 --     4 C    0.991
    33   1 H    1.006 --    10 C    0.984
    34   1 H    1.013 --    10 C    0.984
    35   1 H    1.015 --    10 C    0.983
    36   1 H    1.003 --    11 C    0.985
    37   1 H    1.003 --    11 C    0.981
    38   1 H    1.013 --    11 C    0.979
    39   1 H    0.957 --    12 N    0.897
    40   1 H    0.997 --    19 C    0.963
    41   1 H    0.999 --    19 C    0.983
    42   1 H    0.997 --    19 C    0.964
    43   1 H    1.011 --    22 C    0.979
    44   1 H    1.005 --    22 C    0.977
    45   1 H    1.011 --    22 C    0.976
    46   1 H    0.871 --    26 O    0.829
 ---------------------------------------------------------------------------

           -------------------------------------------------
          | TOTAL ENERGY              -87.046801615447 Eh   |
          | GRADIENT NORM               0.000701730583 Eh/α |
          | HOMO-LUMO GAP               0.889984546960 eV   |
           -------------------------------------------------

 * finished run on 2023/06/20 at 15:15:41.458
