                         Program Version 5.0.1 -  RELEASE  -
|  1> # ORCA input file
|  2> ! SP r2SCAN-3c CPCM
|  3>
|  4> %maxcore 1875.0
|  5> %pal nprocs 4 end
|  6> %cpcm smd true SMDsolvent "DMSO" end
|  7>
|  8> *xyz -1 1
|  9> C       2.533468    1.074676    0.601416
| 10> C       1.599984    0.329521   -0.407939
| 11> C       0.162974    0.803479   -0.298617
| 12> C      -0.835000    0.046918    0.259547
| 13> C      -2.224854    0.637496    0.390477
| 14> N      -3.106860    0.133159   -0.680227
| 15> C      -0.646844   -1.294669    0.652242
| 16> C       0.610694   -1.886444    0.373876
| 17> C       1.606319   -1.148902   -0.162827
| 18> F       2.806542   -1.775062   -0.502187
| 19> H       2.200851    0.890069    1.623527
| 20> H       2.505683    2.148826    0.413927
| 21> H       3.561921    0.724856    0.496813
| 22> H       2.009344    0.551137   -1.414779
| 23> H      -0.031149    1.819266   -0.635750
| 24> H      -2.192940    1.731022    0.307114
| 25> H      -2.651961    0.388589    1.376401
| 26> H      -3.197105   -0.870781   -0.570169
| 27> H      -4.027073    0.523961   -0.536364
| 28> H      -1.449757   -1.879333    1.084387
| 29> H       0.765761   -2.947782    0.552380
| 30> **                         ****END OF INPUT****

CARTESIAN COORDINATES (ANGSTROEM)
---------------------------------
  C      2.533468    1.074676    0.601416
  C      1.599984    0.329521   -0.407939
  C      0.162974    0.803479   -0.298617
  C     -0.835000    0.046918    0.259547
  C     -2.224854    0.637496    0.390477
  N     -3.106860    0.133159   -0.680227
  C     -0.646844   -1.294669    0.652242
  C      0.610694   -1.886444    0.373876
  C      1.606319   -1.148902   -0.162827
  F      2.806542   -1.775062   -0.502187
  H      2.200851    0.890069    1.623527
  H      2.505683    2.148826    0.413927
  H      3.561921    0.724856    0.496813
  H      2.009344    0.551137   -1.414779
  H     -0.031149    1.819266   -0.635750
  H     -2.192940    1.731022    0.307114
  H     -2.651961    0.388589    1.376401
  H     -3.197105   -0.870781   -0.570169
  H     -4.027073    0.523961   -0.536364
  H     -1.449757   -1.879333    1.084387
  H      0.765761   -2.947782    0.552380

 Total Charge           Charge          ....   -1
 Multiplicity           Mult            ....    1
 Number of Electrons    NEL             ....   76
 Basis Dimension        Dim             ....  255

ORBITAL ENERGIES
----------------

  NO   OCC          E(Eh)            E(eV)
   0   2.0000     -24.458251      -665.5429
   1   2.0000     -14.124023      -384.3342
   2   2.0000     -10.053404      -273.5670
   3   2.0000     -10.034411      -273.0502
   4   2.0000     -10.022799      -272.7342
   5   2.0000     -10.000603      -272.1303
   6   2.0000      -9.998467      -272.0721
   7   2.0000      -9.995908      -272.0025
   8   2.0000      -9.976339      -271.4700
   9   2.0000      -9.965459      -271.1739
  10   2.0000      -1.135046       -30.8862
  11   2.0000      -0.832884       -22.6639
  12   2.0000      -0.774115       -21.0647
  13   2.0000      -0.703655       -19.1474
  14   2.0000      -0.684088       -18.6150
  15   2.0000      -0.612702       -16.6725
  16   2.0000      -0.592911       -16.1339
  17   2.0000      -0.542270       -14.7559
  18   2.0000      -0.513649       -13.9771
  19   2.0000      -0.460527       -12.5316
  20   2.0000      -0.444768       -12.1027
  21   2.0000      -0.415696       -11.3117
  22   2.0000      -0.404255       -11.0003
  23   2.0000      -0.397302       -10.8111
  24   2.0000      -0.386641       -10.5210
  25   2.0000      -0.368367       -10.0238
  26   2.0000      -0.362520        -9.8647
  27   2.0000      -0.348707        -9.4888
  28   2.0000      -0.341063        -9.2808
  29   2.0000      -0.326727        -8.8907
  30   2.0000      -0.314863        -8.5679
  31   2.0000      -0.298443        -8.1210
  32   2.0000      -0.277008        -7.5378
  33   2.0000      -0.263021        -7.1572
  34   2.0000      -0.259528        -7.0621
  35   2.0000      -0.201612        -5.4862
  36   2.0000      -0.193244        -5.2584
  37   2.0000      -0.091621        -2.4931
  38   0.0000       0.012888         0.3507
  39   0.0000       0.077988         2.1222
  40   0.0000       0.088081         2.3968
  41   0.0000       0.092313         2.5120
  42   0.0000       0.108483         2.9520

MULLIKEN ATOMIC CHARGES
-----------------------
   0 C :   -0.516516
   1 C :    0.011746
   2 C :   -0.621988
   3 C :    0.201832
   4 C :   -0.263061
   5 N :   -0.657624
   6 C :   -0.583560
   7 C :   -0.297572
   8 C :    0.095927
   9 F :   -0.304060
  10 H :    0.152275
  11 H :    0.150540
  12 H :    0.147874
  13 H :    0.135763
  14 H :    0.165021
  15 H :    0.147748
  16 H :    0.133947
  17 H :    0.290381
  18 H :    0.277416
  19 H :    0.167606
  20 H :    0.166303
Sum of atomic charges:   -1.0000000

LOEWDIN ATOMIC CHARGES
----------------------
   0 C :   -0.446343
   1 C :   -0.205125
   2 C :   -0.360879
   3 C :   -0.111187
   4 C :   -0.063310
   5 N :   -0.769413
   6 C :   -0.440784
   7 C :   -0.221918
   8 C :    0.088719
   9 F :   -0.380006
  10 H :    0.151946
  11 H :    0.151196
  12 H :    0.150033
  13 H :    0.148083
  14 H :    0.158964
  15 H :    0.174141
  16 H :    0.158376
  17 H :    0.242253
  18 H :    0.240268
  19 H :    0.159303
  20 H :    0.175681

  Mayer bond orders larger than 0.100000
B(  0-C ,  1-C ) :   0.8239 B(  0-C , 10-H ) :   0.9887 B(  0-C , 11-H ) :   0.9769
B(  0-C , 12-H ) :   0.9703 B(  1-C ,  2-C ) :   0.9188 B(  1-C ,  8-C ) :   1.0284
B(  1-C , 13-H ) :   0.9926 B(  2-C ,  3-C ) :   1.5387 B(  2-C ,  8-C ) :   0.1180
B(  2-C , 14-H ) :   0.9759 B(  3-C ,  4-C ) :   0.8640 B(  3-C ,  6-C ) :   1.2250
B(  4-C ,  5-N ) :   0.9495 B(  4-C , 15-H ) :   0.9979 B(  4-C , 16-H ) :   0.9940
B(  5-N , 17-H ) :   0.9030 B(  5-N , 18-H ) :   0.9021 B(  6-C ,  7-C ) :   1.1486
B(  6-C , 19-H ) :   0.9874 B(  7-C ,  8-C ) :   1.6451 B(  7-C , 20-H ) :   0.9533
B(  8-C ,  9-F ) :   0.8112

Dispersion correction           -0.007131010
FINAL SINGLE POINT ENERGY      -466.021515156824

DIPOLE MOMENT
-------------
                                X             Y             Z
Electronic contribution:      6.85660      -7.03232      -2.43371
Nuclear contribution   :     -7.71699       7.62064       2.95444
                        -----------------------------------------
Total Dipole Moment    :     -0.86039       0.58832       0.52073
                        -----------------------------------------
Magnitude (a.u.)       :      1.16514
Magnitude (Debye)      :      2.96154

Rotational constants in cm-1:     0.084863     0.027466     0.022887
Rotational constants in MHz :  2544.137190   823.417468   686.127016

                             ****ORCA TERMINATED NORMALLY****
TOTAL RUN TIME: 0 days 0 hours 0 minutes 19 seconds 919 msec
