   * xtb version 6.5.1 (579679a) compiled by 'ehlert@majestix' on 2022-07-11
          program call               : /lustre/hpc/kemi/ree/PhD/git/ReactivityQM/dep/xtb-6.5.1/bin/xtb --gfn 1 /lustre/hpc/kemi/ree/PhD/git/ReactivityQM/calculations/R03/reac01prodE03/conf08/R03_reac01prodE03_conf08_gfn1.xyz --opt --vfukui --chrg -1 --uhf 0 --alpb DMSO

   ID    Z sym.   atoms
    1    6 C      1-5, 7-9
    2    7 N      6
    3    9 F      10
    4    1 H      11-21

      * Solvation model:               ALPB
        Solvent                        DMSO
        Solvent mass                       7.8130E+01 g/mol
          :  Hamiltonian                  GFN1-xTB          :
 * total energy  :   -31.4508535 Eh     change       -0.3428369E-11 Eh
 * total energy  :   -31.4568138 Eh     change       -0.5960289E-02 Eh
 * total energy  :   -31.4580669 Eh     change       -0.1253103E-02 Eh
 * total energy  :   -31.4582498 Eh     change       -0.1828683E-03 Eh
 * total energy  :   -31.4583633 Eh     change       -0.1135162E-03 Eh
 * total energy  :   -31.4584559 Eh     change       -0.9264694E-04 Eh
 * total energy  :   -31.4585792 Eh     change       -0.1232342E-03 Eh
 * total energy  :   -31.4586979 Eh     change       -0.1187780E-03 Eh
 * total energy  :   -31.4587636 Eh     change       -0.6562510E-04 Eh
 * total energy  :   -31.4587902 Eh     change       -0.2660579E-04 Eh
 * total energy  :   -31.4588470 Eh     change       -0.1852567E-04 Eh
 * total energy  :   -31.4588658 Eh     change       -0.1878614E-04 Eh
 * total energy  :   -31.4588891 Eh     change       -0.2334972E-04 Eh
 * total energy  :   -31.4589156 Eh     change       -0.2648045E-04 Eh
 * total energy  :   -31.4589447 Eh     change       -0.2913314E-04 Eh
 * total energy  :   -31.4589694 Eh     change       -0.2468055E-04 Eh
 * total energy  :   -31.4589793 Eh     change       -0.9874015E-05 Eh
 * total energy  :   -31.4589992 Eh     change       -0.1995968E-04 Eh
 * total energy  :   -31.4590041 Eh     change       -0.4901144E-05 Eh
   *** GEOMETRY OPTIMIZATION CONVERGED AFTER 23 ITERATIONS ***

 final structure:
================
21
 xtb: 6.5.1 (579679a)
C            2.53346837230988        1.07467595677637        0.60141553887610
C            1.59998382247213        0.32952061097071       -0.40793931126234
C            0.16297404519683        0.80347901133340       -0.29861723144193
C           -0.83500013575016        0.04691816023136        0.25954694890046
C           -2.22485427320228        0.63749563819728        0.39047675234619
N           -3.10685955965559        0.13315850043283       -0.68022731853521
C           -0.64684410223126       -1.29466916601687        0.65224199505768
C            0.61069420210792       -1.88644371775875        0.37387554348231
C            1.60631931420744       -1.14890150692265       -0.16282698292269
F            2.80654191898220       -1.77506227829527       -0.50218719474042
H            2.20085062631878        0.89006869426724        1.62352670881227
H            2.50568305598701        2.14882601209059        0.41392729751670
H            3.56192088280667        0.72485559560586        0.49681281261108
H            2.00934363712248        0.55113709887557       -1.41477923946599
H           -0.03114852137072        1.81926592961884       -0.63575036934726
H           -2.19293971956730        1.73102242555003        0.30711428009806
H           -2.65196103924790        0.38858869020857        1.37640144035780
H           -3.19710540012481       -0.87078085308880       -0.57016938286100
H           -4.02707251033562        0.52396062091794       -0.53636357189562
H           -1.44975682074969       -1.87933320806721        1.08438721560114
H            0.76576120472398       -2.94778221492733        0.55238006881240

          :  Hamiltonian                  GFN1-xTB          :
         :: total energy             -31.459004129650 Eh    ::
         :: gradient norm              0.000937150720 Eh/a0 ::
         :: HOMO-LUMO gap              2.572342314038 eV    ::
         :: SCC energy               -31.829539055216 Eh    ::
         :: -> Gsolv                  -0.083565306959 Eh    ::
         :: repulsion energy           0.380429115239 Eh    ::

    * Orbital Energies and Occupations

         #    Occupation            Energy/Eh            Energy/eV
      -------------------------------------------------------------
         1        2.0000           -0.7811566             -21.2564
       ...           ...                  ...                  ...
        16        2.0000           -0.4829439             -13.1416
        17        2.0000           -0.4779105             -13.0046
        18        2.0000           -0.4712125             -12.8223
        19        2.0000           -0.4606673             -12.5354
        20        2.0000           -0.4565348             -12.4229
        21        2.0000           -0.4472226             -12.1695
        22        2.0000           -0.4323046             -11.7636
        23        2.0000           -0.4116641             -11.2020
        24        2.0000           -0.4048124             -11.0155
        25        2.0000           -0.3994183             -10.8687
        26        2.0000           -0.3744427             -10.1891
        27        2.0000           -0.3601154              -9.7992
        28        2.0000           -0.2719144              -7.3992 (HOMO)
        29                         -0.1773825              -4.8268 (LUMO)
        30                         -0.1115891              -3.0365
        31                         -0.0839641              -2.2848
        32                         -0.0787416              -2.1427
        33                         -0.0725807              -1.9750
        34                         -0.0544033              -1.4804
        35                         -0.0473768              -1.2892
        36                         -0.0453964              -1.2353
        37                         -0.0364307              -0.9913
        38                         -0.0238594              -0.6492
        39                         -0.0235358              -0.6404
       ...                                ...                  ...
        62                          0.6652683              18.1029
      -------------------------------------------------------------
                  HL-Gap            0.0945318 Eh            2.5723 eV

Wiberg/Mayer (AO) data.
largest (>0.10) Wiberg bond orders for each atom

     #   Z sym  total        # sym  WBO       # sym  WBO       # sym  WBO
 ---------------------------------------------------------------------------
     1   6 C    3.992 --    11 H    0.989    12 H    0.988    13 H    0.988
                             2 C    0.962
     2   6 C    3.993 --     9 C    1.008     3 C    1.001    14 H    0.967
                             1 C    0.962
     3   6 C    3.903 --     4 C    1.582     2 C    1.001    15 H    0.974
                             7 C    0.115
     4   6 C    3.986 --     3 C    1.582     7 C    1.316     5 C    0.996
     5   6 C    3.969 --     4 C    0.996    16 H    0.982     6 N    0.976
                            17 H    0.975
     6   7 N    2.934 --     5 C    0.976    19 H    0.958    18 H    0.958
     7   6 C    3.882 --     4 C    1.316     8 C    1.272    20 H    0.976
                             3 C    0.115     9 C    0.109
     8   6 C    3.989 --     9 C    1.626     7 C    1.272    21 H    0.972
     9   6 C    3.767 --     8 C    1.626     2 C    1.008    10 F    0.832
                             7 C    0.109
    10   9 F    0.940 --     9 C    0.832
    11   1 H    1.024 --     1 C    0.989
    12   1 H    1.016 --     1 C    0.988
    13   1 H    1.014 --     1 C    0.988
    14   1 H    1.024 --     2 C    0.967
    15   1 H    1.003 --     3 C    0.974
    16   1 H    1.020 --     5 C    0.982
    17   1 H    1.010 --     5 C    0.975
    18   1 H    0.980 --     6 N    0.958
    19   1 H    0.972 --     6 N    0.958
    20   1 H    1.002 --     7 C    0.976
    21   1 H    1.008 --     8 C    0.972
 ---------------------------------------------------------------------------

           -------------------------------------------------
          | TOTAL ENERGY              -31.459004129650 Eh   |
          | GRADIENT NORM               0.000937150720 Eh/α |
          | HOMO-LUMO GAP               2.572342314038 eV   |
           -------------------------------------------------

 * finished run on 2023/06/20 at 15:13:24.236
