   * xtb version 6.5.1 (579679a) compiled by 'ehlert@majestix' on 2022-07-11
          program call               : /lustre/hpc/kemi/ree/PhD/git/ReactivityQM/dep/xtb-6.5.1/bin/xtb --gfn 1 /lustre/hpc/kemi/ree/PhD/git/ReactivityQM/calculations/R02methylcation/reac01prodN03/conf15/R02methylcation_reac01prodN03_conf15_gfn1.xyz --opt --vfukui --chrg 0 --uhf 0 --alpb DMSO

   ID    Z sym.   atoms
    1    6 C      1, 3, 5, 6, 8-11, 13, 15, 18, 19, 22, 24
    2    8 O      2, 4, 14, 20, 23, 25
    3    7 N      7, 12, 16, 17, 21
    4    1 H      26-42

      * Solvation model:               ALPB
        Solvent                        DMSO
        Solvent mass                       7.8130E+01 g/mol
          :  Hamiltonian                  GFN1-xTB          :
 * total energy  :   -82.9827937 Eh     change       -0.7830181E-11 Eh
 * total energy  :   -82.9947294 Eh     change       -0.1193574E-01 Eh
 * total energy  :   -82.9992817 Eh     change       -0.4552313E-02 Eh
 * total energy  :   -83.0001769 Eh     change       -0.8952330E-03 Eh
 * total energy  :   -83.0006268 Eh     change       -0.4498168E-03 Eh
 * total energy  :   -83.0008017 Eh     change       -0.1749048E-03 Eh
 * total energy  :   -83.0009312 Eh     change       -0.1295105E-03 Eh
 * total energy  :   -83.0010421 Eh     change       -0.1109266E-03 Eh
 * total energy  :   -83.0011353 Eh     change       -0.9317700E-04 Eh
 * total energy  :   -83.0012088 Eh     change       -0.7354660E-04 Eh
 * total energy  :   -83.0015066 Eh     change       -0.2159661E-04 Eh
 * total energy  :   -83.0015334 Eh     change       -0.2672410E-04 Eh
 * total energy  :   -83.0015458 Eh     change       -0.1242000E-04 Eh
 * total energy  :   -83.0015602 Eh     change       -0.1446422E-04 Eh
 * total energy  :   -83.0015657 Eh     change       -0.5489710E-05 Eh
 * total energy  :   -83.0015822 Eh     change       -0.1647817E-04 Eh
 * total energy  :   -83.0015878 Eh     change       -0.5630524E-05 Eh
 * total energy  :   -83.0016019 Eh     change       -0.1402064E-04 Eh
 * total energy  :   -83.0016068 Eh     change       -0.4938570E-05 Eh
   *** GEOMETRY OPTIMIZATION CONVERGED AFTER 28 ITERATIONS ***

 final structure:
================
42
 xtb: 6.5.1 (579679a)
C           -6.05988750669909       -0.88124587695295        0.38384888771989
O           -5.07447165755827        0.12953152493395        0.11503376337249
C           -3.81279564982676       -0.20482135405896        0.27296914394100
O           -3.41520036709671       -1.27920229227760        0.63675081977021
C           -2.85398728571580        0.98314975084393       -0.03767192138036
C           -3.50413915416424        2.01861771388454       -0.95456618844966
N           -1.71267494321866        0.38968620047608       -0.69466773218298
C           -0.73784894453691       -0.05266409202337       -0.01781687570704
C            0.36978592882106       -0.82779807515203       -0.69821282981857
C            0.33090747015118       -0.59758727010627       -2.21115715948952
C            0.16719660672051       -2.31184937238746       -0.35646166599949
N            1.64176700440661       -0.34555990434903       -0.15042061616730
C            2.83946822450287       -0.86934989538455       -0.50750745555976
O            3.00488722564546       -1.87514156254772       -1.17055812850834
C            3.95143515850560       -0.05253759944137        0.04109702994916
N            3.82975432477219        1.03956879315830        0.73507831617371
N            5.09088551892451        1.46748232855701        1.01848037070459
C            5.90313844616168        0.61018949962103        0.47661401518026
C            7.38222251247701        0.63249077362536        0.49149812695249
O            5.24332965852759       -0.37148860009298       -0.15489975714765
N           -0.62366671981167        0.07714261962458        1.36163830839547
C           -1.43837081475523        0.85708914633309        2.12484428396038
O           -1.28286244370994        0.99784655820867        3.31645729473388
C           -2.54895233177649        1.56058965239952        1.33379328266963
O           -3.16098980964321        2.48409787908563        1.80154645057690
H           -6.06130937529539       -1.11918609308600        1.44925270377928
H           -7.01788276683591       -0.46340400708458        0.08349141383033
H           -5.83416040295999       -1.77953679485606       -0.19326045079415
H           -3.85547140645044        1.53599110957864       -1.86344210931610
H           -4.34250351320244        2.49191024970946       -0.44654225391091
H           -2.76792060918011        2.77682659049787       -1.21427979403085
H           -0.64203576968106       -0.89631667643360       -2.59755148751530
H            1.10663573600725       -1.18751905505337       -2.69530839465959
H            0.48943115369776        0.45644520169703       -2.43240157916799
H            0.88221794469225       -2.92506743608892       -0.90083146169638
H            0.30172713441421       -2.47223581641469        0.71166712263947
H           -0.84328890632196       -2.60751575687289       -0.63567585538018
H            1.65215274258443        0.56751706960665        0.27932507770614
H            7.73012226030180        1.41122628647251        1.16575631861656
H            7.76067868047727        0.82863877389287       -0.51235666915292
H            7.76675965120439       -0.33449625972074        0.81383442126165
H            0.14591799544636       -0.37496993182202        1.83261223410899

          :  Hamiltonian                  GFN1-xTB          :
         :: total energy             -83.001606804455 Eh    ::
         :: gradient norm              0.000875401211 Eh/a0 ::
         :: HOMO-LUMO gap              2.398923072534 eV    ::
         :: SCC energy               -83.789390674858 Eh    ::
         :: -> Gsolv                  -0.050745558682 Eh    ::
         :: repulsion energy           0.814314602741 Eh    ::

    * Orbital Energies and Occupations

         #    Occupation            Energy/Eh            Energy/eV
      -------------------------------------------------------------
         1        2.0000           -0.8652469             -23.5446
       ...           ...                  ...                  ...
        55        2.0000           -0.5126820             -13.9508
        56        2.0000           -0.5077261             -13.8159
        57        2.0000           -0.5075376             -13.8108
        58        2.0000           -0.5027017             -13.6792
        59        2.0000           -0.4934347             -13.4270
        60        2.0000           -0.4845761             -13.1860
        61        2.0000           -0.4729063             -12.8684
        62        2.0000           -0.4658176             -12.6755
        63        2.0000           -0.4630264             -12.5996
        64        2.0000           -0.4605997             -12.5336
        65        2.0000           -0.4540931             -12.3565
        66        2.0000           -0.4507446             -12.2654
        67        2.0000           -0.4422469             -12.0342 (HOMO)
        68                         -0.3540881              -9.6352 (LUMO)
        69                         -0.3138839              -8.5412
        70                         -0.2990200              -8.1367
        71                         -0.2711674              -7.3788
        72                         -0.2583300              -7.0295
        73                         -0.2269399              -6.1753
        74                         -0.2017230              -5.4892
        75                         -0.1477045              -4.0192
        76                         -0.1426421              -3.8815
        77                         -0.1302754              -3.5450
        78                         -0.1264785              -3.4417
       ...                                ...                  ...
       134                          0.7572212              20.6050
      -------------------------------------------------------------
                  HL-Gap            0.0881588 Eh            2.3989 eV

Wiberg/Mayer (AO) data.
largest (>0.10) Wiberg bond orders for each atom

     #   Z sym  total        # sym  WBO       # sym  WBO       # sym  WBO
 ---------------------------------------------------------------------------
     1   6 C    3.852 --    27 H    0.985    28 H    0.980    26 H    0.979
                             2 O    0.874
     2   8 O    2.232 --     3 C    1.159     1 C    0.874     4 O    0.140
     3   6 C    3.845 --     4 O    1.695     2 O    1.159     5 C    0.863
     4   8 O    1.965 --     3 C    1.695     2 O    0.140
     5   6 C    3.963 --     6 C    0.984     7 N    0.980    24 C    0.949
                             3 C    0.863
     6   6 C    3.985 --    29 H    0.985     5 C    0.984    31 H    0.983
                            30 H    0.982
     7   7 N    3.028 --     8 C    1.761     5 C    0.980
     8   6 C    3.926 --     7 N    1.761    21 N    1.065     9 C    0.978
     9   6 C    3.933 --    10 C    0.991     8 C    0.978    11 C    0.975
                            12 N    0.923
    10   6 C    3.989 --     9 C    0.991    34 H    0.985    32 H    0.983
                            33 H    0.982
    11   6 C    3.988 --    37 H    0.984    36 H    0.984    35 H    0.977
                             9 C    0.975
    12   7 N    3.325 --    13 C    1.233     9 C    0.923    38 H    0.895
                            14 O    0.172
    13   6 C    3.915 --    14 O    1.607    12 N    1.233    15 C    0.990
    14   8 O    1.921 --    13 C    1.607    12 N    0.172
    15   6 C    3.876 --    16 N    1.608    20 O    1.065    13 C    0.990
    16   7 N    3.018 --    15 C    1.608    17 N    1.202
    17   7 N    2.981 --    18 C    1.602    16 N    1.202
    18   6 C    3.870 --    17 N    1.602    20 O    1.084    19 C    1.032
    19   6 C    3.986 --    18 C    1.032    39 H    0.982    41 H    0.967
                            40 H    0.960
    20   8 O    2.332 --    18 C    1.084    15 C    1.065
    21   7 N    3.430 --    22 C    1.187     8 C    1.065    42 H    0.881
                            23 O    0.149
    22   6 C    3.893 --    23 O    1.673    21 N    1.187    24 C    0.906
    23   8 O    1.957 --    22 C    1.673    21 N    0.149
    24   6 C    3.847 --    25 O    1.813     5 C    0.949    22 C    0.906
    25   8 O    2.027 --    24 C    1.813
    26   1 H    1.003 --     1 C    0.979
    27   1 H    1.007 --     1 C    0.985
    28   1 H    1.004 --     1 C    0.980
    29   1 H    1.003 --     6 C    0.985
    30   1 H    1.007 --     6 C    0.982
    31   1 H    1.001 --     6 C    0.983
    32   1 H    1.009 --    10 C    0.983
    33   1 H    1.006 --    10 C    0.982
    34   1 H    1.004 --    10 C    0.985
    35   1 H    1.010 --    11 C    0.977
    36   1 H    1.000 --    11 C    0.984
    37   1 H    1.003 --    11 C    0.984
    38   1 H    0.952 --    12 N    0.895
    39   1 H    0.998 --    19 C    0.982
    40   1 H    0.996 --    19 C    0.960
    41   1 H    0.996 --    19 C    0.967
    42   1 H    0.927 --    21 N    0.881
 ---------------------------------------------------------------------------

           -------------------------------------------------
          | TOTAL ENERGY              -83.001606804455 Eh   |
          | GRADIENT NORM               0.000875401211 Eh/α |
          | HOMO-LUMO GAP               2.398923072534 eV   |
           -------------------------------------------------

 * finished run on 2023/06/21 at 17:32:39.181
