   * xtb version 6.5.1 (579679a) compiled by 'ehlert@majestix' on 2022-07-11
          program call               : /lustre/hpc/kemi/ree/PhD/git/ReactivityQM/dep/xtb-6.5.1/bin/xtb --gfn 1 /lustre/hpc/kemi/ree/PhD/git/ReactivityQM/calculations/R01/reac02prodN04/conf17/R01_reac02prodN04_conf17_gfn1.xyz --opt --vfukui --chrg 1 --uhf 0 --alpb DMSO

   ID    Z sym.   atoms
    1    6 C      1, 3, 5, 6, 8, 11-14, 17
    2    8 O      2, 4, 7, 9
    3    7 N      10, 15, 16
    4    1 H      18-33

      * Solvation model:               ALPB
        Solvent                        DMSO
        Solvent mass                       7.8130E+01 g/mol
          :  Hamiltonian                  GFN1-xTB          :
 * total energy  :   -57.8381909 Eh     change       -0.1404032E-10 Eh
 * total energy  :   -57.8550790 Eh     change       -0.1688812E-01 Eh
 * total energy  :   -57.8605127 Eh     change       -0.5433644E-02 Eh
 * total energy  :   -57.8614712 Eh     change       -0.9585526E-03 Eh
 * total energy  :   -57.8620584 Eh     change       -0.5871539E-03 Eh
 * total energy  :   -57.8623453 Eh     change       -0.2869420E-03 Eh
 * total energy  :   -57.8625940 Eh     change       -0.2486430E-03 Eh
 * total energy  :   -57.8627636 Eh     change       -0.1695917E-03 Eh
 * total energy  :   -57.8628981 Eh     change       -0.1345315E-03 Eh
 * total energy  :   -57.8630092 Eh     change       -0.1111214E-03 Eh
 * total energy  :   -57.8631435 Eh     change       -0.1627043E-04 Eh
 * total energy  :   -57.8631554 Eh     change       -0.1196826E-04 Eh
 * total energy  :   -57.8631700 Eh     change       -0.1453969E-04 Eh
 * total energy  :   -57.8631988 Eh     change       -0.2879799E-04 Eh
 * total energy  :   -57.8632196 Eh     change       -0.2082320E-04 Eh
 * total energy  :   -57.8632275 Eh     change       -0.7934004E-05 Eh
 * total energy  :   -57.8632325 Eh     change       -0.4924076E-05 Eh
 * total energy  :   -57.8632372 Eh     change       -0.4724847E-05 Eh
 * total energy  :   -57.8632412 Eh     change       -0.4028024E-05 Eh
   *** GEOMETRY OPTIMIZATION CONVERGED AFTER 22 ITERATIONS ***

 final structure:
================
33
 xtb: 6.5.1 (579679a)
C            4.36015033258304        1.07684302037304        0.10733857984423
O            2.97662636918894        0.67494247972550        0.05909477342946
C            2.73330068232349       -0.55803223252375       -0.33071771867522
O            3.60415559122155       -1.34474711591037       -0.64218788355006
C            1.28983651067315       -0.91636680593242       -0.47542283995235
C            0.97095530955527       -1.94123336323001       -1.33273731891424
O            1.85044024598029       -2.72213517765339       -1.92266531244205
C           -0.43462381787628       -2.19888504837813       -1.70012730166749
O           -0.84026797246784       -3.07045377597375       -2.42680723324893
N           -1.28938787614463       -1.27056800356762       -1.12413706712426
C           -0.99319932428179       -0.32582417773137       -0.23017710534631
C           -2.21859450322504        0.45064865926479        0.25770427500067
C           -2.70655552725437       -0.16697715634677        1.57677032536770
C           -1.98348334744623        1.96308407229228        0.37597294349954
N           -3.25540878929089        0.20917266426314       -0.74442148723784
N            0.26658158412826       -0.17871425145667        0.14528512174469
C            0.63475331470053        0.67371116812973        1.28184385434508
H            4.77130705101853        1.08123296299134       -0.90359244747316
H            4.36837258643972        2.07718115417366        0.53296110074007
H            4.92195999057718        0.38201325776924        0.73375918804474
H            2.77327286984691       -2.49768121240876       -1.63908335106214
H           -2.28815680629745       -1.28596185709063       -1.37299276986805
H           -1.94282022084940       -0.12274019175816        2.34954956552087
H           -2.98430548465155       -1.20726064313087        1.41339148997387
H           -3.57961952403878        0.38570526674065        1.91927993138315
H           -1.37883901003587        2.32218712445173       -0.45444301116182
H           -1.50491213098962        2.23295731927725        1.31365311544323
H           -2.95275836500586        2.45845939083605        0.34202442628535
H           -3.18350213174129        0.89733458912868       -1.48148136368365
H           -4.16636977544418        0.30345355957461       -0.31832911384519
H            1.46486379041894        0.20989648154063        1.80736764738499
H            0.92224339676827        1.65938420218247        0.92269265206236
H           -0.20601301838337        0.74937364037880        1.96063633518342

          :  Hamiltonian                  GFN1-xTB          :
         :: total energy             -57.863241208785 Eh    ::
         :: gradient norm              0.000354993568 Eh/a0 ::
         :: HOMO-LUMO gap              2.324186384932 eV    ::
         :: SCC energy               -58.439517774700 Eh    ::
         :: -> Gsolv                  -0.104735578508 Eh    ::
         :: repulsion energy           0.595987904545 Eh    ::

    * Orbital Energies and Occupations

         #    Occupation            Energy/Eh            Energy/eV
      -------------------------------------------------------------
         1        2.0000           -0.8863438             -24.1186
       ...           ...                  ...                  ...
        35        2.0000           -0.5634411             -15.3320
        36        2.0000           -0.5446293             -14.8201
        37        2.0000           -0.5390371             -14.6679
        38        2.0000           -0.5353713             -14.5682
        39        2.0000           -0.5303279             -14.4310
        40        2.0000           -0.5282132             -14.3734
        41        2.0000           -0.5249953             -14.2858
        42        2.0000           -0.5209301             -14.1752
        43        2.0000           -0.5202167             -14.1558
        44        2.0000           -0.5155384             -14.0285
        45        2.0000           -0.4934573             -13.4277
        46        2.0000           -0.4758203             -12.9477
        47        2.0000           -0.4488868             -12.2148 (HOMO)
        48                         -0.3634745              -9.8906 (LUMO)
        49                         -0.3480377              -9.4706
        50                         -0.2813858              -7.6569
        51                         -0.2155864              -5.8664
        52                         -0.1683918              -4.5822
        53                         -0.1501687              -4.0863
        54                         -0.1478707              -4.0238
        55                         -0.1407687              -3.8305
        56                         -0.1222567              -3.3268
        57                         -0.1126572              -3.0656
        58                         -0.1072712              -2.9190
       ...                                ...                  ...
       100                          0.7143096              19.4374
      -------------------------------------------------------------
                  HL-Gap            0.0854123 Eh            2.3242 eV

Wiberg/Mayer (AO) data.
largest (>0.10) Wiberg bond orders for each atom

     #   Z sym  total        # sym  WBO       # sym  WBO       # sym  WBO
 ---------------------------------------------------------------------------
     1   6 C    3.839 --    19 H    0.984    20 H    0.978    18 H    0.977
                             2 O    0.865
     2   8 O    2.235 --     3 C    1.156     1 C    0.865     4 O    0.135
     3   6 C    3.864 --     4 O    1.619     2 O    1.156     5 C    1.008
     4   8 O    1.974 --     3 C    1.619     2 O    0.135
     5   6 C    3.918 --     6 C    1.508    16 N    1.061     3 C    1.008
                             7 O    0.110
     6   6 C    3.925 --     5 C    1.508     7 O    1.180     8 C    1.020
     7   8 O    2.134 --     6 C    1.180    21 H    0.744     5 C    0.110
     8   6 C    3.901 --     9 O    1.676    10 N    1.079     6 C    1.020
     9   8 O    1.962 --     8 C    1.676    10 N    0.118
    10   7 N    3.495 --    11 C    1.299     8 C    1.079    22 H    0.820
                             9 O    0.118
    11   6 C    3.887 --    16 N    1.395    10 N    1.299    12 C    0.966
    12   6 C    3.952 --    15 N    0.993    14 C    0.983    13 C    0.972
                            11 C    0.966
    13   6 C    3.986 --    24 H    0.983    25 H    0.978    23 H    0.977
                            12 C    0.972
    14   6 C    3.987 --    26 H    0.984    12 C    0.983    28 H    0.978
                            27 H    0.978
    15   7 N    3.011 --    12 C    0.993    29 H    0.931    30 H    0.925
    16   7 N    3.570 --    11 C    1.395     5 C    1.061    17 C    0.908
    17   6 C    3.896 --    31 H    0.975    33 H    0.973    32 H    0.969
                            16 N    0.908
    18   1 H    1.001 --     1 C    0.977
    19   1 H    1.005 --     1 C    0.984
    20   1 H    1.002 --     1 C    0.978
    21   1 H    0.830 --     7 O    0.744
    22   1 H    0.929 --    10 N    0.820
    23   1 H    0.999 --    13 C    0.977
    24   1 H    0.998 --    13 C    0.983
    25   1 H    0.994 --    13 C    0.978
    26   1 H    0.997 --    14 C    0.984
    27   1 H    0.999 --    14 C    0.978
    28   1 H    0.997 --    14 C    0.978
    29   1 H    0.942 --    15 N    0.931
    30   1 H    0.939 --    15 N    0.925
    31   1 H    0.998 --    17 C    0.975
    32   1 H    1.002 --    17 C    0.969
    33   1 H    1.003 --    17 C    0.973
 ---------------------------------------------------------------------------

           -------------------------------------------------
          | TOTAL ENERGY              -57.863241208785 Eh   |
          | GRADIENT NORM               0.000354993568 Eh/α |
          | HOMO-LUMO GAP               2.324186384932 eV   |
           -------------------------------------------------

 * finished run on 2023/06/20 at 15:05:24.498
