   * xtb version 6.5.1 (579679a) compiled by 'ehlert@majestix' on 2022-07-11
          program call               : /lustre/hpc/kemi/ree/PhD/git/ReactivityQM/dep/xtb-6.5.1/bin/xtb --gfn 1 /lustre/hpc/kemi/ree/PhD/git/ReactivityQM/calculations/R02oxygendeprot/reac02prodN01/conf09/R02oxygendeprot_reac02prodN01_conf09_gfn1.xyz --opt --vfukui --chrg 1 --uhf 0 --alpb DMSO

   ID    Z sym.   atoms
    1    6 C      1, 4
    2    8 O      2, 5
    3    5 B      3
    4    1 H      6-13

      * Solvation model:               ALPB
        Solvent                        DMSO
        Solvent mass                       7.8130E+01 g/mol
          :  Hamiltonian                  GFN1-xTB          :
 * total energy  :   -19.0503060 Eh     change       -0.6832934E-10 Eh
 * total energy  :   -19.0615515 Eh     change       -0.1124546E-01 Eh
 * total energy  :   -19.0642397 Eh     change       -0.2688207E-02 Eh
 * total energy  :   -19.0648035 Eh     change       -0.5637792E-03 Eh
 * total energy  :   -19.0651706 Eh     change       -0.3671107E-03 Eh
 * total energy  :   -19.0652094 Eh     change       -0.3883631E-04 Eh
 * total energy  :   -19.0652258 Eh     change       -0.1644503E-04 Eh
 * total energy  :   -19.0652368 Eh     change       -0.1091929E-04 Eh
 * total energy  :   -19.0652453 Eh     change       -0.8503084E-05 Eh
 * total energy  :   -19.0652489 Eh     change       -0.3603628E-05 Eh
   *** GEOMETRY OPTIMIZATION CONVERGED AFTER 10 ITERATIONS ***

 final structure:
================
13
 xtb: 6.5.1 (579679a)
C            1.97644400072492       -0.43082902278386       -0.14515516018307
O            0.54897095319996       -0.66060407916791        0.04939230460495
B           -0.46654647540558        0.39743650949090        0.17821214854836
C           -1.94106098664957       -0.06775299145241        0.27812821221560
O            0.08507350921514        1.60493548545053        0.17251078311940
H            2.51887577898233       -1.16005823897205        0.45260589282038
H            2.17801334930951        0.58128871520745        0.19852127382816
H            2.20708908945734       -0.53474318215249       -1.20499216539445
H            0.28418227267625       -1.58549702323188       -0.03832441718105
H           -2.54312222039657        0.63945294432719        0.84602001987778
H           -2.03092335190012       -1.05116566743262        0.73431855761345
H           -2.37351099493380       -0.13178421012161       -0.72149408658706
H           -0.44348492427996        2.39932076083910        0.24891063671744

          :  Hamiltonian                  GFN1-xTB          :
         :: total energy             -19.065248868811 Eh    ::
         :: gradient norm              0.000587248079 Eh/a0 ::
         :: HOMO-LUMO gap              7.479556389957 eV    ::
         :: SCC energy               -19.256415570480 Eh    ::
         :: -> Gsolv                  -0.095116557065 Eh    ::
         :: repulsion energy           0.194650197934 Eh    ::

    * Orbital Energies and Occupations

         #    Occupation            Energy/Eh            Energy/eV
      -------------------------------------------------------------
         1        2.0000           -0.9097494             -24.7555
       ...           ...                  ...                  ...
         3        2.0000           -0.7654360             -20.8286
         4        2.0000           -0.7559258             -20.5698
         5        2.0000           -0.6875750             -18.7099
         6        2.0000           -0.6727485             -18.3064
         7        2.0000           -0.6637989             -18.0629
         8        2.0000           -0.6503003             -17.6956
         9        2.0000           -0.6222513             -16.9323
        10        2.0000           -0.6038991             -16.4329
        11        2.0000           -0.5665002             -15.4153
        12        2.0000           -0.5535843             -15.0638
        13        2.0000           -0.5444121             -14.8142
        14        2.0000           -0.5432513             -14.7826
        15        2.0000           -0.5239984             -14.2587 (HOMO)
        16                         -0.2491297              -6.7792 (LUMO)
        17                         -0.1892757              -5.1505
        18                         -0.1755457              -4.7768
        19                         -0.1500288              -4.0825
        20                         -0.1263245              -3.4375
        21                         -0.1081309              -2.9424
        22                         -0.0960614              -2.6140
        23                         -0.0793491              -2.1592
        24                         -0.0716946              -1.9509
        25                         -0.0512995              -1.3959
        26                          0.0896445               2.4393
       ...                                ...                  ...
        36                          0.6415465              17.4574
      -------------------------------------------------------------
                  HL-Gap            0.2748686 Eh            7.4796 eV

Wiberg/Mayer (AO) data.
largest (>0.10) Wiberg bond orders for each atom

     #   Z sym  total        # sym  WBO       # sym  WBO       # sym  WBO
 ---------------------------------------------------------------------------
     1   6 C    3.783 --     6 H    0.982     8 H    0.982     7 H    0.979
                             2 O    0.809
     2   8 O    2.394 --     1 C    0.809     3 B    0.768     9 H    0.759
     3   5 B    3.138 --     5 O    1.256     4 C    1.034     2 O    0.768
     4   6 C    3.986 --     3 B    1.034    11 H    0.972    10 H    0.969
                            12 H    0.948
     5   8 O    2.144 --     3 B    1.256    13 H    0.793
     6   1 H    0.995 --     1 C    0.982
     7   1 H    1.000 --     1 C    0.979
     8   1 H    0.995 --     1 C    0.982
     9   1 H    0.789 --     2 O    0.759
    10   1 H    0.992 --     4 C    0.969
    11   1 H    0.992 --     4 C    0.972
    12   1 H    0.991 --     4 C    0.948
    13   1 H    0.813 --     5 O    0.793
 ---------------------------------------------------------------------------

           -------------------------------------------------
          | TOTAL ENERGY              -19.065248868811 Eh   |
          | GRADIENT NORM               0.000587248079 Eh/α |
          | HOMO-LUMO GAP               7.479556389957 eV   |
           -------------------------------------------------

 * finished run on 2023/06/21 at 17:40:21.351
