   * xtb version 6.5.1 (579679a) compiled by 'ehlert@majestix' on 2022-07-11
          program call               : /lustre/hpc/kemi/ree/PhD/git/ReactivityQM/dep/xtb-6.5.1/bin/xtb --gfn 1 /lustre/hpc/kemi/ree/PhD/git/ReactivityQM/calculations/R02/reac01prodE06/conf05/R02_reac01prodE06_conf05_gfn1.xyz --opt --vfukui --chrg -1 --uhf 0 --alpb DMSO

   ID    Z sym.   atoms
    1    6 C      1, 3, 5, 6, 8, 11-15, 17, 19, 22, 23
    2    8 O      2, 4, 7, 9, 18, 24
    3    7 N      10, 16, 20, 21, 25
    4    1 H      26-43

      * Solvation model:               ALPB
        Solvent                        DMSO
        Solvent mass                       7.8130E+01 g/mol
          :  Hamiltonian                  GFN1-xTB          :
 * total energy  :   -83.8626500 Eh     change       -0.4860112E-11 Eh
 * total energy  :   -83.8741587 Eh     change       -0.1150872E-01 Eh
 * total energy  :   -83.8787436 Eh     change       -0.4584826E-02 Eh
 * total energy  :   -83.8794531 Eh     change       -0.7095760E-03 Eh
 * total energy  :   -83.8801556 Eh     change       -0.7025037E-03 Eh
 * total energy  :   -83.8805067 Eh     change       -0.3511017E-03 Eh
 * total energy  :   -83.8808209 Eh     change       -0.3141660E-03 Eh
 * total energy  :   -83.8811024 Eh     change       -0.2814729E-03 Eh
 * total energy  :   -83.8812799 Eh     change       -0.1775473E-03 Eh
 * total energy  :   -83.8814012 Eh     change       -0.1212691E-03 Eh
 * total energy  :   -83.8821471 Eh     change       -0.1405173E-04 Eh
 * total energy  :   -83.8821231 Eh     change        0.2395438E-04 Eh
 * total energy  :   -83.8821726 Eh     change       -0.4946730E-04 Eh
 * total energy  :   -83.8821836 Eh     change       -0.1106852E-04 Eh
 * total energy  :   -83.8822065 Eh     change       -0.2286702E-04 Eh
 * total energy  :   -83.8822134 Eh     change       -0.6885886E-05 Eh
 * total energy  :   -83.8822239 Eh     change       -0.1055635E-04 Eh
 * total energy  :   -83.8822307 Eh     change       -0.6747101E-05 Eh
 * total energy  :   -83.8822354 Eh     change       -0.4703165E-05 Eh
   *** GEOMETRY OPTIMIZATION CONVERGED AFTER 36 ITERATIONS ***

 final structure:
================
43
 xtb: 6.5.1 (579679a)
C           -4.43003726868038        2.47452170225327       -1.95582086105896
O           -3.64639354631047        2.04439125333169       -0.84286933838346
C           -2.69010471474436        1.12913345183582       -1.11113103362074
O           -2.51684023064979        0.71996847634029       -2.24147202658767
C           -1.91206811836034        0.68124068229846        0.07853554849658
C           -1.76816859738317        1.43572372352862        1.24872093828515
O           -2.39772143607520        2.66397009505256        1.48152805401588
C           -0.79390139719750        1.04807126501851        2.21450660593282
O           -0.47764400131852        1.66210786251375        3.24498173596889
N           -0.06758920110074       -0.10771988029525        1.87205450534473
C           -0.69236087067389       -1.11327878208628        1.01917437031872
C           -1.73411863991220       -1.91672639666249        1.83025306434705
C            0.43897941636868       -2.02398086078182        0.43719380486310
C            1.19700853411297       -2.81975415557295        1.50557264539224
C           -0.12998682658536       -2.97257732638554       -0.62386698283410
N            1.36845404441265       -1.07644700964633       -0.19361029590393
C            2.47771411980070       -1.40449322044898       -0.85866490255336
O            2.85270354670581       -2.54021279961128       -1.12924433187567
C            3.27196755934489       -0.21622587416510       -1.29053389408912
N            4.35978643097705       -0.21574242411509       -1.99853484034495
N            4.73699128620750        1.08856443222987       -2.14196824284863
C            3.85667570647104        1.80160556230175       -1.51177947699761
C            3.82209429684662        3.27379922661644       -1.36713895986587
O            2.90312532329593        1.03849439732498       -0.95247664608512
N           -1.34634805327051       -0.50372477824717       -0.11584811701201
H           -3.79664990577716        2.96291650361383       -2.70121421569552
H           -5.16644363580919        3.17768799354848       -1.57385582453737
H           -4.93254861707505        1.62046671254867       -2.41759489143800
H           -3.19806509663548        2.74077411125489        0.94684547046265
H            0.41781573331760       -0.49551380981571        2.66944325223052
H           -2.21416120333426       -2.65971361933403        1.19700956667275
H           -1.27147282299320       -2.41092315954047        2.68156685668759
H           -2.49667091028573       -1.23170259446689        2.19940142157190
H            1.99401908017026       -3.39699426187904        1.03775354521822
H            1.64090682050036       -2.15494458248742        2.24428147455095
H            0.52526913832718       -3.51106957374701        2.00969249819874
H            0.67211484521434       -3.50729520777733       -1.12997835068277
H           -0.78344625161299       -3.70412734408160       -0.15185558005910
H           -0.70473010905507       -2.40494212951856       -1.35657051309428
H            1.20214851154319       -0.10192693092549        0.03331140388853
H            4.66781937542301        3.71063988621269       -1.89141546362130
H            2.89429741286763        3.66959066946597       -1.77908546669549
H            3.86757827291537        3.54636571429424       -0.31322050654798

          :  Hamiltonian                  GFN1-xTB          :
         :: total energy             -83.882235394744 Eh    ::
         :: gradient norm              0.000992736360 Eh/a0 ::
         :: HOMO-LUMO gap              0.655409881926 eV    ::
         :: SCC energy               -84.638012747014 Eh    ::
         :: -> Gsolv                  -0.111237326047 Eh    ::
         :: repulsion energy           0.783668824591 Eh    ::

    * Orbital Energies and Occupations

         #    Occupation            Energy/Eh            Energy/eV
      -------------------------------------------------------------
         1        2.0000           -0.8574589             -23.3326
       ...           ...                  ...                  ...
        56        2.0000           -0.4762906             -12.9605
        57        2.0000           -0.4724904             -12.8571
        58        2.0000           -0.4606707             -12.5355
        59        2.0000           -0.4509917             -12.2721
        60        2.0000           -0.4500952             -12.2477
        61        2.0000           -0.4442304             -12.0881
        62        2.0000           -0.4392640             -11.9530
        63        2.0000           -0.4282647             -11.6537
        64        2.0000           -0.4270103             -11.6195
        65        2.0000           -0.4053264             -11.0295
        66        2.0000           -0.3902070             -10.6181
        67        2.0000           -0.3772808             -10.2663
        68        2.0000           -0.3211688              -8.7394 (HOMO)
        69        0.0000           -0.2970830              -8.0840 (LUMO)
        70                         -0.2667288              -7.2581
        71                         -0.2505265              -6.8172
        72                         -0.1937818              -5.2731
        73                         -0.1857361              -5.0541
        74                         -0.1404893              -3.8229
        75                         -0.1255416              -3.4162
        76                         -0.1186141              -3.2277
        77                         -0.1142315              -3.1084
        78                         -0.1077572              -2.9322
        79                         -0.0970471              -2.6408
       ...                                ...                  ...
       136                          0.7348198              19.9955
      -------------------------------------------------------------
                  HL-Gap            0.0240859 Eh            0.6554 eV

Wiberg/Mayer (AO) data.
largest (>0.10) Wiberg bond orders for each atom

     #   Z sym  total        # sym  WBO       # sym  WBO       # sym  WBO
 ---------------------------------------------------------------------------
     1   6 C    3.883 --    27 H    0.987    26 H    0.981    28 H    0.981
                             2 O    0.906
     2   8 O    2.188 --     3 C    1.067     1 C    0.906     4 O    0.120
     3   6 C    3.816 --     4 O    1.652     2 O    1.067     5 C    1.003
     4   8 O    1.903 --     3 C    1.652     2 O    0.120
     5   6 C    3.970 --    25 N    1.420     6 C    1.330     3 C    1.003
     6   6 C    3.862 --     5 C    1.330     8 C    1.198     7 O    0.972
                            25 N    0.180
     7   8 O    1.946 --     6 C    0.972    29 H    0.850
     8   6 C    3.914 --     9 O    1.500     6 C    1.198    10 N    1.061
     9   8 O    1.800 --     8 C    1.500
    10   7 N    3.190 --     8 C    1.061    11 C    0.943    30 H    0.919
    11   6 C    3.946 --    25 N    1.001    12 C    0.974    13 C    0.949
                            10 N    0.943
    12   6 C    3.995 --    33 H    0.984    32 H    0.984    31 H    0.983
                            11 C    0.974
    13   6 C    3.922 --    15 C    0.998    14 C    0.995    11 C    0.949
                            16 N    0.913
    14   6 C    3.993 --    13 C    0.995    36 H    0.983    35 H    0.982
                            34 H    0.981
    15   6 C    3.993 --    13 C    0.998    38 H    0.984    37 H    0.982
                            39 H    0.980
    16   7 N    3.399 --    17 C    1.313    13 C    0.913    40 H    0.889
                            18 O    0.188
    17   6 C    3.925 --    18 O    1.550    16 N    1.313    19 C    0.981
    18   8 O    1.874 --    17 C    1.550    16 N    0.188
    19   6 C    3.866 --    20 N    1.627    24 O    1.049    17 C    0.981
    20   7 N    2.993 --    19 C    1.627    21 N    1.191
    21   7 N    2.980 --    22 C    1.618    20 N    1.191
    22   6 C    3.872 --    21 N    1.618    24 O    1.073    23 C    1.030
    23   6 C    3.988 --    22 C    1.030    41 H    0.983    42 H    0.965
                            43 H    0.964
    24   8 O    2.316 --    22 C    1.073    19 C    1.049
    25   7 N    2.923 --     5 C    1.420    11 C    1.001     6 C    0.180
    26   1 H    1.011 --     1 C    0.981
    27   1 H    1.012 --     1 C    0.987
    28   1 H    1.011 --     1 C    0.981
    29   1 H    0.894 --     7 O    0.850
    30   1 H    0.967 --    10 N    0.919
    31   1 H    1.010 --    12 C    0.983
    32   1 H    1.005 --    12 C    0.984
    33   1 H    1.007 --    12 C    0.984
    34   1 H    1.010 --    14 C    0.981
    35   1 H    1.004 --    14 C    0.982
    36   1 H    1.005 --    14 C    0.983
    37   1 H    1.014 --    15 C    0.982
    38   1 H    1.006 --    15 C    0.984
    39   1 H    1.029 --    15 C    0.980
    40   1 H    0.972 --    16 N    0.889
    41   1 H    1.000 --    23 C    0.983
    42   1 H    0.998 --    23 C    0.965
    43   1 H    0.998 --    23 C    0.964
 ---------------------------------------------------------------------------

           -------------------------------------------------
          | TOTAL ENERGY              -83.882235394744 Eh   |
          | GRADIENT NORM               0.000992736360 Eh/α |
          | HOMO-LUMO GAP               0.655409881926 eV   |
           -------------------------------------------------

 * finished run on 2023/06/20 at 15:00:27.465
