   * xtb version 6.5.1 (579679a) compiled by 'ehlert@majestix' on 2022-07-11
          program call               : /lustre/hpc/kemi/ree/PhD/git/ReactivityQM/dep/xtb-6.5.1/bin/xtb --gfn 1 /lustre/hpc/kemi/ree/PhD/git/ReactivityQM/calculations/RaltegravirCLI/reac02prodN12/conf15/RaltegravirCLI_reac02prodN12_conf15_gfn1.xyz --opt --vfukui --chrg 1 --uhf 0 --alpb DMSO

   ID    Z sym.   atoms
    1    6 C      1, 3, 5, 6, 8, 9, 12-16, 18, 19, 21-24
    2    7 N      2, 11, 20, 25
    3    8 O      4, 7, 10
    4    9 F      17
    5    1 H      26-47

      * Solvation model:               ALPB
        Solvent                        DMSO
        Solvent mass                       7.8130E+01 g/mol
          :  Hamiltonian                  GFN1-xTB          :
 * total energy  :   -79.4665300 Eh     change       -0.5414336E-11 Eh
 * total energy  :   -79.4778345 Eh     change       -0.1130448E-01 Eh
 * total energy  :   -79.4831884 Eh     change       -0.5353946E-02 Eh
 * total energy  :   -79.4846984 Eh     change       -0.1510037E-02 Eh
 * total energy  :   -79.4861270 Eh     change       -0.1428566E-02 Eh
 * total energy  :   -79.4869362 Eh     change       -0.8091794E-03 Eh
 * total energy  :   -79.4876088 Eh     change       -0.6726133E-03 Eh
 * total energy  :   -79.4881863 Eh     change       -0.5775248E-03 Eh
 * total energy  :   -79.4886004 Eh     change       -0.4140678E-03 Eh
 * total energy  :   -79.4888809 Eh     change       -0.2804711E-03 Eh
 * total energy  :   -79.4918066 Eh     change       -0.8229005E-05 Eh
 * total energy  :   -79.4918157 Eh     change       -0.9054807E-05 Eh
 * total energy  :   -79.4918268 Eh     change       -0.1116834E-04 Eh
 * total energy  :   -79.4918412 Eh     change       -0.1434915E-04 Eh
 * total energy  :   -79.4918555 Eh     change       -0.1435485E-04 Eh
 * total energy  :   -79.4918694 Eh     change       -0.1385371E-04 Eh
 * total energy  :   -79.4918817 Eh     change       -0.1226809E-04 Eh
 * total energy  :   -79.4918901 Eh     change       -0.8461499E-05 Eh
 * total energy  :   -79.4918950 Eh     change       -0.4881161E-05 Eh
   *** GEOMETRY OPTIMIZATION CONVERGED AFTER 62 ITERATIONS ***

 final structure:
================
47
 xtb: 6.5.1 (579679a)
C           -3.84228744924110        0.14155295291649       -2.04307636770503
N           -2.60556807827710        0.54908773765118       -1.37015857052836
C           -1.70231946924189        1.26122274477513       -2.22794769887121
O           -1.96189782405114        1.41295647383702       -3.38436909159898
C           -0.49584164716299        1.86704856580532       -1.54275750316864
C           -0.96208997081918        3.24975904479351       -0.98745178312745
O            0.55665376643008        2.01798253988927       -2.43528749954592
C           -0.10352740290212        1.05446879623392       -0.35484274730667
C            1.27520199635534        1.19066453669631        0.24893528554134
O            1.94106345060198        2.19951595427189        0.11018620757431
N            1.62740274700558        0.11511188964468        0.96243153972989
C            2.91985179150857        0.02913217862086        1.63634895470450
C            3.90104181401399       -0.77481345045839        0.81053690823691
C            4.43711981531026       -1.95820409064468        1.30978111743890
C            5.33801197564530       -2.69720254233498        0.55475135425100
C            5.67979088495277       -2.22937884279226       -0.70088328851877
F            6.54459624827444       -2.93936563624752       -1.43925323335636
C            5.16369270209195       -1.05785944513176       -1.22702941224085
C            4.26884673950272       -0.32920736184724       -0.45810613541786
N           -0.97010496852548        0.34164916254523        0.28279539190441
C           -2.25044268798417        0.17669864821213       -0.15036481604529
C           -3.13707400007020       -0.53063152321344        0.83972437046541
C           -2.60589380292479       -0.30494818143478        2.26690700659301
C           -3.08201091728699       -2.03250880238193        0.49726572336234
N           -4.50436457349646       -0.06388924610191        0.73448332671287
H           -4.59719243339328       -0.08552750805063       -1.29394303658357
H           -3.62654552633345       -0.73800740331265       -2.64859551256841
H           -4.16480408245446        0.95902128168371       -2.68587354541288
H           -1.74124295615470        3.11985873468056       -0.24158895084832
H           -0.09309925537794        3.73373964413325       -0.54473061929497
H           -1.33512702294697        3.84642278211422       -1.81667518111972
H            0.23703217787446        2.30419140232719       -3.30326071661114
H            0.99604108434782       -0.66472362808002        1.03062994284611
H            2.75712224876078       -0.43773726196833        2.60968929081279
H            3.28385772438665        1.05157325089723        1.77963531414752
H            4.15065703901325       -2.30884866530534        2.29391219958250
H            5.76136044604793       -3.61935157183309        0.93070154840154
H            5.45558268069839       -0.72689054494284       -2.21533898876753
H            3.85035161159183        0.59131337944925       -0.84783263410807
H           -2.53654903478233        0.76071982861056        2.47656433026895
H           -3.29717784762180       -0.76210605084099        2.97169468748045
H           -1.62335268514505       -0.75649999672840        2.38575057088681
H           -3.64212432786647       -2.58007175113641        1.25301398094593
H           -3.52702775050833       -2.21482734756160       -0.47885584420235
H           -2.05053106867546       -2.38020356513368        0.49471258910294
H           -4.57790334879631        0.88025728188311        1.08493829483207
H           -5.10917581236787       -0.66114539419013        1.27994924113293

          :  Hamiltonian                  GFN1-xTB          :
         :: total energy             -79.491895012470 Eh    ::
         :: gradient norm              0.000474768997 Eh/a0 ::
         :: HOMO-LUMO gap              0.792981752791 eV    ::
         :: SCC energy               -80.385768885637 Eh    ::
         :: -> Gsolv                  -0.110293248837 Eh    ::
         :: repulsion energy           0.924729615207 Eh    ::

    * Orbital Energies and Occupations

         #    Occupation            Energy/Eh            Energy/eV
      -------------------------------------------------------------
         1        2.0000           -0.8867584             -24.1299
       ...           ...                  ...                  ...
        55        2.0000           -0.5241014             -14.2615
        56        2.0000           -0.5231182             -14.2348
        57        2.0000           -0.5178164             -14.0905
        58        2.0000           -0.5135650             -13.9748
        59        2.0000           -0.5117355             -13.9250
        60        2.0000           -0.5093886             -13.8612
        61        2.0000           -0.4933327             -13.4243
        62        2.0000           -0.4816528             -13.1064
        63        2.0000           -0.4757315             -12.9453
        64        2.0000           -0.4678877             -12.7319
        65        2.0000           -0.4596907             -12.5088
        66        2.0000           -0.4459031             -12.1336
        67        2.0000           -0.4427002             -12.0465 (HOMO)
        68        0.0000           -0.4135586             -11.2535 (LUMO)
        69                         -0.3421121              -9.3093
        70                         -0.2993711              -8.1463
        71                         -0.2815753              -7.6621
        72                         -0.2762797              -7.5180
        73                         -0.2482167              -6.7543
        74                         -0.1598357              -4.3494
        75                         -0.1547405              -4.2107
        76                         -0.1488729              -4.0510
        77                         -0.1466457              -3.9904
        78                         -0.1391894              -3.7875
       ...                                ...                  ...
       144                          0.6983725              19.0037
      -------------------------------------------------------------
                  HL-Gap            0.0291415 Eh            0.7930 eV

Wiberg/Mayer (AO) data.
largest (>0.10) Wiberg bond orders for each atom

     #   Z sym  total        # sym  WBO       # sym  WBO       # sym  WBO
 ---------------------------------------------------------------------------
     1   6 C    3.879 --    28 H    0.974    27 H    0.962    26 H    0.952
                             2 N    0.904
     2   7 N    3.566 --    21 C    1.413     3 C    0.985     1 C    0.904
     3   6 C    3.855 --     4 O    1.779     2 N    0.985     5 C    0.947
     4   8 O    2.036 --     3 C    1.779
     5   6 C    3.939 --     8 C    1.000     7 O    0.996     3 C    0.947
                             6 C    0.875
     6   6 C    3.966 --    29 H    0.986    31 H    0.975    30 H    0.973
                             5 C    0.875
     7   8 O    1.918 --     5 C    0.996    32 H    0.824
     8   6 C    3.898 --    20 N    1.627     5 C    1.000     9 C    0.957
     9   6 C    3.920 --    10 O    1.593    11 N    1.295     8 C    0.957
    10   8 O    1.927 --     9 C    1.593    11 N    0.200
    11   7 N    3.404 --     9 C    1.295    12 C    0.928    33 H    0.894
                            10 O    0.200
    12   6 C    3.928 --    13 C    0.990    34 H    0.972    35 H    0.965
                            11 N    0.928
    13   6 C    3.986 --    14 C    1.423    19 C    1.413    12 C    0.990
    14   6 C    3.993 --    15 C    1.439    13 C    1.423    36 H    0.970
                            18 C    0.109
    15   6 C    3.991 --    14 C    1.439    16 C    1.403    37 H    0.968
                            19 C    0.111
    16   6 C    3.862 --    15 C    1.403    18 C    1.396    17 F    0.930
    17   9 F    1.060 --    16 C    0.930
    18   6 C    3.992 --    19 C    1.449    16 C    1.396    38 H    0.969
                            14 C    0.109
    19   6 C    3.993 --    18 C    1.449    13 C    1.413    39 H    0.970
                            15 C    0.111
    20   7 N    3.069 --     8 C    1.627    21 C    1.202
    21   6 C    3.877 --     2 N    1.413    20 N    1.202    22 C    1.002
    22   6 C    3.957 --    21 C    1.002    25 N    0.996    23 C    0.970
                            24 C    0.940
    23   6 C    3.986 --    40 H    0.984    42 H    0.982    41 H    0.981
                            22 C    0.970
    24   6 C    3.979 --    45 H    0.984    44 H    0.983    43 H    0.974
                            22 C    0.940
    25   7 N    3.022 --    22 C    0.996    46 H    0.928    47 H    0.924
    26   1 H    1.018 --     1 C    0.952
    27   1 H    0.994 --     1 C    0.962
    28   1 H    0.997 --     1 C    0.974
    29   1 H    0.995 --     6 C    0.986
    30   1 H    1.004 --     6 C    0.973
    31   1 H    0.994 --     6 C    0.975
    32   1 H    0.845 --     7 O    0.824
    33   1 H    0.941 --    11 N    0.894
    34   1 H    0.999 --    12 C    0.972
    35   1 H    1.005 --    12 C    0.965
    36   1 H    0.998 --    14 C    0.970
    37   1 H    0.997 --    15 C    0.968
    38   1 H    0.997 --    18 C    0.969
    39   1 H    1.003 --    19 C    0.970
    40   1 H    0.999 --    23 C    0.984
    41   1 H    0.998 --    23 C    0.981
    42   1 H    1.008 --    23 C    0.982
    43   1 H    0.993 --    24 C    0.974
    44   1 H    0.998 --    24 C    0.983
    45   1 H    0.998 --    24 C    0.984
    46   1 H    0.943 --    25 N    0.928
    47   1 H    0.939 --    25 N    0.924
 ---------------------------------------------------------------------------

           -------------------------------------------------
          | TOTAL ENERGY              -79.491895012470 Eh   |
          | GRADIENT NORM               0.000474768997 Eh/α |
          | HOMO-LUMO GAP               0.792981752791 eV   |
           -------------------------------------------------

 * finished run on 2023/06/20 at 15:33:36.510
