   * xtb version 6.5.1 (579679a) compiled by 'ehlert@majestix' on 2022-07-11
          program call               : /lustre/hpc/kemi/ree/PhD/git/ReactivityQM/dep/xtb-6.5.1/bin/xtb --gfn 1 /lustre/hpc/kemi/ree/PhD/git/ReactivityQM/calculations/R02methylcation/reac01prodN09/conf05/R02methylcation_reac01prodN09_conf05_gfn1.xyz --opt --vfukui --chrg 0 --uhf 0 --alpb DMSO

   ID    Z sym.   atoms
    1    6 C      1, 3, 4, 6, 8-11, 13, 15, 18, 19, 22, 24
    2    8 O      2, 5, 14, 20, 23, 25
    3    7 N      7, 12, 16, 17, 21
    4    1 H      26-42

      * Solvation model:               ALPB
        Solvent                        DMSO
        Solvent mass                       7.8130E+01 g/mol
          :  Hamiltonian                  GFN1-xTB          :
 * total energy  :   -82.8612245 Eh     change       -0.1546283E-09 Eh
 * total energy  :   -82.8753805 Eh     change       -0.1415599E-01 Eh
 * total energy  :   -82.8827840 Eh     change       -0.7403442E-02 Eh
 * total energy  :   -82.8851049 Eh     change       -0.2320974E-02 Eh
 * total energy  :   -82.8872904 Eh     change       -0.2185485E-02 Eh
 * total energy  :   -82.8896860 Eh     change       -0.2395612E-02 Eh
 * total energy  :   -82.8925263 Eh     change       -0.2840239E-02 Eh
 * total energy  :   -82.8955236 Eh     change       -0.2997274E-02 Eh
 * total energy  :   -82.8987711 Eh     change       -0.3247515E-02 Eh
 * total energy  :   -82.9030653 Eh     change       -0.4294269E-02 Eh
 * total energy  :   -82.9773653 Eh     change       -0.1270693E-04 Eh
 * total energy  :   -82.9773749 Eh     change       -0.9632917E-05 Eh
 * total energy  :   -82.9773827 Eh     change       -0.7767701E-05 Eh
 * total energy  :   -82.9773886 Eh     change       -0.5905990E-05 Eh
 * total energy  :   -82.9773898 Eh     change       -0.1153961E-05 Eh
 * total energy  :   -82.9773945 Eh     change       -0.4711886E-05 Eh
 * total energy  :   -82.9774007 Eh     change       -0.6264512E-05 Eh
 * total energy  :   -82.9774055 Eh     change       -0.4763414E-05 Eh
 * total energy  :   -82.9774082 Eh     change       -0.2668475E-05 Eh
   *** GEOMETRY OPTIMIZATION CONVERGED AFTER 122 ITERATIONS ***

 final structure:
================
42
 xtb: 6.5.1 (579679a)
C           -3.01663003749202        2.29148801691276        3.11110305503095
O           -3.58768670170741        0.97537685759293        3.17528480192738
C           -3.34247313216450        0.11605460202752        2.23265547397729
C           -3.97092595552569       -1.21155886089931        2.37113791928975
O           -2.54981913158934        0.47342657082381        1.29010403028862
C           -2.37692790100376       -0.21744234820013        0.07473631994462
N           -1.09372564069340       -0.18818836136595       -0.36393295108856
C           -0.82372638954411       -0.71852937786412       -1.51148288146429
C            0.59180690592430       -0.72348128630833       -2.04948506353787
C            0.67321020281110        0.16291898667684       -3.30186593819385
C            1.04523291874558       -2.15813075021596       -2.35692311364950
N            1.43272333008246       -0.16352864971678       -0.99427211884999
C            2.76183523130767        0.00759798894758       -1.09718437407551
O            3.44347692095147       -0.26081850040658       -2.07273697977264
C            3.32328244209958        0.57812143525624        0.15698601829562
N            2.65842956894025        0.87781830196951        1.23194448916512
N            3.56299746529858        1.35628220757550        2.13300004433401
C            4.72230144530907        1.31625921299114        1.54958499749328
C            6.02945892550727        1.72649394415842        2.10856098033598
O            4.63636419737029        0.83504778826985        0.30065987711248
N           -1.80842114005477       -1.27712237643886       -2.28209629757311
C           -3.14749115190094       -1.32753798188644       -1.94434965520628
O           -3.94679025042019       -1.85659970134155       -2.70273409843150
C           -3.49020278645304       -0.70785022389482       -0.62503421537798
O           -4.67666074909113       -0.62165607626026       -0.23101200898844
H           -3.25370129523814        2.75111077920342        2.15027994600068
H           -3.46248379403212        2.85203346530386        3.92936018116513
H           -1.93471563545236        2.22760570140130        3.23377082989676
H           -4.20777331377730       -1.39460502015169        3.41588812931738
H           -3.30557118783276       -1.97605339269527        1.97363266715780
H           -4.89402068346406       -1.24640759555536        1.78192883325080
H            0.40433528897636        1.18748390373094       -3.04906534583786
H            1.68462051711192        0.14641132636125       -3.70398889773161
H           -0.01325899686762       -0.20824381639530       -4.06005190958458
H            2.07406997875919       -2.15216175964645       -2.71249710236978
H            0.41312825459642       -2.59184914678514       -3.12868549223582
H            0.98021500759394       -2.76893237919941       -1.45794658352509
H            0.96207077413645        0.09728146696095       -0.13427085367447
H            6.44945607804978        2.54041603615520        1.51759725671536
H            6.72772059045054        0.89048448738384        2.07500552794659
H            5.89989919016017        2.05352858039788        3.13718754852136
H           -1.57362835977952       -1.69254605490374       -3.17079204596562

          :  Hamiltonian                  GFN1-xTB          :
         :: total energy             -82.977408179942 Eh    ::
         :: gradient norm              0.000306327174 Eh/a0 ::
         :: HOMO-LUMO gap              1.747475206664 eV    ::
         :: SCC energy               -83.757221610794 Eh    ::
         :: -> Gsolv                  -0.058278874146 Eh    ::
         :: repulsion energy           0.804804615036 Eh    ::

    * Orbital Energies and Occupations

         #    Occupation            Energy/Eh            Energy/eV
      -------------------------------------------------------------
         1        2.0000           -0.8913927             -24.2560
       ...           ...                  ...                  ...
        55        2.0000           -0.5049658             -13.7408
        56        2.0000           -0.4998741             -13.6023
        57        2.0000           -0.4977313             -13.5440
        58        2.0000           -0.4828948             -13.1402
        59        2.0000           -0.4815248             -13.1030
        60        2.0000           -0.4678860             -12.7318
        61        2.0000           -0.4636417             -12.6163
        62        2.0000           -0.4590321             -12.4909
        63        2.0000           -0.4525613             -12.3148
        64        2.0000           -0.4490352             -12.2189
        65        2.0000           -0.4444755             -12.0948
        66        2.0000           -0.4127502             -11.2315
        67        2.0000           -0.3900575             -10.6140 (HOMO)
        68                         -0.3258390              -8.8665 (LUMO)
        69                         -0.3080523              -8.3825
        70                         -0.2758808              -7.5071
        71                         -0.2630761              -7.1587
        72                         -0.2565322              -6.9806
        73                         -0.1960516              -5.3348
        74                         -0.1610257              -4.3817
        75                         -0.1535911              -4.1794
        76                         -0.1430339              -3.8921
        77                         -0.1425766              -3.8797
        78                         -0.1342849              -3.6541
       ...                                ...                  ...
       134                          0.7364002              20.0385
      -------------------------------------------------------------
                  HL-Gap            0.0642185 Eh            1.7475 eV

Wiberg/Mayer (AO) data.
largest (>0.10) Wiberg bond orders for each atom

     #   Z sym  total        # sym  WBO       # sym  WBO       # sym  WBO
 ---------------------------------------------------------------------------
     1   6 C    3.842 --    27 H    0.983    26 H    0.976    28 H    0.976
                             2 O    0.867
     2   8 O    2.265 --     3 C    1.218     1 C    0.867
     3   6 C    3.793 --     5 O    1.271     2 O    1.218     4 C    1.042
     4   6 C    3.973 --     3 C    1.042    29 H    0.972    30 H    0.963
                            31 H    0.910
     5   8 O    2.354 --     3 C    1.271     6 C    0.872
     6   6 C    3.771 --    24 C    1.300     7 N    1.204     5 O    0.872
                            25 O    0.130
     7   7 N    3.045 --     8 C    1.558     6 C    1.204
     8   6 C    3.926 --     7 N    1.558    21 N    1.143     9 C    0.984
     9   6 C    3.937 --     8 C    0.984    11 C    0.981    10 C    0.978
                            12 N    0.932
    10   6 C    3.987 --    32 H    0.985    34 H    0.984    33 H    0.979
                             9 C    0.978
    11   6 C    3.988 --    37 H    0.985    36 H    0.983     9 C    0.981
                            35 H    0.979
    12   7 N    3.360 --    13 C    1.270     9 C    0.932    38 H    0.878
                            14 O    0.182
    13   6 C    3.920 --    14 O    1.583    12 N    1.270    15 C    0.986
    14   8 O    1.903 --    13 C    1.583    12 N    0.182
    15   6 C    3.873 --    16 N    1.613    20 O    1.064    13 C    0.986
    16   7 N    3.012 --    15 C    1.613    17 N    1.197
    17   7 N    2.980 --    18 C    1.607    16 N    1.197
    18   6 C    3.872 --    17 N    1.607    20 O    1.083    19 C    1.031
    19   6 C    3.987 --    18 C    1.031    41 H    0.983    40 H    0.964
                            39 H    0.963
    20   8 O    2.329 --    18 C    1.083    15 C    1.064
    21   7 N    3.436 --     8 C    1.143    22 C    1.128    42 H    0.889
                            23 O    0.131
    22   6 C    3.890 --    23 O    1.598    21 N    1.128    24 C    0.989
    23   8 O    1.880 --    22 C    1.598    21 N    0.131
    24   6 C    3.959 --    25 O    1.453     6 C    1.300    22 C    0.989
    25   8 O    1.832 --    24 C    1.453     6 C    0.130
    26   1 H    1.001 --     1 C    0.976
    27   1 H    1.005 --     1 C    0.983
    28   1 H    1.001 --     1 C    0.976
    29   1 H    0.995 --     4 C    0.972
    30   1 H    0.995 --     4 C    0.963
    31   1 H    1.007 --     4 C    0.910
    32   1 H    1.002 --    10 C    0.985
    33   1 H    1.008 --    10 C    0.979
    34   1 H    1.000 --    10 C    0.984
    35   1 H    1.007 --    11 C    0.979
    36   1 H    1.000 --    11 C    0.983
    37   1 H    1.002 --    11 C    0.985
    38   1 H    0.970 --    12 N    0.878
    39   1 H    0.997 --    19 C    0.963
    40   1 H    0.997 --    19 C    0.964
    41   1 H    0.999 --    19 C    0.983
    42   1 H    0.937 --    21 N    0.889
 ---------------------------------------------------------------------------

           -------------------------------------------------
          | TOTAL ENERGY              -82.977408179942 Eh   |
          | GRADIENT NORM               0.000306327174 Eh/α |
          | HOMO-LUMO GAP               1.747475206664 eV   |
           -------------------------------------------------

 * finished run on 2023/06/21 at 17:41:14.250
