   * xtb version 6.5.1 (579679a) compiled by 'ehlert@majestix' on 2022-07-11
          program call               : /lustre/hpc/kemi/ree/PhD/git/ReactivityQM/dep/xtb-6.5.1/bin/xtb --gfn 1 /lustre/hpc/kemi/ree/PhD/git/ReactivityQM/calculations/R02deprot/reac01prodE10/conf11/R02deprot_reac01prodE10_conf11_gfn1.xyz --opt --vfukui --chrg -2 --uhf 0 --alpb DMSO

   ID    Z sym.   atoms
    1    6 C      1, 3, 5, 7-10, 12, 14, 17-19, 22, 24
    2    8 O      2, 4, 13, 20, 23, 25
    3    7 N      6, 11, 15, 16, 21
    4    1 H      26-42

      * Solvation model:               ALPB
        Solvent                        DMSO
        Solvent mass                       7.8130E+01 g/mol
          :  Hamiltonian                  GFN1-xTB          :
 * total energy  :   -83.5539096 Eh     change       -0.3595389E-08 Eh
 * total energy  :   -83.5683730 Eh     change       -0.1446343E-01 Eh
 * total energy  :   -83.5738496 Eh     change       -0.5476588E-02 Eh
 * total energy  :   -83.5745573 Eh     change       -0.7076720E-03 Eh
 * total energy  :   -83.5751376 Eh     change       -0.5803287E-03 Eh
 * total energy  :   -83.5752743 Eh     change       -0.1366757E-03 Eh
 * total energy  :   -83.5753883 Eh     change       -0.1140092E-03 Eh
 * total energy  :   -83.5754447 Eh     change       -0.5641450E-04 Eh
 * total energy  :   -83.5754986 Eh     change       -0.5383807E-04 Eh
 * total energy  :   -83.5755349 Eh     change       -0.3632209E-04 Eh
 * total energy  :   -83.5760551 Eh     change       -0.1240694E-04 Eh
 * total energy  :   -83.5760635 Eh     change       -0.8427935E-05 Eh
 * total energy  :   -83.5760716 Eh     change       -0.8059270E-05 Eh
 * total energy  :   -83.5760807 Eh     change       -0.9139284E-05 Eh
 * total energy  :   -83.5760905 Eh     change       -0.9804396E-05 Eh
 * total energy  :   -83.5760990 Eh     change       -0.8509821E-05 Eh
 * total energy  :   -83.5761055 Eh     change       -0.6465565E-05 Eh
 * total energy  :   -83.5761108 Eh     change       -0.5321493E-05 Eh
 * total energy  :   -83.5761158 Eh     change       -0.4997918E-05 Eh
   *** GEOMETRY OPTIMIZATION CONVERGED AFTER 41 ITERATIONS ***

 final structure:
================
42
 xtb: 6.5.1 (579679a)
C            6.50925695109009       -1.16923844913633       -0.21874363530120
O            5.17481558328441       -0.71595616166508       -0.06211602953191
C            4.80019409383063       -0.41453377174788        1.21602808067622
O            5.60801384798277       -0.53199475080590        2.14965841655515
C            3.42692768338483        0.02678423593743        1.34923404974501
N            2.66415200684063        0.11160385789512        0.21172437812675
C            1.40819498981969        0.49235193445775        0.36348488683018
C            0.59379241553080        0.57097490830187       -0.93196418360158
C            1.26527320378870        1.60386340266529       -1.85361695255868
C            0.62410857151186       -0.82211282995833       -1.59502762110880
N           -0.76497272380589        1.00094528891030       -0.60948539130128
C           -1.78909611355757        0.77594809713985       -1.60443309805427
O           -1.55682416163728        1.01941672528319       -2.83571623355851
C           -2.98149145186924        0.37143654923777       -1.05205739860862
N           -3.24089742799573        0.06243782292701        0.29252117144767
N           -4.50630236088818       -0.33334732081148        0.28841788839623
C           -5.12193695413762       -0.75480865954040        1.52341099455049
C           -5.08034696032624       -0.30374978534393       -0.89571441013731
C           -6.47477222854901       -0.67794395298692       -1.23770279597774
O           -4.19537911583999        0.14071866912076       -1.83166219459751
N            0.80019004104841        0.80387882384926        1.50170916285767
C            1.48953387880672        0.76094061422153        2.68315436070066
O            0.94137359963488        1.06123134481303        3.76862033168687
C            2.88170397736405        0.34908593519693        2.58697796897890
O            3.60855035165904        0.28994002163739        3.74495628012000
H            6.68492224963481       -2.07403676402699        0.37204930711294
H            7.22189301370380       -0.40072129835596        0.09790790233856
H            6.65196697488698       -1.38842212043722       -1.27644761160692
H            0.76285717148036        1.64125014729085       -2.82007997295441
H            1.21850467269723        2.59334124383202       -1.39575558986003
H            2.31116257571949        1.33487715995784       -2.00574476766485
H            1.65931260049305       -1.14882294264336       -1.69995007905796
H            0.09167325787955       -1.54452694390478       -0.97496192470863
H            0.16165527739820       -0.79335468863778       -2.58156793378938
H           -1.04637750872360        0.59833036933166        0.28720774114544
H           -4.38738619964411       -0.66209560449554        2.32064251863448
H           -5.44670732942876       -1.79081135386402        1.43681586802309
H           -5.98585478018461       -0.12737023663140        1.73820230060688
H           -6.66848505730240       -1.72892100797470       -1.01351134819565
H           -7.19307785045235       -0.08171588873038       -0.67172110207994
H           -6.63791596443616       -0.51031271359485       -2.30020120545179
H            4.51779519930972       -0.01109290670767        3.53545887117151

          :  Hamiltonian                  GFN1-xTB          :
         :: total energy             -83.576115811254 Eh    ::
         :: gradient norm              0.000318188691 Eh/a0 ::
         :: HOMO-LUMO gap              0.093105533969 eV    ::
         :: SCC energy               -84.301788772594 Eh    ::
         :: -> Gsolv                  -0.293840269756 Eh    ::
         :: repulsion energy           0.750773676380 Eh    ::

    * Orbital Energies and Occupations

         #    Occupation            Energy/Eh            Energy/eV
      -------------------------------------------------------------
         1        2.0000           -0.8101744             -22.0460
       ...           ...                  ...                  ...
        56        2.0000           -0.4376466             -11.9090
        57        2.0000           -0.4350623             -11.8386
        58        2.0000           -0.4245713             -11.5532
        59        2.0000           -0.4123832             -11.2215
        60        2.0000           -0.4031184             -10.9694
        61        2.0000           -0.3906158             -10.6292
        62        2.0000           -0.3822496             -10.4015
        63        2.0000           -0.3727566             -10.1432
        64        2.0000           -0.3664424              -9.9714
        65        2.0000           -0.3498113              -9.5189
        66        2.0000           -0.3433383              -9.3427
        67        2.0000           -0.3418336              -9.3018
        68        1.7165           -0.2616223              -7.1191 (HOMO)
        69        0.2835           -0.2582007              -7.0260 (LUMO)
        70                         -0.2316371              -6.3032
        71                         -0.1975248              -5.3749
        72                         -0.1643559              -4.4724
        73                         -0.1425606              -3.8793
        74                         -0.1270752              -3.4579
        75                         -0.1171411              -3.1876
        76                         -0.1111521              -3.0246
        77                         -0.0859430              -2.3386
        78                         -0.0854283              -2.3246
        79                         -0.0806767              -2.1953
       ...                                ...                  ...
       134                          0.7196767              19.5834
      -------------------------------------------------------------
                  HL-Gap            0.0034216 Eh            0.0931 eV

Wiberg/Mayer (AO) data.
largest (>0.10) Wiberg bond orders for each atom

     #   Z sym  total        # sym  WBO       # sym  WBO       # sym  WBO
 ---------------------------------------------------------------------------
     1   6 C    3.901 --    28 H    0.987    27 H    0.980    26 H    0.980
                             2 O    0.929
     2   8 O    2.124 --     3 C    1.029     1 C    0.929
     3   6 C    3.716 --     4 O    1.502     5 C    1.111     2 O    1.029
     4   8 O    1.808 --     3 C    1.502
     5   6 C    3.924 --    24 C    1.390     6 N    1.192     3 C    1.111
     6   7 N    2.955 --     7 C    1.443     5 C    1.192
     7   6 C    3.953 --     6 N    1.443    21 N    1.385     8 C    0.969
     8   6 C    3.962 --     9 C    0.986    10 C    0.979     7 C    0.969
                            11 N    0.966
     9   6 C    3.996 --    30 H    0.987    31 H    0.987     8 C    0.986
                            29 H    0.981
    10   6 C    3.995 --    33 H    0.988    32 H    0.986    34 H    0.984
                             8 C    0.979
    11   7 N    3.063 --    12 C    0.976     8 C    0.966    35 H    0.930
    12   6 C    3.868 --    14 C    1.428    13 O    1.330    11 N    0.976
    13   8 O    1.624 --    12 C    1.330    14 C    0.121
    14   6 C    3.611 --    12 C    1.428    15 N    1.112    20 O    0.844
                            13 O    0.121
    15   7 N    2.736 --    16 N    1.180    14 C    1.112    18 C    0.275
    16   7 N    3.635 --    18 C    1.374    15 N    1.180    17 C    0.949
    17   6 C    3.951 --    36 H    0.984    38 H    0.981    37 H    0.981
                            16 N    0.949
    18   6 C    3.813 --    16 N    1.374    20 O    1.045    19 C    1.026
                            15 N    0.275
    19   6 C    3.993 --    18 C    1.026    41 H    0.983    40 H    0.972
                            39 H    0.971
    20   8 O    2.077 --    18 C    1.045    14 C    0.844
    21   7 N    2.941 --     7 C    1.385    22 C    1.209    23 O    0.115
    22   6 C    3.912 --    23 O    1.455    21 N    1.209    24 C    1.122
    23   8 O    1.726 --    22 C    1.455    21 N    0.115
    24   6 C    3.805 --     5 C    1.390    22 C    1.122    25 O    1.039
    25   8 O    1.997 --    24 C    1.039    42 H    0.812
    26   1 H    1.014 --     1 C    0.980
    27   1 H    1.014 --     1 C    0.980
    28   1 H    1.016 --     1 C    0.987
    29   1 H    1.033 --     9 C    0.981
    30   1 H    1.016 --     9 C    0.987
    31   1 H    1.021 --     9 C    0.987
    32   1 H    1.023 --    10 C    0.986
    33   1 H    1.009 --    10 C    0.988
    34   1 H    1.020 --    10 C    0.984
    35   1 H    1.011 --    11 N    0.930
    36   1 H    1.011 --    17 C    0.984
    37   1 H    1.002 --    17 C    0.981
    38   1 H    1.002 --    17 C    0.981
    39   1 H    1.001 --    19 C    0.971
    40   1 H    1.001 --    19 C    0.972
    41   1 H    1.002 --    19 C    0.983
    42   1 H    0.889 --    25 O    0.812
 ---------------------------------------------------------------------------

           -------------------------------------------------
          | TOTAL ENERGY              -83.576115811254 Eh   |
          | GRADIENT NORM               0.000318188691 Eh/α |
          | HOMO-LUMO GAP               0.093105533969 eV   |
           -------------------------------------------------

 * finished run on 2023/06/20 at 17:54:59.116
