   * xtb version 6.5.1 (579679a) compiled by 'ehlert@majestix' on 2022-07-11
          program call               : /lustre/hpc/kemi/ree/PhD/git/ReactivityQM/dep/xtb-6.5.1/bin/xtb --gfn 1 /lustre/hpc/kemi/ree/PhD/git/ReactivityQM/calculations/R03/reac01prodN03/conf07/R03_reac01prodN03_conf07_gfn1.xyz --opt --vfukui --chrg 1 --uhf 0 --alpb DMSO

   ID    Z sym.   atoms
    1    6 C      1-4, 6-9
    2    9 F      5
    3    7 N      10
    4    1 H      11-21

      * Solvation model:               ALPB
        Solvent                        DMSO
        Solvent mass                       7.8130E+01 g/mol
          :  Hamiltonian                  GFN1-xTB          :
 * total energy  :   -30.7617319 Eh     change       -0.3766587E-10 Eh
 * total energy  :   -30.7671314 Eh     change       -0.5399455E-02 Eh
 * total energy  :   -30.7686050 Eh     change       -0.1473632E-02 Eh
 * total energy  :   -30.7687787 Eh     change       -0.1736544E-03 Eh
 * total energy  :   -30.7689211 Eh     change       -0.1424358E-03 Eh
 * total energy  :   -30.7690131 Eh     change       -0.9200135E-04 Eh
 * total energy  :   -30.7691456 Eh     change       -0.1325003E-03 Eh
 * total energy  :   -30.7692812 Eh     change       -0.1355857E-03 Eh
 * total energy  :   -30.7693765 Eh     change       -0.9535884E-04 Eh
 * total energy  :   -30.7694174 Eh     change       -0.4089138E-04 Eh
 * total energy  :   -30.7694349 Eh     change       -0.1750796E-04 Eh
 * total energy  :   -30.7694455 Eh     change       -0.1053536E-04 Eh
 * total energy  :   -30.7694599 Eh     change       -0.1439558E-04 Eh
 * total energy  :   -30.7694740 Eh     change       -0.1416265E-04 Eh
 * total energy  :   -30.7694830 Eh     change       -0.8977665E-05 Eh
 * total energy  :   -30.7694913 Eh     change       -0.8240756E-05 Eh
 * total energy  :   -30.7694946 Eh     change       -0.3371464E-05 Eh
   *** GEOMETRY OPTIMIZATION CONVERGED AFTER 17 ITERATIONS ***

 final structure:
================
21
 xtb: 6.5.1 (579679a)
C           -0.56727914813412       -1.99608565777327        0.34878765048110
C           -0.54085960003089       -0.50856024507764        0.82887327809176
C           -1.92750325267583       -0.00273330389317        0.77868198233482
C           -2.24819750888687        1.04723994562805       -0.01842109603298
F           -3.50378589530671        1.47328106886549       -0.08097596528538
C           -1.28806230321685        1.73109835237835       -0.78612913500110
C            0.03862908167433        1.34197102638692       -0.73186366911713
C            0.45134610525551        0.28348859372923        0.06555820564912
C            1.89307298385782       -0.04653833830723        0.18399442299331
N            2.68425715287162        0.56076201191954       -0.86125129172307
H           -1.27377590170045       -2.55384617856863        0.95925785000153
H           -0.87237492971728       -2.03726776958123       -0.69394738060369
H            0.42351902226041       -2.42842027486663        0.46006195706570
H           -0.22065427249166       -0.56958982901441        1.87985905755786
H           -2.68110695740265       -0.52171795463227        1.35786090130807
H           -1.60126095543797        2.56863942487047       -1.39902415746996
H            0.78511653400024        1.88840624190900       -1.29806735619562
H            2.23364819846217        0.34144286547094        1.15348972607224
H            2.03996772748631       -1.13578990335667        0.22696805656579
H            3.66307641853097        0.46802709072223       -0.63318121474083
H            2.51222850060190        0.09619383319088       -1.74053182195138

          :  Hamiltonian                  GFN1-xTB          :
         :: total energy             -30.769494628153 Eh    ::
         :: gradient norm              0.000742265829 Eh/a0 ::
         :: HOMO-LUMO gap              0.704432077225 eV    ::
         :: SCC energy               -31.162280881820 Eh    ::
         :: -> Gsolv                  -0.086520046390 Eh    ::
         :: repulsion energy           0.403035453027 Eh    ::

    * Orbital Energies and Occupations

         #    Occupation            Energy/Eh            Energy/eV
      -------------------------------------------------------------
         1        2.0000           -0.9123273             -24.8257
       ...           ...                  ...                  ...
        15        2.0000           -0.5996340             -16.3169
        16        2.0000           -0.5935029             -16.1500
        17        2.0000           -0.5830325             -15.8651
        18        2.0000           -0.5730074             -15.5923
        19        2.0000           -0.5648215             -15.3696
        20        2.0000           -0.5600073             -15.2386
        21        2.0000           -0.5505181             -14.9804
        22        2.0000           -0.5396371             -14.6843
        23        2.0000           -0.5377618             -14.6332
        24        2.0000           -0.5295365             -14.4094
        25        2.0000           -0.5223124             -14.2128
        26        2.0000           -0.4964058             -13.5079
        27        2.0000           -0.4410695             -12.0021 (HOMO)
        28        0.0000           -0.4151821             -11.2977 (LUMO)
        29                         -0.3215751              -8.7505
        30                         -0.2396314              -6.5207
        31                         -0.1635428              -4.4502
        32                         -0.1525851              -4.1521
        33                         -0.1447827              -3.9397
        34                         -0.1375979              -3.7442
        35                         -0.1260341              -3.4296
        36                         -0.1186311              -3.2281
        37                         -0.1093738              -2.9762
        38                         -0.1037725              -2.8238
       ...                                ...                  ...
        62                          0.5432278              14.7820
      -------------------------------------------------------------
                  HL-Gap            0.0258874 Eh            0.7044 eV

Wiberg/Mayer (AO) data.
largest (>0.10) Wiberg bond orders for each atom

     #   Z sym  total        # sym  WBO       # sym  WBO       # sym  WBO
 ---------------------------------------------------------------------------
     1   6 C    3.964 --    12 H    0.986    11 H    0.981    13 H    0.974
                             2 C    0.882
     2   6 C    3.993 --     8 C    1.078     3 C    1.077    14 H    0.886
                             1 C    0.882
     3   6 C    3.971 --     4 C    1.561     2 C    1.077    15 H    0.960
     4   6 C    3.883 --     3 C    1.561     6 C    1.269     5 F    0.963
     5   9 F    1.104 --     4 C    0.963
     6   6 C    3.959 --     7 C    1.455     4 C    1.269    16 H    0.961
     7   6 C    3.984 --     6 C    1.455     8 C    1.434    17 H    0.956
     8   6 C    3.931 --     7 C    1.434     2 C    1.078     9 C    1.066
     9   6 C    3.982 --     8 C    1.066    10 N    1.016    19 H    0.922
                            18 H    0.910
    10   7 N    3.008 --     9 C    1.016    21 H    0.930    20 H    0.925
    11   1 H    0.993 --     1 C    0.981
    12   1 H    0.995 --     1 C    0.986
    13   1 H    0.999 --     1 C    0.974
    14   1 H    0.986 --     2 C    0.886
    15   1 H    0.986 --     3 C    0.960
    16   1 H    0.988 --     6 C    0.961
    17   1 H    1.005 --     7 C    0.956
    18   1 H    0.996 --     9 C    0.910
    19   1 H    0.994 --     9 C    0.922
    20   1 H    0.940 --    10 N    0.925
    21   1 H    0.945 --    10 N    0.930
 ---------------------------------------------------------------------------

           -------------------------------------------------
          | TOTAL ENERGY              -30.769494628153 Eh   |
          | GRADIENT NORM               0.000742265829 Eh/α |
          | HOMO-LUMO GAP               0.704432077225 eV   |
           -------------------------------------------------

 * finished run on 2023/06/20 at 15:14:11.781
