   * xtb version 6.5.1 (579679a) compiled by 'ehlert@majestix' on 2022-07-11
          program call               : /lustre/hpc/kemi/ree/PhD/git/ReactivityQM/dep/xtb-6.5.1/bin/xtb --gfn 1 /lustre/hpc/kemi/ree/PhD/git/ReactivityQM/calculations/R02methylcation/reac01prodN11/conf05/R02methylcation_reac01prodN11_conf05_gfn1.xyz --opt --vfukui --chrg 0 --uhf 0 --alpb DMSO

   ID    Z sym.   atoms
    1    6 C      1, 3, 5, 7-10, 12, 13, 15, 18, 19, 22, 24
    2    8 O      2, 4, 14, 20, 23, 25
    3    7 N      6, 11, 16, 17, 21
    4    1 H      26-42

      * Solvation model:               ALPB
        Solvent                        DMSO
        Solvent mass                       7.8130E+01 g/mol
          :  Hamiltonian                  GFN1-xTB          :
 * total energy  :   -82.8634724 Eh     change       -0.7059953E-10 Eh
 * total energy  :   -82.8748192 Eh     change       -0.1134680E-01 Eh
 * total energy  :   -82.8803001 Eh     change       -0.5480924E-02 Eh
 * total energy  :   -82.8817230 Eh     change       -0.1422862E-02 Eh
 * total energy  :   -82.8827701 Eh     change       -0.1047135E-02 Eh
 * total energy  :   -82.8834264 Eh     change       -0.6563455E-03 Eh
 * total energy  :   -82.8838316 Eh     change       -0.4051517E-03 Eh
 * total energy  :   -82.8840228 Eh     change       -0.1912014E-03 Eh
 * total energy  :   -82.8841009 Eh     change       -0.7806466E-04 Eh
 * total energy  :   -82.8841496 Eh     change       -0.4870588E-04 Eh
 * total energy  :   -82.8863678 Eh     change       -0.1023757E-04 Eh
 * total energy  :   -82.8863744 Eh     change       -0.6585927E-05 Eh
 * total energy  :   -82.8863786 Eh     change       -0.4184216E-05 Eh
 * total energy  :   -82.8863828 Eh     change       -0.4275368E-05 Eh
 * total energy  :   -82.8863893 Eh     change       -0.6415588E-05 Eh
 * total energy  :   -82.8863944 Eh     change       -0.5171794E-05 Eh
 * total energy  :   -82.8863994 Eh     change       -0.4946996E-05 Eh
 * total energy  :   -82.8864081 Eh     change       -0.8752450E-05 Eh
 * total energy  :   -82.8864112 Eh     change       -0.3080993E-05 Eh
   *** GEOMETRY OPTIMIZATION CONVERGED AFTER 72 ITERATIONS ***

 final structure:
================
42
 xtb: 6.5.1 (579679a)
C            5.42486155815446        1.78503534953692        1.79844427093457
O            4.33161711767089        1.26446598935381        1.03662025905572
C            4.41501238190918        1.40741029104004       -0.28820750131217
O            5.34854396320507        1.94055869635526       -0.83869540558078
C            3.22560782191204        0.82624270213241       -0.98123976470068
N            2.29868939302008        0.27690030708083       -0.19464217128881
C            1.19541947521247       -0.23370356517336       -0.69454247682322
C            0.23210720789306       -0.89978102396691        0.24472403806809
C            0.69191807917394       -2.37581344687535        0.34185445551209
C            0.29415912678879       -0.23979050237154        1.63574732419845
N           -1.10200674332682       -0.82299135965258       -0.27685719101538
C           -2.24531100684532       -1.50048194640471        0.33628891869894
C           -2.82066828953444       -2.42988361933102       -0.83225932924410
O           -2.04571079824778       -2.15297298398018        1.41538315511687
C           -3.33780251619390       -0.41534768786945        0.42423866679987
N           -4.21813314081395       -0.26286101674085        1.35101934639725
N           -4.98761743225969        0.80468727507021        0.96650503784560
C           -4.53046996997164        1.21574062488592       -0.17052340753474
C           -5.01783989238985        2.34439955935326       -0.99304088956997
O           -3.47541125351324        0.47763295848252       -0.57617618008258
N            0.95144330114789       -0.23895273127541       -2.02246024195470
C            1.82044170204375        0.27433943695021       -2.98195556618465
O            1.54103017344045        0.20399823598249       -4.15634517831072
C            3.09758527825990        0.88013092039783       -2.42619137584154
O            3.92167905714839        1.36103888679523       -3.18814202851287
H            5.19637499960131        1.58825977805038        2.84353155573159
H            5.52356458057609        2.85959668575116        1.62627008377077
H            6.35358873205819        1.28578920428505        1.51148300768071
H            0.58753557743444       -2.85134106811284       -0.63076388891246
H            0.08545780268344       -2.90530001666417        1.07245221131074
H            1.73528636288571       -2.40381286193869        0.64989905847262
H            1.32169912157981       -0.26689725561509        1.99329694722359
H           -0.03710439395513        0.79413761110074        1.56468968419547
H           -0.34794209486513       -0.78063179872328        2.32762284538748
H           -1.31849907243436       -0.12542638102669       -0.96938419473281
H           -2.06809793424354       -3.18681510127745       -1.02813268594954
H           -3.73387573547726       -2.88611711700573       -0.46154803012705
H           -3.01096461617240       -1.83542173859058       -1.71823547756743
H           -5.96317715597331        2.70432107790075       -0.59304083759809
H           -5.15027695703372        2.02250044953566       -2.02536193417911
H           -4.28975225105784        3.15642145601437       -0.98323388442347
H            0.10703644051239       -0.65926127345611       -2.37996422494948

          :  Hamiltonian                  GFN1-xTB          :
         :: total energy             -82.886411213458 Eh    ::
         :: gradient norm              0.000906631485 Eh/a0 ::
         :: HOMO-LUMO gap              0.085121017783 eV    ::
         :: SCC energy               -83.653219764739 Eh    ::
         :: -> Gsolv                  -0.071219023826 Eh    ::
         :: repulsion energy           0.793055872127 Eh    ::

    * Orbital Energies and Occupations

         #    Occupation            Energy/Eh            Energy/eV
      -------------------------------------------------------------
         1        2.0000           -0.8681063             -23.6224
       ...           ...                  ...                  ...
        55        2.0000           -0.5112755             -13.9125
        56        2.0000           -0.5059050             -13.7664
        57        2.0000           -0.5054907             -13.7551
        58        2.0000           -0.4977484             -13.5444
        59        2.0000           -0.4884419             -13.2912
        60        2.0000           -0.4805153             -13.0755
        61        2.0000           -0.4776437             -12.9973
        62        2.0000           -0.4607465             -12.5376
        63        2.0000           -0.4587413             -12.4830
        64        2.0000           -0.4537199             -12.3463
        65        2.0000           -0.4445823             -12.0977
        66        2.0000           -0.4374742             -11.9043
        67        1.6768           -0.4209424             -11.4544 (HOMO)
        68        0.3232           -0.4178143             -11.3693 (LUMO)
        69                         -0.3240446              -8.8177
        70                         -0.3004696              -8.1762
        71                         -0.2728678              -7.4251
        72                         -0.2543186              -6.9204
        73                         -0.2476300              -6.7384
        74                         -0.1732039              -4.7131
        75                         -0.1429542              -3.8900
        76                         -0.1409167              -3.8345
        77                         -0.1388997              -3.7797
        78                         -0.1354106              -3.6847
       ...                                ...                  ...
       134                          0.7535291              20.5046
      -------------------------------------------------------------
                  HL-Gap            0.0031281 Eh            0.0851 eV

Wiberg/Mayer (AO) data.
largest (>0.10) Wiberg bond orders for each atom

     #   Z sym  total        # sym  WBO       # sym  WBO       # sym  WBO
 ---------------------------------------------------------------------------
     1   6 C    3.868 --    26 H    0.986    27 H    0.978    28 H    0.978
                             2 O    0.896
     2   8 O    2.191 --     3 C    1.109     1 C    0.896     4 O    0.137
     3   6 C    3.845 --     4 O    1.664     2 O    1.109     5 C    1.000
     4   8 O    1.907 --     3 C    1.664     2 O    0.137
     5   6 C    3.756 --     6 N    1.376    24 C    1.117     3 C    1.000
     6   7 N    2.994 --     7 C    1.396     5 C    1.376
     7   6 C    3.835 --     6 N    1.396    21 N    1.232     8 C    1.004
     8   6 C    3.930 --     7 C    1.004    11 N    0.980    10 C    0.945
                             9 C    0.922
     9   6 C    3.958 --    31 H    0.985    29 H    0.985    30 H    0.972
                             8 C    0.922
    10   6 C    3.960 --    33 H    0.985    32 H    0.980    34 H    0.978
                             8 C    0.945
    11   7 N    3.209 --     8 C    0.980    12 C    0.925    35 H    0.894
                            14 O    0.164
    12   6 C    3.882 --    14 O    1.274    11 N    0.925    15 C    0.849
                            13 C    0.767
    13   6 C    3.819 --    38 H    0.987    37 H    0.982    36 H    0.980
                            12 C    0.767
    14   8 O    1.621 --    12 C    1.274    11 N    0.164
    15   6 C    3.788 --    16 N    1.661    20 O    1.056    12 C    0.849
    16   7 N    2.977 --    15 C    1.661    17 N    1.155
    17   7 N    2.978 --    18 C    1.637    16 N    1.155
    18   6 C    3.858 --    17 N    1.637    20 O    1.049    19 C    1.031
    19   6 C    3.985 --    18 C    1.031    39 H    0.981    40 H    0.967
                            41 H    0.960
    20   8 O    2.306 --    15 C    1.056    18 C    1.049
    21   7 N    3.452 --     7 C    1.232    22 C    1.083    42 H    0.874
                            23 O    0.104
    22   6 C    3.838 --    23 O    1.688    21 N    1.083    24 C    0.938
    23   8 O    1.911 --    22 C    1.688    21 N    0.104
    24   6 C    3.858 --    25 O    1.664     5 C    1.117    22 C    0.938
    25   8 O    1.824 --    24 C    1.664
    26   1 H    1.010 --     1 C    0.986
    27   1 H    1.005 --     1 C    0.978
    28   1 H    1.005 --     1 C    0.978
    29   1 H    0.999 --     9 C    0.985
    30   1 H    1.010 --     9 C    0.972
    31   1 H    1.000 --     9 C    0.985
    32   1 H    1.009 --    10 C    0.980
    33   1 H    0.999 --    10 C    0.985
    34   1 H    1.009 --    10 C    0.978
    35   1 H    0.937 --    11 N    0.894
    36   1 H    0.997 --    13 C    0.980
    37   1 H    1.000 --    13 C    0.982
    38   1 H    0.999 --    13 C    0.987
    39   1 H    0.998 --    19 C    0.981
    40   1 H    0.996 --    19 C    0.967
    41   1 H    0.997 --    19 C    0.960
    42   1 H    0.921 --    21 N    0.874
 ---------------------------------------------------------------------------

           -------------------------------------------------
          | TOTAL ENERGY              -82.886411213458 Eh   |
          | GRADIENT NORM               0.000906631485 Eh/α |
          | HOMO-LUMO GAP               0.085121017783 eV   |
           -------------------------------------------------

 * finished run on 2023/06/21 at 17:43:54.734
