   * xtb version 6.5.1 (579679a) compiled by 'ehlert@majestix' on 2022-07-11
          program call               : /lustre/hpc/kemi/ree/PhD/git/ReactivityQM/dep/xtb-6.5.1/bin/xtb --gfn 1 /lustre/hpc/kemi/ree/PhD/git/ReactivityQM/calculations/R02/reac01prodN04/conf15/R02_reac01prodN04_conf15_gfn1.xyz --opt --vfukui --chrg 1 --uhf 0 --alpb DMSO

   ID    Z sym.   atoms
    1    6 C      1, 3, 5, 7-10, 12, 14, 17, 18, 21, 23, 25
    2    8 O      2, 4, 13, 19, 22, 24
    3    7 N      6, 11, 15, 16, 20
    4    1 H      26-43

      * Solvation model:               ALPB
        Solvent                        DMSO
        Solvent mass                       7.8130E+01 g/mol
          :  Hamiltonian                  GFN1-xTB          :
 * total energy  :   -83.1086197 Eh     change       -0.7943868E-11 Eh
 * total energy  :   -83.1264562 Eh     change       -0.1783653E-01 Eh
 * total energy  :   -83.1353246 Eh     change       -0.8868343E-02 Eh
 * total energy  :   -83.1382657 Eh     change       -0.2941113E-02 Eh
 * total energy  :   -83.1409836 Eh     change       -0.2717957E-02 Eh
 * total energy  :   -83.1429483 Eh     change       -0.1964626E-02 Eh
 * total energy  :   -83.1450485 Eh     change       -0.2100241E-02 Eh
 * total energy  :   -83.1493206 Eh     change       -0.4272115E-02 Eh
 * total energy  :   -83.1505803 Eh     change       -0.1259648E-02 Eh
 * total energy  :   -83.1528718 Eh     change       -0.2291506E-02 Eh
 * total energy  :   -83.1635034 Eh     change       -0.8534765E-05 Eh
 * total energy  :   -83.1635109 Eh     change       -0.7413633E-05 Eh
 * total energy  :   -83.1635169 Eh     change       -0.6072466E-05 Eh
 * total energy  :   -83.1635223 Eh     change       -0.5361427E-05 Eh
 * total energy  :   -83.1635279 Eh     change       -0.5595113E-05 Eh
 * total energy  :   -83.1635345 Eh     change       -0.6651927E-05 Eh
 * total energy  :   -83.1635433 Eh     change       -0.8717119E-05 Eh
 * total energy  :   -83.1635543 Eh     change       -0.1101679E-04 Eh
 * total energy  :   -83.1635575 Eh     change       -0.3238078E-05 Eh
   *** GEOMETRY OPTIMIZATION CONVERGED AFTER 44 ITERATIONS ***

 final structure:
================
43
 xtb: 6.5.1 (579679a)
C           -1.51814444767947        3.92176270257098        0.22459686045210
O           -1.38852523803925        2.49288557024960        0.08949310009725
C           -2.43459490386822        1.75508813706251        0.12528832131315
O           -3.57708994983418        2.33176387506249        0.29150542248539
C           -2.26877235127674        0.32822227188579       -0.03552556234230
N           -0.96788137619759       -0.08474840560897       -0.17739406143257
C           -0.71778389609844       -1.33837286657958       -0.35768779998314
C            0.70770416332915       -1.81057822847879       -0.53920094470401
C            0.92036264884288       -2.17378102410105       -2.01840923552122
C            1.01225603647645       -3.00383847646468        0.37749546936560
N            1.56367967672118       -0.68774093906991       -0.17526719854722
C            2.91244292376151       -0.72938275689761       -0.20907881029508
O            3.58236755385207       -1.67012314467109       -0.59462926685745
C            3.48925393945909        0.53820424275562        0.30527698911261
N            2.82174666828887        1.56252413328701        0.74685839635982
N            3.74007807842128        2.48706098010883        1.14376830904275
C            4.91021144375878        1.96687654980822        0.92026331843219
C            6.23371897134188        2.57212594183079        1.18673641493205
O            4.81613683072872        0.73845719668678        0.39126466641264
N           -1.71666757175543       -2.26282910529053       -0.42712997287685
C           -3.05901298729944       -1.99211085657251       -0.27967178758453
O           -3.88574694488342       -2.87811977099499       -0.34132595535666
C           -3.33345137551832       -0.55962789434738       -0.05757093068757
O           -4.56239111352999       -0.09301922202834        0.10820354765676
C           -5.73151058091928       -0.93913443132269        0.12540535893202
H           -1.88773265456850        4.15463612204555        1.22374657038878
H           -2.21572873352745        4.29531286973183       -0.52548379346313
H           -0.52184424261824        4.32958039963050        0.07033632658234
H            0.74269180525627       -1.29970427876344       -2.64262777893270
H            0.23024011372267       -2.96410533637353       -2.30537669923976
H            1.94188743634782       -2.52113781045525       -2.16509342477241
H            0.83371105076416       -2.73034508933949        1.41586632283100
H            0.38293890164097       -3.85136930332513        0.11623727487822
H            2.05428325814875       -3.29581510995371        0.25667252939596
H            1.10287154685090        0.15159883739227        0.15176034484258
H            6.79787984925886        1.94252420743392        1.87496869786538
H            6.10282982568934        3.56068435388646        1.61998792899886
H            6.80080300007692        2.65107147031235        0.25921206720383
H           -1.50198473157694       -3.23881513425005       -0.58689153756484
H           -4.34716093768316        1.72218062140654        0.30304801230953
H           -5.84233539299010       -1.44551667115943       -0.83367543469072
H           -5.65364100160802       -1.66713563570686        0.93328597422831
H           -6.56809829127111       -0.26520699139635        0.29902097072669

          :  Hamiltonian                  GFN1-xTB          :
         :: total energy             -83.163557507558 Eh    ::
         :: gradient norm              0.000217590427 Eh/a0 ::
         :: HOMO-LUMO gap              1.773382674469 eV    ::
         :: SCC energy               -83.957622871169 Eh    ::
         :: -> Gsolv                  -0.107851415294 Eh    ::
         :: repulsion energy           0.819804166314 Eh    ::

    * Orbital Energies and Occupations

         #    Occupation            Energy/Eh            Energy/eV
      -------------------------------------------------------------
         1        2.0000           -0.9155005             -24.9120
       ...           ...                  ...                  ...
        55        2.0000           -0.5287186             -14.3872
        56        2.0000           -0.5204113             -14.1611
        57        2.0000           -0.5159439             -14.0395
        58        2.0000           -0.5148177             -14.0089
        59        2.0000           -0.5110861             -13.9074
        60        2.0000           -0.4918545             -13.3840
        61        2.0000           -0.4884108             -13.2903
        62        2.0000           -0.4878085             -13.2739
        63        2.0000           -0.4713871             -12.8271
        64        2.0000           -0.4694928             -12.7755
        65        2.0000           -0.4646462             -12.6437
        66        2.0000           -0.4578758             -12.4594
        67        2.0000           -0.4537559             -12.3473 (HOMO)
        68                         -0.3885853             -10.5739 (LUMO)
        69                         -0.3201051              -8.7105
        70                         -0.3166005              -8.6151
        71                         -0.2954699              -8.0401
        72                         -0.2619200              -7.1272
        73                         -0.2057537              -5.5988
        74                         -0.2038135              -5.5460
        75                         -0.1690303              -4.5995
        76                         -0.1534287              -4.1750
        77                         -0.1489970              -4.0544
        78                         -0.1451585              -3.9500
       ...                                ...                  ...
       136                          0.7195104              19.5789
      -------------------------------------------------------------
                  HL-Gap            0.0651706 Eh            1.7734 eV

Wiberg/Mayer (AO) data.
largest (>0.10) Wiberg bond orders for each atom

     #   Z sym  total        # sym  WBO       # sym  WBO       # sym  WBO
 ---------------------------------------------------------------------------
     1   6 C    3.820 --    28 H    0.982    27 H    0.973    26 H    0.971
                             2 O    0.851
     2   8 O    2.318 --     3 C    1.286     1 C    0.851
     3   6 C    3.813 --     2 O    1.286     4 O    1.252     5 C    1.120
     4   8 O    2.197 --     3 C    1.252    40 H    0.743
     5   6 C    3.958 --    23 C    1.413     6 N    1.163     3 C    1.120
     6   7 N    3.040 --     7 C    1.577     5 C    1.163
     7   6 C    3.919 --     6 N    1.577    20 N    1.175     8 C    0.987
     8   6 C    3.938 --     7 C    0.987    10 C    0.979     9 C    0.968
                            11 N    0.940
     9   6 C    3.984 --    29 H    0.985    30 H    0.985    31 H    0.976
                             8 C    0.968
    10   6 C    3.985 --    32 H    0.985    33 H    0.981     8 C    0.979
                            34 H    0.976
    11   7 N    3.342 --    12 C    1.247     8 C    0.940    35 H    0.880
                            13 O    0.177
    12   6 C    3.916 --    13 O    1.596    11 N    1.247    14 C    0.990
    13   8 O    1.915 --    12 C    1.596    11 N    0.177
    14   6 C    3.876 --    15 N    1.608    19 O    1.066    12 C    0.990
    15   7 N    3.015 --    14 C    1.608    16 N    1.202
    16   7 N    2.980 --    17 C    1.602    15 N    1.202
    17   6 C    3.870 --    16 N    1.602    19 O    1.084    18 C    1.032
    18   6 C    3.986 --    17 C    1.032    37 H    0.982    36 H    0.963
                            38 H    0.963
    19   8 O    2.333 --    17 C    1.084    14 C    1.066
    20   7 N    3.476 --     7 C    1.175    21 C    1.137    39 H    0.872
                            22 O    0.141
    21   6 C    3.913 --    22 O    1.621    20 N    1.137    23 C    1.034
    22   8 O    1.948 --    21 C    1.621    20 N    0.141
    23   6 C    3.906 --     5 C    1.413    24 O    1.144    21 C    1.034
    24   8 O    2.255 --    23 C    1.144    25 C    0.852
    25   6 C    3.825 --    43 H    0.982    42 H    0.974    41 H    0.973
                            24 O    0.852
    26   1 H    0.996 --     1 C    0.971
    27   1 H    0.997 --     1 C    0.973
    28   1 H    1.002 --     1 C    0.982
    29   1 H    1.000 --     9 C    0.985
    30   1 H    0.998 --     9 C    0.985
    31   1 H    1.006 --     9 C    0.976
    32   1 H    0.999 --    10 C    0.985
    33   1 H    0.997 --    10 C    0.981
    34   1 H    1.005 --    10 C    0.976
    35   1 H    0.965 --    11 N    0.880
    36   1 H    0.996 --    18 C    0.963
    37   1 H    0.998 --    18 C    0.982
    38   1 H    0.996 --    18 C    0.963
    39   1 H    0.919 --    20 N    0.872
    40   1 H    0.805 --     4 O    0.743
    41   1 H    1.007 --    25 C    0.973
    42   1 H    1.006 --    25 C    0.974
    43   1 H    1.005 --    25 C    0.982
 ---------------------------------------------------------------------------

           -------------------------------------------------
          | TOTAL ENERGY              -83.163557507558 Eh   |
          | GRADIENT NORM               0.000217590427 Eh/α |
          | HOMO-LUMO GAP               1.773382674469 eV   |
           -------------------------------------------------

 * finished run on 2023/06/20 at 15:22:34.181
