   * xtb version 6.5.1 (579679a) compiled by 'ehlert@majestix' on 2022-07-11
          program call               : /lustre/hpc/kemi/ree/PhD/git/ReactivityQM/dep/xtb-6.5.1/bin/xtb --gfn 1 /lustre/hpc/kemi/ree/PhD/git/ReactivityQM/calculations/R03/reac02prodE12/conf14/R03_reac02prodE12_conf14_gfn1.xyz --opt --vfukui --chrg -1 --uhf 0 --alpb DMSO

   ID    Z sym.   atoms
    1    6 C      1, 3, 5, 6, 8, 9, 12-16, 18, 20, 23, 24
    2    8 O      2, 4, 7, 10, 19, 25
    3    7 N      11, 17, 21, 22, 26
    4    1 H      27-46

      * Solvation model:               ALPB
        Solvent                        DMSO
        Solvent mass                       7.8130E+01 g/mol
          :  Hamiltonian                  GFN1-xTB          :
 * total energy  :   -87.0158254 Eh     change       -0.1291767E-10 Eh
 * total energy  :   -87.0303990 Eh     change       -0.1457356E-01 Eh
 * total energy  :   -87.0369815 Eh     change       -0.6582513E-02 Eh
 * total energy  :   -87.0382376 Eh     change       -0.1256086E-02 Eh
 * total energy  :   -87.0388194 Eh     change       -0.5817846E-03 Eh
 * total energy  :   -87.0390406 Eh     change       -0.2211870E-03 Eh
 * total energy  :   -87.0392138 Eh     change       -0.1732469E-03 Eh
 * total energy  :   -87.0393496 Eh     change       -0.1357643E-03 Eh
 * total energy  :   -87.0394744 Eh     change       -0.1248173E-03 Eh
 * total energy  :   -87.0395866 Eh     change       -0.1121717E-03 Eh
 * total energy  :   -87.0397217 Eh     change       -0.4818241E-04 Eh
 * total energy  :   -87.0397521 Eh     change       -0.3042388E-04 Eh
 * total energy  :   -87.0397702 Eh     change       -0.1807287E-04 Eh
 * total energy  :   -87.0397847 Eh     change       -0.1450681E-04 Eh
 * total energy  :   -87.0397941 Eh     change       -0.9437353E-05 Eh
 * total energy  :   -87.0398049 Eh     change       -0.1076939E-04 Eh
 * total energy  :   -87.0398114 Eh     change       -0.6517486E-05 Eh
 * total energy  :   -87.0398153 Eh     change       -0.3855750E-05 Eh
 * total energy  :   -87.0398194 Eh     change       -0.4088791E-05 Eh
   *** GEOMETRY OPTIMIZATION CONVERGED AFTER 20 ITERATIONS ***

 final structure:
================
46
 xtb: 6.5.1 (579679a)
C           -6.39112176202223       -1.84979889952813       -0.06790705876038
O           -5.28053602551875       -1.05635656857548        0.34940623509308
C           -4.10248557906687       -1.31342209580199       -0.28834648024097
O           -4.04156640129886       -2.17080920495868       -1.15109019213691
C           -2.98366412642067       -0.48591736680361        0.16431640721820
C           -3.01558109699531        0.47654791370230        1.12499578205596
O           -4.10809380968054        0.84854514976805        1.81430941589435
C           -1.72946349201238        1.22900526184819        1.59761183560450
C           -1.06177708423383        0.28588920081366        2.66779950682545
O           -1.88536625678597        2.44765661535470        1.96724230490653
N           -0.74810653647049        1.11524095950868        0.35377667317379
C            0.00182522239870        2.34008185472294        0.11390289217731
C           -0.80643945953280        0.05880004747789       -0.47958699193188
C            0.36099079635904       -0.27772686231754       -1.41732879316003
C            0.30404266155922       -1.76697511831548       -1.78872678787888
C            0.28829545921245        0.57041795105257       -2.69385402406257
N            1.60995905813337       -0.03719060288943       -0.68218608032965
C            2.84229777081858       -0.14653836028141       -1.20298080831521
O            3.11768993752480       -0.37192359550246       -2.37083073740437
C            3.87510466388967        0.06856303818906       -0.14942326199959
N            3.64464252388104        0.30831204030449        1.10606131615748
N            4.85981967213232        0.43886140162617        1.71174216150228
C            5.75289317613415        0.26959542695277        0.78615980933110
C            7.22441494192485        0.31366340410985        0.93351012330108
O            5.19517285945151        0.03203217694418       -0.41103680850457
N           -1.79692150070818       -0.77309114019868       -0.53565079058016
H           -6.61112859734693       -1.67035374896795       -1.12388347723270
H           -6.17561103156019       -2.91193278769958        0.07742753059512
H           -7.24054846287476       -1.55450809127708        0.54431610018412
H           -4.90818660717033        0.37446935704319        1.53504356642319
H           -0.10263519342311        0.71324482355662        2.95428784436121
H           -1.70975240580822        0.24470802862747        3.54179544398366
H           -0.91079384906627       -0.71802385894610        2.27646144397198
H            0.92295023123007        2.14898672434550       -0.43151446053215
H           -0.60825388659230        3.05131915542100       -0.45412390180510
H            0.25339279044918        2.79516969612046        1.07483332432516
H           -0.62576984832681       -1.97630620887667       -2.31557983986301
H            1.14532087119998       -2.02330737369466       -2.43052655576967
H            0.34025935960875       -2.37801983779601       -0.88775159571446
H           -0.70436731566243        0.46145345008456       -3.12999150822201
H            0.46352944952298        1.62271221229677       -2.48149150811674
H            1.02734073428294        0.23459951754228       -3.41929719090439
H            1.53844790171508        0.05576927793879        0.32345948126073
H            7.48273011692074        0.42957574356626        1.98300522877254
H            7.63135945308134        1.15060608381732        0.36604820143427
H            7.66568767712008       -0.60362879030740        0.54559722490675

          :  Hamiltonian                  GFN1-xTB          :
         :: total energy             -87.039819359821 Eh    ::
         :: gradient norm              0.000600961087 Eh/a0 ::
         :: HOMO-LUMO gap              1.143211455892 eV    ::
         :: SCC energy               -87.837577703510 Eh    ::
         :: -> Gsolv                  -0.119076155320 Eh    ::
         :: repulsion energy           0.827564291510 Eh    ::

    * Orbital Energies and Occupations

         #    Occupation            Energy/Eh            Energy/eV
      -------------------------------------------------------------
         1        2.0000           -0.8577979             -23.3419
       ...           ...                  ...                  ...
        59        2.0000           -0.4683306             -12.7439
        60        2.0000           -0.4629405             -12.5973
        61        2.0000           -0.4572734             -12.4430
        62        2.0000           -0.4527066             -12.3188
        63        2.0000           -0.4508390             -12.2680
        64        2.0000           -0.4441624             -12.0863
        65        2.0000           -0.4398906             -11.9700
        66        2.0000           -0.4325642             -11.7707
        67        2.0000           -0.4122348             -11.2175
        68        2.0000           -0.3926564             -10.6847
        69        2.0000           -0.3643685              -9.9150
        70        2.0000           -0.3581554              -9.7459
        71        2.0000           -0.3431903              -9.3387 (HOMO)
        72                         -0.3011781              -8.1955 (LUMO)
        73                         -0.2650588              -7.2126
        74                         -0.2517109              -6.8494
        75                         -0.2217114              -6.0331
        76                         -0.1896433              -5.1605
        77                         -0.1402208              -3.8156
        78                         -0.1379350              -3.7534
        79                         -0.1257944              -3.4230
        80                         -0.1148969              -3.1265
        81                         -0.1075060              -2.9254
        82                         -0.1017781              -2.7695
       ...                                ...                  ...
       144                          0.7331627              19.9504
      -------------------------------------------------------------
                  HL-Gap            0.0420122 Eh            1.1432 eV

Wiberg/Mayer (AO) data.
largest (>0.10) Wiberg bond orders for each atom

     #   Z sym  total        # sym  WBO       # sym  WBO       # sym  WBO
 ---------------------------------------------------------------------------
     1   6 C    3.884 --    29 H    0.987    27 H    0.981    28 H    0.981
                             2 O    0.907
     2   8 O    2.165 --     3 C    1.030     1 C    0.907     4 O    0.111
     3   6 C    3.837 --     4 O    1.619     5 C    1.077     2 O    1.030
     4   8 O    1.890 --     3 C    1.619     2 O    0.111
     5   6 C    3.944 --     6 C    1.564     3 C    1.077    26 N    1.067
     6   6 C    3.869 --     5 C    1.564     7 O    1.096     8 C    0.899
     7   8 O    2.082 --     6 C    1.096    30 H    0.819
     8   6 C    3.923 --    10 O    1.277     9 C    0.919     6 C    0.899
                            11 N    0.744
     9   6 C    3.989 --    33 H    0.991    32 H    0.986    31 H    0.985
                             8 C    0.919
    10   8 O    1.560 --     8 C    1.277
    11   7 N    3.340 --    13 C    1.256    12 C    0.958     8 C    0.744
                            26 N    0.174
    12   6 C    3.961 --    36 H    0.980    35 H    0.979    34 H    0.979
                            11 N    0.958
    13   6 C    3.952 --    26 N    1.567    11 N    1.256    14 C    0.959
    14   6 C    3.924 --    15 C    0.990    16 C    0.988    13 C    0.959
                            17 N    0.911
    15   6 C    3.993 --    14 C    0.990    39 H    0.986    38 H    0.985
                            37 H    0.983
    16   6 C    3.993 --    14 C    0.988    40 H    0.985    41 H    0.982
                            42 H    0.981
    17   7 N    3.375 --    18 C    1.278    14 C    0.911    43 H    0.898
                            19 O    0.183
    18   6 C    3.922 --    19 O    1.578    17 N    1.278    20 C    0.982
    19   8 O    1.897 --    18 C    1.578    17 N    0.183
    20   6 C    3.871 --    21 N    1.616    25 O    1.063    18 C    0.982
    21   7 N    3.015 --    20 C    1.616    22 N    1.194
    22   7 N    2.981 --    23 C    1.612    21 N    1.194
    23   6 C    3.873 --    22 N    1.612    25 O    1.081    24 C    1.030
    24   6 C    3.987 --    23 C    1.030    44 H    0.983    46 H    0.966
                            45 H    0.962
    25   8 O    2.326 --    23 C    1.081    20 C    1.063
    26   7 N    2.976 --    13 C    1.567     5 C    1.067    11 N    0.174
    27   1 H    1.012 --     1 C    0.981
    28   1 H    1.012 --     1 C    0.981
    29   1 H    1.013 --     1 C    0.987
    30   1 H    0.877 --     7 O    0.819
    31   1 H    1.015 --     9 C    0.985
    32   1 H    1.013 --     9 C    0.986
    33   1 H    1.010 --     9 C    0.991
    34   1 H    1.014 --    12 C    0.979
    35   1 H    1.016 --    12 C    0.979
    36   1 H    1.027 --    12 C    0.980
    37   1 H    1.022 --    15 C    0.983
    38   1 H    1.008 --    15 C    0.985
    39   1 H    1.013 --    15 C    0.986
    40   1 H    1.006 --    16 C    0.985
    41   1 H    1.006 --    16 C    0.982
    42   1 H    1.014 --    16 C    0.981
    43   1 H    0.966 --    17 N    0.898
    44   1 H    0.999 --    24 C    0.983
    45   1 H    0.997 --    24 C    0.962
    46   1 H    0.997 --    24 C    0.966
 ---------------------------------------------------------------------------

           -------------------------------------------------
          | TOTAL ENERGY              -87.039819359821 Eh   |
          | GRADIENT NORM               0.000600961087 Eh/α |
          | HOMO-LUMO GAP               1.143211455892 eV   |
           -------------------------------------------------

 * finished run on 2023/06/20 at 15:32:37.315
