   * xtb version 6.5.1 (579679a) compiled by 'ehlert@majestix' on 2022-07-11
          program call               : /lustre/hpc/kemi/ree/PhD/git/ReactivityQM/dep/xtb-6.5.1/bin/xtb --gfn 1 /lustre/hpc/kemi/ree/PhD/git/ReactivityQM/calculations/R03/reac02prodE09/conf18/R03_reac02prodE09_conf18_gfn1.xyz --opt --vfukui --chrg -1 --uhf 0 --alpb DMSO

   ID    Z sym.   atoms
    1    6 C      1, 3, 5, 7-10, 12, 14, 16, 17, 20, 22, 23, 25
    2    8 O      2, 4, 13, 15, 24, 26
    3    7 N      6, 11, 18, 19, 21
    4    1 H      27-46

      * Solvation model:               ALPB
        Solvent                        DMSO
        Solvent mass                       7.8130E+01 g/mol
          :  Hamiltonian                  GFN1-xTB          :
 * total energy  :   -87.0141680 Eh     change       -0.2060574E-11 Eh
 * total energy  :   -87.0238586 Eh     change       -0.9690594E-02 Eh
 * total energy  :   -87.0273125 Eh     change       -0.3453908E-02 Eh
 * total energy  :   -87.0282718 Eh     change       -0.9593131E-03 Eh
 * total energy  :   -87.0295742 Eh     change       -0.1302384E-02 Eh
 * total energy  :   -87.0307788 Eh     change       -0.1204605E-02 Eh
 * total energy  :   -87.0320811 Eh     change       -0.1302244E-02 Eh
 * total energy  :   -87.0331564 Eh     change       -0.1075347E-02 Eh
 * total energy  :   -87.0340837 Eh     change       -0.9272732E-03 Eh
 * total energy  :   -87.0347432 Eh     change       -0.6595443E-03 Eh
 * total energy  :   -87.0369657 Eh     change       -0.1457463E-04 Eh
 * total energy  :   -87.0369817 Eh     change       -0.1606351E-04 Eh
 * total energy  :   -87.0369964 Eh     change       -0.1465457E-04 Eh
 * total energy  :   -87.0370088 Eh     change       -0.1240112E-04 Eh
 * total energy  :   -87.0370222 Eh     change       -0.1334729E-04 Eh
 * total energy  :   -87.0370366 Eh     change       -0.1448459E-04 Eh
 * total energy  :   -87.0370462 Eh     change       -0.9578388E-05 Eh
 * total energy  :   -87.0370520 Eh     change       -0.5767780E-05 Eh
 * total energy  :   -87.0370546 Eh     change       -0.2570454E-05 Eh
   *** GEOMETRY OPTIMIZATION CONVERGED AFTER 40 ITERATIONS ***

 final structure:
================
46
 xtb: 6.5.1 (579679a)
C           -5.51635500231484       -0.86361980657509       -2.28710984459062
O           -4.43281967813194       -0.45572298113891       -1.45859132517076
C           -4.51653062975010        0.79686502625157       -0.95141448482620
O           -5.46516473251600        1.52458355231860       -1.19180878635848
C           -3.36316184548629        1.13719599255767       -0.10943468789832
N           -2.40295222047209        0.17119070240892        0.04632868212724
C           -1.35257015661671        0.35757072591757        0.77839058956378
C           -0.39715077893741       -0.83025186582802        0.89060359739358
C           -0.71673601804001       -1.56265470395265        2.20651461655655
C           -0.64944533472604       -1.78156072283959       -0.29426384969770
N            0.97906425072389       -0.33346640120776        0.86520527885001
C            2.05157147004282       -1.29804466266256        0.79673396709792
O            1.93112942100782       -2.45695175980888        1.28836416232209
C            3.17323426556275       -0.83430866911945        0.15382834606145
O            3.34031413675996        0.47507865445524       -0.33840867697842
C            4.62582424095293        0.52743033701845       -0.72761576599083
C            5.13562705334610        1.78624456678546       -1.33305822644693
N            5.31709290647914       -0.53157221721724       -0.54199192126571
N            4.46502260087384       -1.47384677392394        0.10278798351584
C            4.49214161221195       -2.75375127169402       -0.61657544117700
N           -1.14795075190713        1.53572770554949        1.46414353427186
C            0.00506735679923        1.80878466072887        2.32213936684796
C           -2.04140015210457        2.59674027307526        1.34068600418067
O           -1.85616982074602        3.67766585719261        1.91655459173504
C           -3.19571117987801        2.35569665263089        0.52132642163028
O           -4.07162116798511        3.38177329595151        0.41992293778858
H           -5.59198622998249       -0.21633515440652       -3.16584971121042
H           -6.45908218597024       -0.82322609041381       -1.73348845328595
H           -5.31097937659837       -1.88695762682157       -2.59670783843054
H           -0.48465066202908       -0.94023182078816        3.06901227893432
H           -0.13811602693748       -2.48231732837524        2.27595187466098
H           -1.77793517084161       -1.81044938242650        2.23009517591517
H           -1.68234473773667       -2.12654667133683       -0.28545234103993
H           -0.46062505530318       -1.26567684743818       -1.23505224560409
H            0.01105406540003       -2.64385016221655       -0.21935063406640
H            1.09199276581530        0.35578245072204        0.12870443879699
H            4.53341543860957        2.05168040134643       -2.20130335452836
H            6.17176479468599        1.65440167575996       -1.63526850636018
H            5.06983040705469        2.60252012395199       -0.61403903427344
H            5.51303933191291       -3.13213607484964       -0.60984078158849
H            3.83744660898959       -3.44423961260369       -0.08570128473618
H            4.14968177893704       -2.63545649666804       -1.64884965051498
H            0.80566773777224        2.25651074517815        1.73250314129113
H           -0.30628001016810        2.51234432889672        3.09472830233320
H            0.36568098158245        0.89556044547146        2.78442743549932
H           -3.72792430033984        4.12182793014306        0.95168311866744

          :  Hamiltonian                  GFN1-xTB          :
         :: total energy             -87.037054553947 Eh    ::
         :: gradient norm              0.000446909261 Eh/a0 ::
         :: HOMO-LUMO gap              0.094757814169 eV    ::
         :: SCC energy               -87.833177774669 Eh    ::
         :: -> Gsolv                  -0.106297414064 Eh    ::
         :: repulsion energy           0.824963268466 Eh    ::

    * Orbital Energies and Occupations

         #    Occupation            Energy/Eh            Energy/eV
      -------------------------------------------------------------
         1        2.0000           -0.8142501             -22.1569
       ...           ...                  ...                  ...
        59        2.0000           -0.4758465             -12.9484
        60        2.0000           -0.4681186             -12.7382
        61        2.0000           -0.4579792             -12.4622
        62        2.0000           -0.4468059             -12.1582
        63        2.0000           -0.4430580             -12.0562
        64        2.0000           -0.4345909             -11.8258
        65        2.0000           -0.4341708             -11.8144
        66        2.0000           -0.4197365             -11.4216
        67        2.0000           -0.4063843             -11.0583
        68        2.0000           -0.4026186             -10.9558
        69        2.0000           -0.4004691             -10.8973
        70        2.0000           -0.3827221             -10.4144
        71        1.7242           -0.3058694              -8.3231 (HOMO)
        72        0.2758           -0.3023872              -8.2284 (LUMO)
        73                         -0.2560038              -6.9662
        74                         -0.2249514              -6.1212
        75                         -0.2150370              -5.8515
        76                         -0.1495366              -4.0691
        77                         -0.1303485              -3.5470
        78                         -0.1285505              -3.4980
        79                         -0.1282808              -3.4907
        80                         -0.1191247              -3.2415
        81                         -0.1061498              -2.8885
        82                         -0.1012842              -2.7561
       ...                                ...                  ...
       144                          0.7298644              19.8606
      -------------------------------------------------------------
                  HL-Gap            0.0034823 Eh            0.0948 eV

Wiberg/Mayer (AO) data.
largest (>0.10) Wiberg bond orders for each atom

     #   Z sym  total        # sym  WBO       # sym  WBO       # sym  WBO
 ---------------------------------------------------------------------------
     1   6 C    3.888 --    29 H    0.987    28 H    0.980    27 H    0.980
                             2 O    0.916
     2   8 O    2.151 --     3 C    1.059     1 C    0.916     4 O    0.118
     3   6 C    3.786 --     4 O    1.602     2 O    1.059     5 C    1.057
     4   8 O    1.841 --     3 C    1.602     2 O    0.118
     5   6 C    3.883 --    25 C    1.404     6 N    1.176     3 C    1.057
     6   7 N    3.018 --     7 C    1.578     5 C    1.176
     7   6 C    3.905 --     6 N    1.578    21 N    1.152     8 C    0.974
     8   6 C    3.959 --    10 C    0.988     9 C    0.980     7 C    0.974
                            11 N    0.961
     9   6 C    3.991 --    32 H    0.988    30 H    0.980     8 C    0.980
                            31 H    0.975
    10   6 C    3.993 --     8 C    0.988    34 H    0.986    33 H    0.985
                            35 H    0.982
    11   7 N    3.090 --    12 C    0.976     8 C    0.961    36 H    0.932
    12   6 C    3.878 --    14 C    1.423    13 O    1.365    11 N    0.976
    13   8 O    1.684 --    12 C    1.365    14 C    0.126
    14   6 C    3.567 --    12 C    1.423    19 N    0.980    15 O    0.911
                            13 O    0.126
    15   8 O    2.180 --    16 C    1.068    14 C    0.911    18 N    0.114
    16   6 C    3.896 --    18 N    1.709    15 O    1.068    17 C    1.020
    17   6 C    3.993 --    16 C    1.020    38 H    0.986    37 H    0.971
                            39 H    0.970
    18   7 N    2.934 --    16 C    1.709    19 N    1.004    15 O    0.114
    19   7 N    3.076 --    18 N    1.004    14 C    0.980    20 C    0.951
    20   6 C    3.955 --    40 H    0.989    41 H    0.984    42 H    0.984
                            19 N    0.951
    21   7 N    3.439 --     7 C    1.152    23 C    1.101    22 C    0.935
                            24 O    0.119
    22   6 C    3.931 --    45 H    0.978    44 H    0.977    43 H    0.977
                            21 N    0.935
    23   6 C    3.872 --    24 O    1.498    25 C    1.138    21 N    1.101
    24   8 O    1.825 --    23 C    1.498    21 N    0.119
    25   6 C    3.820 --     5 C    1.404    23 C    1.138    26 O    1.069
    26   8 O    2.030 --    25 C    1.069    46 H    0.820
    27   1 H    1.010 --     1 C    0.980
    28   1 H    1.011 --     1 C    0.980
    29   1 H    1.014 --     1 C    0.987
    30   1 H    1.008 --     9 C    0.980
    31   1 H    1.026 --     9 C    0.975
    32   1 H    1.007 --     9 C    0.988
    33   1 H    1.019 --    10 C    0.985
    34   1 H    1.009 --    10 C    0.986
    35   1 H    1.016 --    10 C    0.982
    36   1 H    0.971 --    11 N    0.932
    37   1 H    1.001 --    17 C    0.971
    38   1 H    1.003 --    17 C    0.986
    39   1 H    1.002 --    17 C    0.970
    40   1 H    1.019 --    20 C    0.989
    41   1 H    1.030 --    20 C    0.984
    42   1 H    1.010 --    20 C    0.984
    43   1 H    1.008 --    22 C    0.977
    44   1 H    1.012 --    22 C    0.977
    45   1 H    1.026 --    22 C    0.978
    46   1 H    0.864 --    26 O    0.820
 ---------------------------------------------------------------------------

           -------------------------------------------------
          | TOTAL ENERGY              -87.037054553947 Eh   |
          | GRADIENT NORM               0.000446909261 Eh/α |
          | HOMO-LUMO GAP               0.094757814169 eV   |
           -------------------------------------------------

 * finished run on 2023/06/20 at 15:28:12.733
