   * xtb version 6.5.1 (579679a) compiled by 'ehlert@majestix' on 2022-07-11
          program call               : /lustre/hpc/kemi/ree/PhD/git/ReactivityQM/dep/xtb-6.5.1/bin/xtb --gfn 1 /lustre/hpc/kemi/ree/PhD/git/ReactivityQM/calculations/R02methylcation/reac01prodN09/conf11/R02methylcation_reac01prodN09_conf11_gfn1.xyz --opt --vfukui --chrg 0 --uhf 0 --alpb DMSO

   ID    Z sym.   atoms
    1    6 C      1, 3, 4, 6, 8-11, 13, 15, 18, 19, 22, 24
    2    8 O      2, 5, 14, 20, 23, 25
    3    7 N      7, 12, 16, 17, 21
    4    1 H      26-42

      * Solvation model:               ALPB
        Solvent                        DMSO
        Solvent mass                       7.8130E+01 g/mol
          :  Hamiltonian                  GFN1-xTB          :
 * total energy  :   -82.8609995 Eh     change       -0.2762789E-08 Eh
 * total energy  :   -82.8760858 Eh     change       -0.1508621E-01 Eh
 * total energy  :   -82.8939956 Eh     change       -0.1790985E-01 Eh
 * total energy  :   -82.9076030 Eh     change       -0.1360743E-01 Eh
 * total energy  :   -82.9304354 Eh     change       -0.2283241E-01 Eh
 * total energy  :   -82.9412185 Eh     change       -0.1078311E-01 Eh
 * total energy  :   -82.9462140 Eh     change       -0.4995471E-02 Eh
 * total energy  :   -82.9583218 Eh     change       -0.1210774E-01 Eh
 * total energy  :   -82.9618521 Eh     change       -0.3530323E-02 Eh
 * total energy  :   -82.9630569 Eh     change       -0.1204815E-02 Eh
 * total energy  :   -82.9708702 Eh     change       -0.3287047E-04 Eh
 * total energy  :   -82.9709000 Eh     change       -0.2983782E-04 Eh
 * total energy  :   -82.9709151 Eh     change       -0.1514853E-04 Eh
 * total energy  :   -82.9709377 Eh     change       -0.2256578E-04 Eh
 * total energy  :   -82.9709561 Eh     change       -0.1841868E-04 Eh
 * total energy  :   -82.9709699 Eh     change       -0.1375667E-04 Eh
 * total energy  :   -82.9709942 Eh     change       -0.2429855E-04 Eh
 * total energy  :   -82.9710006 Eh     change       -0.6456402E-05 Eh
 * total energy  :   -82.9710048 Eh     change       -0.4179334E-05 Eh
   *** GEOMETRY OPTIMIZATION CONVERGED AFTER 52 ITERATIONS ***

 final structure:
================
42
 xtb: 6.5.1 (579679a)
C           -4.25868323011321        1.77830757343547        0.40740975848531
O           -4.50162943486884        0.37217308807546        0.47367721215331
C           -4.25455231559869       -0.38732152618377       -0.62664133251910
C           -5.24214461902959       -1.52193643178084       -0.74576995277237
O           -3.79111467941287        0.22944501969024       -1.76337417597166
C           -2.79269793291665       -0.54496947031797       -1.11499449481970
N           -1.84026624390850        0.20094904795538       -0.39231237474644
C           -0.73650437183755       -0.33315440837061       -0.05388943003706
C            0.25235187919883        0.41204912236675        0.81754396409717
C           -0.03479102173947        1.91537033820593        0.80295104661951
C            0.14499078694713       -0.15952052969511        2.23950562201457
N            1.58782283823687        0.15666653625572        0.26807898680111
C            2.72437515965684        0.61466959582728        0.84614884133802
O            2.80055356366797        1.15682783320121        1.93198818968592
C            3.89615623683496        0.34981084509728       -0.02616483763651
N            3.86730440474866       -0.19621093389472       -1.20505358123705
N            5.15330495747308       -0.23446274278541       -1.65144497154225
C            5.88526587325661        0.29303360266834       -0.71648134729759
C            7.35157265289432        0.48920070200662       -0.71814014236921
O            5.14858083794012        0.68177617564014        0.33416803199265
N           -0.38003128504653       -1.62372809454586       -0.40398080901290
C           -1.08632721538841       -2.42065694044446       -1.26198083211996
O           -0.69224719197813       -3.51702479694557       -1.59183978395771
C           -2.38527140760113       -1.80284245593168       -1.77703521700237
O           -3.04133058831265       -2.36396306591389       -2.62768104316930
H           -4.64238565346008        2.19413981194740        1.33820788781287
H           -4.78379435949707        2.21613798550829       -0.44638066968433
H           -3.18851459960829        1.98419926698954        0.32176797330516
H           -5.06108734702517       -2.10778274692810       -1.64214313752322
H           -5.17740039426228       -2.15461930646783        0.13695686549418
H           -6.24149063660378       -1.09192311176957       -0.79534619750521
H           -1.03573353764827        2.09838457706405        1.18898241668067
H            0.02871499792642        2.29864369514715       -0.21398860502420
H            0.68769410172236        2.43469291430084        1.42975040067895
H            0.80010012569210        0.38648777400685        2.91487808809621
H           -0.88242571064686       -0.06414144891670        2.58704248878071
H            0.42614721049477       -1.21094438750685        2.24292080357659
H            1.65360492119974       -0.15120393453195       -0.69088226655971
H            7.58418998868956        1.54896468664036       -0.61361845899864
H            7.79882697249077       -0.03855410975922        0.12413597286959
H            7.77032923323855        0.11368439270127       -1.64845720581553
H            0.48853603419237       -2.00064914204646       -0.05504668314861

          :  Hamiltonian                  GFN1-xTB          :
         :: total energy             -82.971004821021 Eh    ::
         :: gradient norm              0.000547193647 Eh/a0 ::
         :: HOMO-LUMO gap              2.363160882883 eV    ::
         :: SCC energy               -83.736199249605 Eh    ::
         :: -> Gsolv                  -0.051830353022 Eh    ::
         :: repulsion energy           0.791284900366 Eh    ::

    * Orbital Energies and Occupations

         #    Occupation            Energy/Eh            Energy/eV
      -------------------------------------------------------------
         1        2.0000           -0.8651339             -23.5415
       ...           ...                  ...                  ...
        55        2.0000           -0.5107904             -13.8993
        56        2.0000           -0.5077036             -13.8153
        57        2.0000           -0.5073957             -13.8069
        58        2.0000           -0.5038945             -13.7117
        59        2.0000           -0.4845145             -13.1843
        60        2.0000           -0.4834880             -13.1564
        61        2.0000           -0.4733032             -12.8792
        62        2.0000           -0.4662337             -12.6869
        63        2.0000           -0.4633826             -12.6093
        64        2.0000           -0.4541509             -12.3581
        65        2.0000           -0.4511428             -12.2762
        66        2.0000           -0.4509394             -12.2707
        67        2.0000           -0.4377893             -11.9129 (HOMO)
        68                         -0.3509447              -9.5497 (LUMO)
        69                         -0.3138131              -8.5393
        70                         -0.2913035              -7.9268
        71                         -0.2581405              -7.0244
        72                         -0.2342917              -6.3754
        73                         -0.2016739              -5.4878
        74                         -0.1443074              -3.9268
        75                         -0.1424016              -3.8749
        76                         -0.1343631              -3.6562
        77                         -0.1300083              -3.5377
        78                         -0.1238755              -3.3708
       ...                                ...                  ...
       134                          0.7522426              20.4696
      -------------------------------------------------------------
                  HL-Gap            0.0868446 Eh            2.3632 eV

Wiberg/Mayer (AO) data.
largest (>0.10) Wiberg bond orders for each atom

     #   Z sym  total        # sym  WBO       # sym  WBO       # sym  WBO
 ---------------------------------------------------------------------------
     1   6 C    3.874 --    26 H    0.984    27 H    0.981    28 H    0.973
                             2 O    0.898
     2   8 O    2.098 --     3 C    1.028     1 C    0.898
     3   6 C    3.831 --     2 O    1.028     4 C    0.990     5 O    0.942
                             6 C    0.728
     4   6 C    3.982 --     3 C    0.990    30 H    0.979    29 H    0.977
                            31 H    0.969
     5   8 O    1.984 --     3 C    0.942     6 C    0.859
     6   6 C    3.847 --    24 C    1.037     7 N    1.037     5 O    0.859
                             3 C    0.728
     7   7 N    3.043 --     8 C    1.708     6 C    1.037
     8   6 C    3.927 --     7 N    1.708    21 N    1.088     9 C    0.979
     9   6 C    3.934 --    10 C    0.990     8 C    0.979    11 C    0.975
                            12 N    0.924
    10   6 C    3.989 --     9 C    0.990    33 H    0.985    34 H    0.981
                            32 H    0.981
    11   6 C    3.987 --    36 H    0.985    37 H    0.984    35 H    0.976
                             9 C    0.975
    12   7 N    3.325 --    13 C    1.233     9 C    0.924    38 H    0.894
                            14 O    0.172
    13   6 C    3.914 --    14 O    1.607    12 N    1.233    15 C    0.991
    14   8 O    1.922 --    13 C    1.607    12 N    0.172
    15   6 C    3.876 --    16 N    1.608    20 O    1.065    13 C    0.991
    16   7 N    3.019 --    15 C    1.608    17 N    1.202
    17   7 N    2.981 --    18 C    1.602    16 N    1.202
    18   6 C    3.870 --    17 N    1.602    20 O    1.084    19 C    1.032
    19   6 C    3.986 --    18 C    1.032    41 H    0.983    40 H    0.963
                            39 H    0.963
    20   8 O    2.332 --    18 C    1.084    15 C    1.065
    21   7 N    3.429 --    22 C    1.168     8 C    1.088    42 H    0.880
                            23 O    0.144
    22   6 C    3.891 --    23 O    1.668    21 N    1.168    24 C    0.921
    23   8 O    1.949 --    22 C    1.668    21 N    0.144
    24   6 C    3.888 --    25 O    1.735     6 C    1.037    22 C    0.921
    25   8 O    1.998 --    24 C    1.735
    26   1 H    1.011 --     1 C    0.984
    27   1 H    1.007 --     1 C    0.981
    28   1 H    1.031 --     1 C    0.973
    29   1 H    1.008 --     4 C    0.977
    30   1 H    0.999 --     4 C    0.979
    31   1 H    0.997 --     4 C    0.969
    32   1 H    1.009 --    10 C    0.981
    33   1 H    1.003 --    10 C    0.985
    34   1 H    1.005 --    10 C    0.981
    35   1 H    1.009 --    11 C    0.976
    36   1 H    1.001 --    11 C    0.985
    37   1 H    1.000 --    11 C    0.984
    38   1 H    0.951 --    12 N    0.894
    39   1 H    0.996 --    19 C    0.963
    40   1 H    0.996 --    19 C    0.963
    41   1 H    0.998 --    19 C    0.983
    42   1 H    0.926 --    21 N    0.880
 ---------------------------------------------------------------------------

           -------------------------------------------------
          | TOTAL ENERGY              -82.971004821021 Eh   |
          | GRADIENT NORM               0.000547193647 Eh/α |
          | HOMO-LUMO GAP               2.363160882883 eV   |
           -------------------------------------------------

 * finished run on 2023/06/21 at 17:40:56.660
