                         Program Version 5.0.1 -  RELEASE  -
|  1> # ORCA input file
|  2> ! SP r2SCAN-3c CPCM
|  3>
|  4> %maxcore 1875.0
|  5> %pal nprocs 4 end
|  6> %cpcm smd true SMDsolvent "DMSO" end
|  7>
|  8> *xyz 0 1
|  9> C      -3.690935    3.430367   -1.419332
| 10> O      -3.507245    2.121923   -0.862145
| 11> C      -2.339064    1.874749   -0.300254
| 12> O      -1.430049    2.661869   -0.229725
| 13> C      -2.242719    0.458091    0.235403
| 14> C      -3.459324   -0.320498    0.601190
| 15> O      -4.531260    0.176770    0.832733
| 16> C      -3.228740   -1.830042    0.709455
| 17> O      -4.138786   -2.633781    0.704972
| 18> N      -1.931723   -2.192493    0.793771
| 19> C      -0.785321   -1.308761    0.867294
| 20> C      -0.367616   -1.147993    2.337583
| 21> C       0.362610   -1.872400   -0.034821
| 22> C       0.936637   -3.180718    0.510821
| 23> C      -0.163289   -2.058477   -1.463196
| 24> N       1.397756   -0.839480   -0.027346
| 25> C       2.567572   -0.942546   -0.690252
| 26> O       2.956688   -1.924432   -1.300511
| 27> C       3.381139    0.296127   -0.587227
| 28> N       4.537837    0.532657   -1.122956
| 29> N       4.892174    1.795671   -0.753808
| 30> C       3.930017    2.252896   -0.014430
| 31> C       3.841302    3.578190    0.636050
| 32> O       2.941694    1.354516    0.129055
| 33> N      -1.060333    0.002972    0.376817
| 34> H      -2.979325    3.588806   -2.232010
| 35> H      -4.711526    3.466946   -1.793701
| 36> H      -3.536216    4.187402   -0.648122
| 37> H      -1.763644   -3.168578    0.985460
| 38> H      -0.208380   -2.126486    2.782897
| 39> H       0.546793   -0.563365    2.404218
| 40> H      -1.161925   -0.636725    2.878165
| 41> H       1.657258   -3.584784   -0.198765
| 42> H       1.441753   -3.013957    1.460064
| 43> H       0.144936   -3.913338    0.650719
| 44> H       0.643660   -2.401682   -2.108685
| 45> H      -0.960293   -2.799469   -1.470281
| 46> H      -0.550080   -1.114478   -1.844330
| 47> H       1.127776    0.068685    0.323533
| 48> H       2.977471    4.123532    0.256695
| 49> H       3.716245    3.456622    1.711385
| 50> H       4.746477    4.145690    0.434399
| 51> **                         ****END OF INPUT****

CARTESIAN COORDINATES (ANGSTROEM)
---------------------------------
  C     -3.690935    3.430367   -1.419332
  O     -3.507245    2.121923   -0.862145
  C     -2.339064    1.874749   -0.300254
  O     -1.430049    2.661869   -0.229725
  C     -2.242719    0.458091    0.235403
  C     -3.459324   -0.320498    0.601190
  O     -4.531260    0.176770    0.832733
  C     -3.228740   -1.830042    0.709455
  O     -4.138786   -2.633781    0.704972
  N     -1.931723   -2.192493    0.793771
  C     -0.785321   -1.308761    0.867294
  C     -0.367616   -1.147993    2.337583
  C      0.362610   -1.872400   -0.034821
  C      0.936637   -3.180718    0.510821
  C     -0.163289   -2.058477   -1.463196
  N      1.397756   -0.839480   -0.027346
  C      2.567572   -0.942546   -0.690252
  O      2.956688   -1.924432   -1.300511
  C      3.381139    0.296127   -0.587227
  N      4.537837    0.532657   -1.122956
  N      4.892174    1.795671   -0.753808
  C      3.930017    2.252896   -0.014430
  C      3.841302    3.578190    0.636050
  O      2.941694    1.354516    0.129055
  N     -1.060333    0.002972    0.376817
  H     -2.979325    3.588806   -2.232010
  H     -4.711526    3.466946   -1.793701
  H     -3.536216    4.187402   -0.648122
  H     -1.763644   -3.168578    0.985460
  H     -0.208380   -2.126486    2.782897
  H      0.546793   -0.563365    2.404218
  H     -1.161925   -0.636725    2.878165
  H      1.657258   -3.584784   -0.198765
  H      1.441753   -3.013957    1.460064
  H      0.144936   -3.913338    0.650719
  H      0.643660   -2.401682   -2.108685
  H     -0.960293   -2.799469   -1.470281
  H     -0.550080   -1.114478   -1.844330
  H      1.127776    0.068685    0.323533
  H      2.977471    4.123532    0.256695
  H      3.716245    3.456622    1.711385
  H      4.746477    4.145690    0.434399

 Total Charge           Charge          ....    0
 Multiplicity           Mult            ....    1
 Number of Electrons    NEL             ....  184
 Basis Dimension        Dim             ....  615

ORBITAL ENERGIES
----------------

  NO   OCC          E(Eh)            E(eV)
   0   2.0000     -19.065482      -518.7981
   1   2.0000     -19.014262      -517.4044
   2   2.0000     -18.977362      -516.4003
   3   2.0000     -18.950224      -515.6618
   4   2.0000     -18.934161      -515.2247
   5   2.0000     -18.932191      -515.1711
   6   2.0000     -14.206794      -386.5865
   7   2.0000     -14.205544      -386.5525
   8   2.0000     -14.204218      -386.5164
   9   2.0000     -14.198320      -386.3559
  10   2.0000     -14.196853      -386.3160
  11   2.0000     -10.174039      -276.8497
  12   2.0000     -10.155707      -276.3508
  13   2.0000     -10.150356      -276.2052
  14   2.0000     -10.148231      -276.1474
  15   2.0000     -10.146930      -276.1120
  16   2.0000     -10.142132      -275.9814
  17   2.0000     -10.139472      -275.9091
  18   2.0000     -10.120507      -275.3930
  19   2.0000     -10.104022      -274.9444
  20   2.0000     -10.081745      -274.3382
  21   2.0000     -10.045081      -273.3406
  22   2.0000     -10.036122      -273.0968
  23   2.0000     -10.021756      -272.7058
  24   2.0000     -10.019735      -272.6509
  25   2.0000      -1.154822       -31.4243
  26   2.0000      -1.091659       -29.7055
  27   2.0000      -1.050582       -28.5878
  28   2.0000      -1.021980       -27.8095
  29   2.0000      -1.018141       -27.7050
  30   2.0000      -0.999781       -27.2054
  31   2.0000      -0.975389       -26.5417
  32   2.0000      -0.969296       -26.3759
  33   2.0000      -0.911964       -24.8158
  34   2.0000      -0.891254       -24.2523
  35   2.0000      -0.831360       -22.6225
  36   2.0000      -0.789387       -21.4803
  37   2.0000      -0.744160       -20.2496
  38   2.0000      -0.715327       -19.4650
  39   2.0000      -0.712688       -19.3932
  40   2.0000      -0.682347       -18.5676
  41   2.0000      -0.670510       -18.2455
  42   2.0000      -0.662939       -18.0395
  43   2.0000      -0.643668       -17.5151
  44   2.0000      -0.617022       -16.7900
  45   2.0000      -0.604938       -16.4612
  46   2.0000      -0.593456       -16.1488
  47   2.0000      -0.554870       -15.0988
  48   2.0000      -0.544499       -14.8166
  49   2.0000      -0.535097       -14.5607
  50   2.0000      -0.527926       -14.3656
  51   2.0000      -0.508721       -13.8430
  52   2.0000      -0.494306       -13.4507
  53   2.0000      -0.493443       -13.4273
  54   2.0000      -0.472656       -12.8616
  55   2.0000      -0.463285       -12.6066
  56   2.0000      -0.452858       -12.3229
  57   2.0000      -0.448650       -12.2084
  58   2.0000      -0.441411       -12.0114
  59   2.0000      -0.435436       -11.8488
  60   2.0000      -0.429518       -11.6878
  61   2.0000      -0.420721       -11.4484
  62   2.0000      -0.412991       -11.2381
  63   2.0000      -0.410721       -11.1763
  64   2.0000      -0.404784       -11.0147
  65   2.0000      -0.400311       -10.8930
  66   2.0000      -0.397410       -10.8141
  67   2.0000      -0.391272       -10.6471
  68   2.0000      -0.384237       -10.4556
  69   2.0000      -0.381119       -10.3708
  70   2.0000      -0.376671       -10.2497
  71   2.0000      -0.371615       -10.1121
  72   2.0000      -0.365697        -9.9511
  73   2.0000      -0.361155        -9.8275
  74   2.0000      -0.351267        -9.5585
  75   2.0000      -0.348030        -9.4704
  76   2.0000      -0.344059        -9.3623
  77   2.0000      -0.336291        -9.1509
  78   2.0000      -0.330370        -8.9898
  79   2.0000      -0.322617        -8.7789
  80   2.0000      -0.314270        -8.5517
  81   2.0000      -0.310870        -8.4592
  82   2.0000      -0.303255        -8.2520
  83   2.0000      -0.285393        -7.7659
  84   2.0000      -0.267184        -7.2704
  85   2.0000      -0.264512        -7.1977
  86   2.0000      -0.261963        -7.1284
  87   2.0000      -0.259915        -7.0726
  88   2.0000      -0.251425        -6.8416
  89   2.0000      -0.245193        -6.6721
  90   2.0000      -0.239848        -6.5266
  91   2.0000      -0.223529        -6.0825
  92   0.0000      -0.140749        -3.8300
  93   0.0000      -0.085110        -2.3160
  94   0.0000      -0.080680        -2.1954
  95   0.0000      -0.019799        -0.5388
  96   0.0000       0.003327         0.0905

MULLIKEN ATOMIC CHARGES
-----------------------
   0 C :   -0.312532
   1 O :   -0.144892
   2 C :    0.185425
   3 O :   -0.397548
   4 C :    0.341984
   5 C :    0.176909
   6 O :   -0.291247
   7 C :    0.082703
   8 O :   -0.390453
   9 N :    0.042247
  10 C :   -0.160839
  11 C :   -0.510096
  12 C :    0.124900
  13 C :   -0.608598
  14 C :   -0.673022
  15 N :   -0.037122
  16 C :   -0.106925
  17 O :   -0.440903
  18 C :    0.422270
  19 N :   -0.181865
  20 N :   -0.279491
  21 C :    0.398738
  22 C :   -0.636927
  23 O :   -0.057942
  24 N :   -0.083297
  25 H :    0.180546
  26 H :    0.181496
  27 H :    0.181247
  28 H :    0.302752
  29 H :    0.201479
  30 H :    0.197251
  31 H :    0.193498
  32 H :    0.207648
  33 H :    0.193385
  34 H :    0.182724
  35 H :    0.201381
  36 H :    0.198034
  37 H :    0.193544
  38 H :    0.316348
  39 H :    0.201802
  40 H :    0.200385
  41 H :    0.205004
Sum of atomic charges:    0.0000000

LOEWDIN ATOMIC CHARGES
----------------------
   0 C :   -0.031715
   1 O :   -0.558765
   2 C :    0.397898
   3 O :   -0.388740
   4 C :    0.269846
   5 C :    0.329797
   6 O :   -0.364714
   7 C :    0.358221
   8 O :   -0.431690
   9 N :   -0.525149
  10 C :    0.246284
  11 C :   -0.286912
  12 C :    0.112161
  13 C :   -0.348694
  14 C :   -0.340847
  15 N :   -0.587934
  16 C :    0.381082
  17 O :   -0.462734
  18 C :    0.415779
  19 N :   -0.336978
  20 N :   -0.361994
  21 C :    0.378416
  22 C :   -0.317625
  23 O :   -0.393136
  24 N :   -0.514340
  25 H :    0.185312
  26 H :    0.188952
  27 H :    0.186346
  28 H :    0.300312
  29 H :    0.183447
  30 H :    0.181574
  31 H :    0.182322
  32 H :    0.187860
  33 H :    0.177013
  34 H :    0.170970
  35 H :    0.179785
  36 H :    0.177210
  37 H :    0.179208
  38 H :    0.307750
  39 H :    0.191921
  40 H :    0.191409
  41 H :    0.191093

  Mayer bond orders larger than 0.100000
B(  0-C ,  1-O ) :   0.8295 B(  0-C , 25-H ) :   0.9520 B(  0-C , 26-H ) :   0.9612
B(  0-C , 27-H ) :   0.9516 B(  1-O ,  2-C ) :   1.1488 B(  2-C ,  3-O ) :   1.9162
B(  2-C ,  4-C ) :   0.9573 B(  4-C ,  5-C ) :   0.8467 B(  4-C , 24-N ) :   1.5660
B(  5-C ,  6-O ) :   1.9777 B(  5-C ,  7-C ) :   0.8631 B(  7-C ,  8-O ) :   2.0263
B(  7-C ,  9-N ) :   1.1456 B(  9-N , 10-C ) :   0.8063 B(  9-N , 28-H ) :   0.8875
B( 10-C , 11-C ) :   1.0278 B( 10-C , 12-C ) :   0.8165 B( 10-C , 24-N ) :   0.8508
B( 11-C , 29-H ) :   0.9437 B( 11-C , 30-H ) :   0.9430 B( 11-C , 31-H ) :   0.9465
B( 12-C , 13-C ) :   0.9216 B( 12-C , 14-C ) :   0.8709 B( 12-C , 15-N ) :   0.9018
B( 13-C , 32-H ) :   0.9562 B( 13-C , 33-H ) :   0.9638 B( 13-C , 34-H ) :   0.9587
B( 14-C , 35-H ) :   0.9682 B( 14-C , 36-H ) :   0.9574 B( 14-C , 37-H ) :   0.9695
B( 15-N , 16-C ) :   1.1585 B( 15-N , 38-H ) :   0.8529 B( 16-C , 17-O ) :   1.9257
B( 16-C , 18-C ) :   0.8288 B( 17-O , 18-C ) :  -0.1092 B( 18-C , 19-N ) :   1.7105
B( 18-C , 21-C ) :   0.1047 B( 18-C , 23-O ) :   1.0759 B( 19-N , 20-N ) :   1.2765
B( 20-N , 21-C ) :   1.6339 B( 21-C , 22-C ) :   0.8308 B( 21-C , 23-O ) :   1.0671
B( 22-C , 39-H ) :   0.9400 B( 22-C , 40-H ) :   0.9438 B( 22-C , 41-H ) :   0.9894

Dispersion correction           -0.019568140
FINAL SINGLE POINT ENERGY     -1268.631677658952

DIPOLE MOMENT
-------------
                                X             Y             Z
Electronic contribution:     -3.19939       1.97576      -1.46044
Nuclear contribution   :      2.24990      -0.64535       3.42747
                        -----------------------------------------
Total Dipole Moment    :     -0.94949       1.33041       1.96702
                        -----------------------------------------
Magnitude (a.u.)       :      2.55748
Magnitude (Debye)      :      6.50061

Rotational constants in cm-1:     0.010476     0.004947     0.003743
Rotational constants in MHz :   314.074109   148.294008   112.215059

                             ****ORCA TERMINATED NORMALLY****
TOTAL RUN TIME: 0 days 0 hours 2 minutes 13 seconds 549 msec
