   * xtb version 6.5.1 (579679a) compiled by 'ehlert@majestix' on 2022-07-11
          program call               : /lustre/hpc/kemi/ree/PhD/git/ReactivityQM/dep/xtb-6.5.1/bin/xtb --gfn 1 /lustre/hpc/kemi/ree/PhD/git/ReactivityQM/calculations/R02methylcation/reac01prodN10/conf14/R02methylcation_reac01prodN10_conf14_gfn1.xyz --opt --vfukui --chrg 0 --uhf 0 --alpb DMSO

   ID    Z sym.   atoms
    1    6 C      1, 3, 5, 6, 8, 11-15, 17, 19, 22, 23
    2    8 O      2, 4, 7, 9, 18, 24
    3    7 N      10, 16, 20, 21, 25
    4    1 H      26-42

      * Solvation model:               ALPB
        Solvent                        DMSO
        Solvent mass                       7.8130E+01 g/mol
          :  Hamiltonian                  GFN1-xTB          :
 * total energy  :   -82.9662735 Eh     change       -0.1581668E-10 Eh
 * total energy  :   -82.9771525 Eh     change       -0.1087901E-01 Eh
 * total energy  :   -82.9816447 Eh     change       -0.4492172E-02 Eh
 * total energy  :   -82.9824749 Eh     change       -0.8301799E-03 Eh
 * total energy  :   -82.9831762 Eh     change       -0.7013348E-03 Eh
 * total energy  :   -82.9837188 Eh     change       -0.5426439E-03 Eh
 * total energy  :   -82.9842145 Eh     change       -0.4956563E-03 Eh
 * total energy  :   -82.9845544 Eh     change       -0.3398962E-03 Eh
 * total energy  :   -82.9847586 Eh     change       -0.2042444E-03 Eh
 * total energy  :   -82.9848933 Eh     change       -0.1346725E-03 Eh
 * total energy  :   -82.9855514 Eh     change       -0.7669934E-05 Eh
 * total energy  :   -82.9855600 Eh     change       -0.8582403E-05 Eh
 * total energy  :   -82.9855671 Eh     change       -0.7125036E-05 Eh
 * total energy  :   -82.9855734 Eh     change       -0.6225120E-05 Eh
 * total energy  :   -82.9855767 Eh     change       -0.3292591E-05 Eh
 * total energy  :   -82.9855814 Eh     change       -0.4750778E-05 Eh
 * total energy  :   -82.9855880 Eh     change       -0.6631923E-05 Eh
 * total energy  :   -82.9855936 Eh     change       -0.5553591E-05 Eh
 * total energy  :   -82.9855960 Eh     change       -0.2363572E-05 Eh
   *** GEOMETRY OPTIMIZATION CONVERGED AFTER 39 ITERATIONS ***

 final structure:
================
42
 xtb: 6.5.1 (579679a)
C           -3.69093479349487        3.43036697054554       -1.41933195109352
O           -3.50724537474667        2.12192262431503       -0.86214549806437
C           -2.33906419828506        1.87474858952063       -0.30025382498486
O           -1.43004908664436        2.66186885460864       -0.22972519588297
C           -2.24271891051808        0.45809087100731        0.23540254829695
C           -3.45932351843507       -0.32049821082541        0.60118970554307
O           -4.53125951775794        0.17676987590792        0.83273342104930
C           -3.22873973626604       -1.83004244468338        0.70945514928135
O           -4.13878637018136       -2.63378123270644        0.70497189546876
N           -1.93172329068506       -2.19249346840979        0.79377110128782
C           -0.78532088794899       -1.30876082097237        0.86729403550325
C           -0.36761644506011       -1.14799326800976        2.33758346869453
C            0.36261020500763       -1.87239988198131       -0.03482126532495
C            0.93663680510167       -3.18071787138987        0.51082061277458
C           -0.16328921123064       -2.05847731194184       -1.46319630475496
N            1.39775563573114       -0.83947981088653       -0.02734588757757
C            2.56757231704733       -0.94254589485837       -0.69025228928098
O            2.95668836031919       -1.92443169207908       -1.30051119417170
C            3.38113943839350        0.29612653951127       -0.58722727144087
N            4.53783725248980        0.53265725484876       -1.12295606636664
N            4.89217360545581        1.79567066052106       -0.75380829747959
C            3.93001667487666        2.25289593401885       -0.01443025745995
C            3.84130218986338        3.57819000878607        0.63605013705647
O            2.94169397814520        1.35451558159476        0.12905515518207
N           -1.06033332033613        0.00297216325076        0.37681664008179
H           -2.97932473256900        3.58880575706559       -2.23201014495461
H           -4.71152628776265        3.46694592657730       -1.79370053139742
H           -3.53621556808130        4.18740211996654       -0.64812248617318
H           -1.76364429410553       -3.16857815101382        0.98545951702389
H           -0.20838006709708       -2.12648576231288        2.78289709288357
H            0.54679344104459       -0.56336496581212        2.40421833370281
H           -1.16192460008121       -0.63672483110069        2.87816470726461
H            1.65725829249276       -3.58478397475216       -0.19876516165823
H            1.44175295431585       -3.01395659204485        1.46006369235308
H            0.14493558443568       -3.91333793785439        0.65071883827289
H            0.64365972138235       -2.40168156599444       -2.10868482747013
H           -0.96029276976457       -2.79946861115008       -1.47028078689789
H           -0.55008018351428       -1.11447765403175       -1.84432954219880
H            1.12777564966271        0.06868501398206        0.32353289851063
H            2.97747105526042        4.12353238059214        0.25669484225678
H            3.71624450290503        3.45662231896324        1.71138480720566
H            4.74647650063221        4.14568950922316        0.43439918494031

          :  Hamiltonian                  GFN1-xTB          :
         :: total energy             -82.985595954952 Eh    ::
         :: gradient norm              0.000754644924 Eh/a0 ::
         :: HOMO-LUMO gap              1.746668436120 eV    ::
         :: SCC energy               -83.767208703454 Eh    ::
         :: -> Gsolv                  -0.056777380814 Eh    ::
         :: repulsion energy           0.809070161500 Eh    ::

    * Orbital Energies and Occupations

         #    Occupation            Energy/Eh            Energy/eV
      -------------------------------------------------------------
         1        2.0000           -0.8660525             -23.5665
       ...           ...                  ...                  ...
        55        2.0000           -0.5059174             -13.7667
        56        2.0000           -0.5058094             -13.7638
        57        2.0000           -0.5046006             -13.7309
        58        2.0000           -0.5009787             -13.6323
        59        2.0000           -0.4954106             -13.4808
        60        2.0000           -0.4813211             -13.0974
        61        2.0000           -0.4808306             -13.0841
        62        2.0000           -0.4700079             -12.7896
        63        2.0000           -0.4641251             -12.6295
        64        2.0000           -0.4600898             -12.5197
        65        2.0000           -0.4524961             -12.3130
        66        2.0000           -0.4483779             -12.2010
        67        2.0000           -0.4382894             -11.9265 (HOMO)
        68                         -0.3741005             -10.1798 (LUMO)
        69                         -0.3190426              -8.6816
        70                         -0.3114697              -8.4755
        71                         -0.2574456              -7.0055
        72                         -0.2505922              -6.8190
        73                         -0.2017881              -5.4909
        74                         -0.1994367              -5.4269
        75                         -0.1429740              -3.8905
        76                         -0.1425731              -3.8796
        77                         -0.1415621              -3.8521
        78                         -0.1372719              -3.7354
       ...                                ...                  ...
       134                          0.7686514              20.9161
      -------------------------------------------------------------
                  HL-Gap            0.0641889 Eh            1.7467 eV

Wiberg/Mayer (AO) data.
largest (>0.10) Wiberg bond orders for each atom

     #   Z sym  total        # sym  WBO       # sym  WBO       # sym  WBO
 ---------------------------------------------------------------------------
     1   6 C    3.859 --    27 H    0.985    28 H    0.979    26 H    0.979
                             2 O    0.884
     2   8 O    2.226 --     3 C    1.148     1 C    0.884     4 O    0.147
     3   6 C    3.854 --     4 O    1.685     2 O    1.148     5 C    0.944
     4   8 O    1.949 --     3 C    1.685     2 O    0.147
     5   6 C    3.952 --    25 N    1.785     6 C    0.996     3 C    0.944
     6   6 C    3.857 --     7 O    1.802     5 C    0.996     8 C    0.908
     7   8 O    2.009 --     6 C    1.802
     8   6 C    3.903 --     9 O    1.634    10 N    1.247     6 C    0.908
     9   8 O    1.927 --     8 C    1.634    10 N    0.185
    10   7 N    3.365 --     8 C    1.247    11 C    0.940    29 H    0.883
                             9 O    0.185
    11   6 C    3.913 --    25 N    1.005    12 C    0.947    10 N    0.940
                            13 C    0.924
    12   6 C    3.982 --    32 H    0.982    31 H    0.981    30 H    0.980
                            11 C    0.947
    13   6 C    3.928 --    14 C    0.999    15 C    0.991    16 N    0.934
                            11 C    0.924
    14   6 C    3.988 --    13 C    0.999    34 H    0.982    35 H    0.981
                            33 H    0.974
    15   6 C    3.989 --    13 C    0.991    37 H    0.984    38 H    0.984
                            36 H    0.980
    16   7 N    3.350 --    17 C    1.256    13 C    0.934    39 H    0.886
                            18 O    0.176
    17   6 C    3.917 --    18 O    1.586    16 N    1.256    19 C    0.991
    18   8 O    1.903 --    17 C    1.586    16 N    0.176
    19   6 C    3.872 --    20 N    1.623    24 O    1.047    17 C    0.991
    20   7 N    2.999 --    19 C    1.623    21 N    1.198
    21   7 N    2.981 --    22 C    1.611    20 N    1.198
    22   6 C    3.869 --    21 N    1.611    24 O    1.073    23 C    1.032
    23   6 C    3.986 --    22 C    1.032    42 H    0.982    41 H    0.964
                            40 H    0.962
    24   8 O    2.317 --    22 C    1.073    19 C    1.047
    25   7 N    3.062 --     5 C    1.785    11 C    1.005
    26   1 H    1.004 --     1 C    0.979
    27   1 H    1.008 --     1 C    0.985
    28   1 H    1.004 --     1 C    0.979
    29   1 H    0.929 --    10 N    0.883
    30   1 H    0.999 --    12 C    0.980
    31   1 H    0.998 --    12 C    0.981
    32   1 H    0.999 --    12 C    0.982
    33   1 H    1.008 --    14 C    0.974
    34   1 H    1.001 --    14 C    0.982
    35   1 H    0.998 --    14 C    0.981
    36   1 H    1.006 --    15 C    0.980
    37   1 H    1.003 --    15 C    0.984
    38   1 H    1.004 --    15 C    0.984
    39   1 H    0.956 --    16 N    0.886
    40   1 H    0.997 --    23 C    0.962
    41   1 H    0.997 --    23 C    0.964
    42   1 H    0.998 --    23 C    0.982
 ---------------------------------------------------------------------------

           -------------------------------------------------
          | TOTAL ENERGY              -82.985595954952 Eh   |
          | GRADIENT NORM               0.000754644924 Eh/α |
          | HOMO-LUMO GAP               1.746668436120 eV   |
           -------------------------------------------------

 * finished run on 2023/06/21 at 17:41:57.887
