   * xtb version 6.5.1 (579679a) compiled by 'ehlert@majestix' on 2022-07-11
          program call               : /lustre/hpc/kemi/ree/PhD/git/ReactivityQM/dep/xtb-6.5.1/bin/xtb --gfn 1 /lustre/hpc/kemi/ree/PhD/git/ReactivityQM/calculations/R01/reac02prodE08/conf12/R01_reac02prodE08_conf12_gfn1.xyz --opt --vfukui --chrg -1 --uhf 0 --alpb DMSO

   ID    Z sym.   atoms
    1    6 C      1, 3, 5, 7-10, 13, 15, 16
    2    8 O      2, 4, 14, 17
    3    7 N      6, 11, 12
    4    1 H      18-33

      * Solvation model:               ALPB
        Solvent                        DMSO
        Solvent mass                       7.8130E+01 g/mol
          :  Hamiltonian                  GFN1-xTB          :
 * total energy  :   -58.5591947 Eh     change       -0.4860112E-11 Eh
 * total energy  :   -58.5687420 Eh     change       -0.9547314E-02 Eh
 * total energy  :   -58.5714217 Eh     change       -0.2679721E-02 Eh
 * total energy  :   -58.5716653 Eh     change       -0.2435270E-03 Eh
 * total energy  :   -58.5718381 Eh     change       -0.1728648E-03 Eh
 * total energy  :   -58.5718937 Eh     change       -0.5562571E-04 Eh
 * total energy  :   -58.5719555 Eh     change       -0.6179528E-04 Eh
 * total energy  :   -58.5720025 Eh     change       -0.4693415E-04 Eh
 * total energy  :   -58.5720351 Eh     change       -0.3258937E-04 Eh
 * total energy  :   -58.5720621 Eh     change       -0.2700229E-04 Eh
 * total energy  :   -58.5723082 Eh     change       -0.4606800E-04 Eh
 * total energy  :   -58.5723635 Eh     change       -0.5536995E-04 Eh
 * total energy  :   -58.5724038 Eh     change       -0.4027778E-04 Eh
 * total energy  :   -58.5724276 Eh     change       -0.2376036E-04 Eh
 * total energy  :   -58.5724357 Eh     change       -0.8133423E-05 Eh
 * total energy  :   -58.5724481 Eh     change       -0.1241999E-04 Eh
 * total energy  :   -58.5724543 Eh     change       -0.6147861E-05 Eh
 * total energy  :   -58.5724602 Eh     change       -0.5886434E-05 Eh
 * total energy  :   -58.5724624 Eh     change       -0.2199687E-05 Eh
   *** GEOMETRY OPTIMIZATION CONVERGED AFTER 23 ITERATIONS ***

 final structure:
================
33
 xtb: 6.5.1 (579679a)
C            3.23977720506156        2.71010170937451       -1.26020505277532
O            2.11072618697168        1.94692886986099       -0.87864689425189
C            2.34531666355337        0.58039858966667       -0.73496370336734
O            3.49742481997629        0.13817329310344       -0.94706405381066
C            1.23011712836163       -0.17437169630815       -0.36528597099042
N            0.02511987668204        0.43902083518395       -0.14133709879144
C           -1.02417516334519       -0.22855018211116        0.15893739113740
C           -2.34632360030806        0.44921571444013        0.44716842408501
C           -2.13719414356822        1.96605167194433        0.48537349119757
C           -3.38477485190241        0.08621223381637       -0.63245878446530
N           -2.82253160066576        0.02073363942497        1.76890348727357
N           -1.01255770920895       -1.64269135720652        0.20123764283642
C            0.06967761276812       -2.40141212418698       -0.08935415561014
O           -0.03894543230398       -3.61468041629851       -0.24711895957394
C            1.41819180887587       -1.66503706415369       -0.11555674206020
C            2.08210300464702       -1.91157118076949        1.26430359515201
O            2.21887485579404       -2.26711759441400       -1.12499013753108
H            2.92303657598662        3.75297844482263       -1.31107433816787
H            3.61754643941855        2.39761215329523       -2.24143364593568
H            4.05109551022125        2.61291166671100       -0.52860062226084
H           -1.44383687852817        2.22373113346471        1.28682479631438
H           -3.08507950439623        2.47235808634959        0.66212881740131
H           -1.72128224754842        2.31152080648327       -0.46141864506623
H           -3.55662780877959       -0.98902600962079       -0.64747483880976
H           -4.33107186686773        0.58137415420385       -0.42023371054158
H           -3.03355305724799        0.40086967728399       -1.61548429479679
H           -3.01193205358508       -0.97346225340047        1.75294820583792
H           -3.70213623497568        0.48061946317739        1.95926162755275
H           -1.89312057541042       -2.12489445369888        0.26382927388881
H            1.46033664495402       -1.49546147255686        2.05575122815325
H            3.05801435837923       -1.42831775503946        1.28413127753464
H            2.20988210814085       -2.98131444461575        1.42848927739620
H            2.98790392884974       -1.67290313822549       -1.25658688695529

          :  Hamiltonian                  GFN1-xTB          :
         :: total energy             -58.572462361278 Eh    ::
         :: gradient norm              0.000491940377 Eh/a0 ::
         :: HOMO-LUMO gap              2.317185970427 eV    ::
         :: SCC energy               -59.113831828332 Eh    ::
         :: -> Gsolv                  -0.108198825738 Eh    ::
         :: repulsion energy           0.560337185141 Eh    ::

    * Orbital Energies and Occupations

         #    Occupation            Energy/Eh            Energy/eV
      -------------------------------------------------------------
         1        2.0000           -0.7816560             -21.2699
       ...           ...                  ...                  ...
        36        2.0000           -0.4805071             -13.0753
        37        2.0000           -0.4722540             -12.8507
        38        2.0000           -0.4705286             -12.8037
        39        2.0000           -0.4658637             -12.6768
        40        2.0000           -0.4609328             -12.5426
        41        2.0000           -0.4433064             -12.0630
        42        2.0000           -0.4375633             -11.9067
        43        2.0000           -0.4237753             -11.5315
        44        2.0000           -0.4202540             -11.4357
        45        2.0000           -0.4027963             -10.9606
        46        2.0000           -0.3948597             -10.7447
        47        2.0000           -0.3821317             -10.3983
        48        2.0000           -0.3265468              -8.8858 (HOMO)
        49                         -0.2413917              -6.5686 (LUMO)
        50                         -0.1969867              -5.3603
        51                         -0.1395285              -3.7968
        52                         -0.1155042              -3.1430
        53                         -0.1128402              -3.0705
        54                         -0.1088574              -2.9622
        55                         -0.0971694              -2.6441
        56                         -0.0915210              -2.4904
        57                         -0.0817462              -2.2244
        58                         -0.0517634              -1.4086
        59                         -0.0511833              -1.3928
       ...                                ...                  ...
       100                          0.6792363              18.4830
      -------------------------------------------------------------
                  HL-Gap            0.0851550 Eh            2.3172 eV

Wiberg/Mayer (AO) data.
largest (>0.10) Wiberg bond orders for each atom

     #   Z sym  total        # sym  WBO       # sym  WBO       # sym  WBO
 ---------------------------------------------------------------------------
     1   6 C    3.913 --    18 H    0.987    19 H    0.981    20 H    0.981
                             2 O    0.943
     2   8 O    2.084 --     3 C    0.961     1 C    0.943
     3   6 C    3.868 --     4 O    1.424     5 C    1.346     2 O    0.961
     4   8 O    1.804 --     3 C    1.424     5 C    0.114
     5   6 C    3.858 --     3 C    1.346     6 N    1.184    15 C    0.964
                             4 O    0.114
     6   7 N    3.052 --     7 C    1.642     5 C    1.184
     7   6 C    3.909 --     6 N    1.642    12 N    0.992     8 C    0.982
     8   6 C    3.967 --     9 C    1.001     7 C    0.982    10 C    0.980
                            11 N    0.974
     9   6 C    3.997 --     8 C    1.001    22 H    0.987    21 H    0.986
                            23 H    0.986
    10   6 C    3.992 --    26 H    0.985    25 H    0.985    24 H    0.983
                             8 C    0.980
    11   7 N    2.945 --     8 C    0.974    28 H    0.949    27 H    0.949
    12   7 N    3.386 --    13 C    1.228     7 C    0.992    29 H    0.904
                            14 O    0.141
    13   6 C    3.884 --    14 O    1.583    12 N    1.228    15 C    0.939
    14   8 O    1.858 --    13 C    1.583    12 N    0.141
    15   6 C    3.917 --     5 C    0.964    16 C    0.958    17 O    0.951
                            13 C    0.939
    16   6 C    3.996 --    30 H    0.988    32 H    0.987    31 H    0.984
                            15 C    0.958
    17   8 O    1.880 --    15 C    0.951    33 H    0.830
    18   1 H    1.019 --     1 C    0.987
    19   1 H    1.018 --     1 C    0.981
    20   1 H    1.019 --     1 C    0.981
    21   1 H    1.016 --     9 C    0.986
    22   1 H    1.004 --     9 C    0.987
    23   1 H    1.017 --     9 C    0.986
    24   1 H    1.005 --    10 C    0.983
    25   1 H    1.004 --    10 C    0.985
    26   1 H    1.006 --    10 C    0.985
    27   1 H    0.966 --    11 N    0.949
    28   1 H    0.964 --    11 N    0.949
    29   1 H    0.953 --    12 N    0.904
    30   1 H    1.010 --    16 C    0.988
    31   1 H    1.014 --    16 C    0.984
    32   1 H    1.010 --    16 C    0.987
    33   1 H    0.902 --    17 O    0.830
 ---------------------------------------------------------------------------

           -------------------------------------------------
          | TOTAL ENERGY              -58.572462361278 Eh   |
          | GRADIENT NORM               0.000491940377 Eh/α |
          | HOMO-LUMO GAP               2.317185970427 eV   |
           -------------------------------------------------

 * finished run on 2023/06/20 at 15:02:09.002
