   * xtb version 6.5.1 (579679a) compiled by 'ehlert@majestix' on 2022-07-11
          program call               : /lustre/hpc/kemi/ree/PhD/git/ReactivityQM/dep/xtb-6.5.1/bin/xtb --gfn 1 /lustre/hpc/kemi/ree/PhD/git/ReactivityQM/calculations/R02oxygendeprot/reac01prodN10/conf20/R02oxygendeprot_reac01prodN10_conf20_gfn1.xyz --opt --vfukui --chrg 0 --uhf 0 --alpb DMSO

   ID    Z sym.   atoms
    1    6 C      1, 3, 5, 6, 8, 11-15, 17, 19, 22, 23
    2    8 O      2, 4, 7, 9, 18, 24
    3    7 N      10, 16, 20, 21, 25
    4    1 H      26-42

      * Solvation model:               ALPB
        Solvent                        DMSO
        Solvent mass                       7.8130E+01 g/mol
          :  Hamiltonian                  GFN1-xTB          :
 * total energy  :   -82.9630095 Eh     change       -0.1431033E-10 Eh
 * total energy  :   -82.9752560 Eh     change       -0.1224656E-01 Eh
 * total energy  :   -82.9807599 Eh     change       -0.5503912E-02 Eh
 * total energy  :   -82.9819669 Eh     change       -0.1206963E-02 Eh
 * total energy  :   -82.9826506 Eh     change       -0.6836729E-03 Eh
 * total energy  :   -82.9829938 Eh     change       -0.3432061E-03 Eh
 * total energy  :   -82.9831879 Eh     change       -0.1941042E-03 Eh
 * total energy  :   -82.9833026 Eh     change       -0.1147066E-03 Eh
 * total energy  :   -82.9834036 Eh     change       -0.1010095E-03 Eh
 * total energy  :   -82.9835010 Eh     change       -0.9744418E-04 Eh
 * total energy  :   -82.9838415 Eh     change       -0.1293208E-04 Eh
 * total energy  :   -82.9838533 Eh     change       -0.1187000E-04 Eh
 * total energy  :   -82.9838610 Eh     change       -0.7686274E-05 Eh
 * total energy  :   -82.9838681 Eh     change       -0.7057033E-05 Eh
 * total energy  :   -82.9838753 Eh     change       -0.7271066E-05 Eh
 * total energy  :   -82.9838802 Eh     change       -0.4836932E-05 Eh
 * total energy  :   -82.9838730 Eh     change        0.7169647E-05 Eh
 * total energy  :   -82.9838894 Eh     change       -0.1641371E-04 Eh
 * total energy  :   -82.9838941 Eh     change       -0.4683261E-05 Eh
   *** GEOMETRY OPTIMIZATION CONVERGED AFTER 33 ITERATIONS ***

 final structure:
================
42
 xtb: 6.5.1 (579679a)
C           -4.00669664529222        3.80562781972442        0.10151134384273
O           -3.79053435870685        2.39529946072237       -0.03993816603172
C           -2.66263419083606        1.91179431794020        0.44473069452302
O           -1.80580182451102        2.56748157142576        0.98090355827369
C           -2.54311658621811        0.41335739996094        0.23811435956497
C           -3.75003316517999       -0.44259540726412        0.05118502161257
O           -4.85379988509570       -0.13994681910469        0.42503415362036
C           -3.45584013124103       -1.78607510970131       -0.62048928307171
O           -4.30861331475660       -2.44604022824363       -1.17777676023988
N           -2.16120702685312       -2.16075599650413       -0.55444287977526
C           -1.09410333938548       -1.45977859368865        0.13193713371173
C           -0.94731035613438       -2.02606082313439        1.55381182723767
C            0.22182302180972       -1.57377435569932       -0.70387928371989
C           -0.03090726117463       -1.05132608166716       -2.12325192021833
C            0.76085602531727       -3.00464660717586       -0.73143227969215
N            1.17964831988526       -0.69596033135433       -0.03263223217419
C            2.45878354680527       -0.53355110883758       -0.43607203358587
O            3.02465399818505       -1.18303252684561       -1.29642062819052
C            3.11442126004663        0.55343373137297        0.33640072717968
N            2.54565995521640        1.31646431214547        1.22053258134294
N            3.50034555654981        2.18028665849341        1.66615134833777
C            4.59111638140936        1.88958960822746        1.02400685353004
C            5.91524034669155        2.53679574102814        1.15228814999858
O            4.41081453765321        0.87219599533985        0.16889807637973
N           -1.36148292743117       -0.06284738462881        0.28007158411782
H           -3.20602963741196        4.35551562549269       -0.39699896906466
H           -4.02768626358521        4.07258534072108        1.16004740427064
H           -4.96520318835040        4.01945836152889       -0.36579270549703
H           -1.95728971415049       -3.09208449016125       -0.88334499172175
H           -1.83944199657021       -1.77999595401076        2.12697200785357
H           -0.07535085647021       -1.59377901794573        2.03927411987330
H           -0.84106539336267       -3.10665192847967        1.50781838239104
H            0.89370541713424       -1.08941859985354       -2.69687395163686
H           -0.77913635871761       -1.66674021457099       -2.61868910000979
H           -0.38473066613898       -0.02196212049374       -2.08271284648822
H           -0.00773141342956       -3.69369858285029       -1.07473467755776
H            1.09636358464485       -3.30839460729061        0.25813670153193
H            1.60497089088141       -3.06435412756010       -1.41641600085968
H            0.78970252550504        0.01293610330217        0.57830788955448
H            5.83927138831675        3.39716980819541        1.81248114027057
H            6.27120884042037        2.85441723911784        0.17282966504886
H            6.63716390452831        1.82906192232471        1.56038698546784

          :  Hamiltonian                  GFN1-xTB          :
         :: total energy             -82.983894105208 Eh    ::
         :: gradient norm              0.000466556924 Eh/a0 ::
         :: HOMO-LUMO gap              1.757850355531 eV    ::
         :: SCC energy               -83.764853770897 Eh    ::
         :: -> Gsolv                  -0.053496967526 Eh    ::
         :: repulsion energy           0.808262193160 Eh    ::

    * Orbital Energies and Occupations

         #    Occupation            Energy/Eh            Energy/eV
      -------------------------------------------------------------
         1        2.0000           -0.8650459             -23.5391
       ...           ...                  ...                  ...
        55        2.0000           -0.5083802             -13.8337
        56        2.0000           -0.5071952             -13.8015
        57        2.0000           -0.5056310             -13.7589
        58        2.0000           -0.5024057             -13.6712
        59        2.0000           -0.4976987             -13.5431
        60        2.0000           -0.4842534             -13.1772
        61        2.0000           -0.4835930             -13.1592
        62        2.0000           -0.4714124             -12.8278
        63        2.0000           -0.4656241             -12.6703
        64        2.0000           -0.4609955             -12.5443
        65        2.0000           -0.4538338             -12.3494
        66        2.0000           -0.4485005             -12.2043
        67        2.0000           -0.4403156             -11.9816 (HOMO)
        68                         -0.3757157             -10.2237 (LUMO)
        69                         -0.3214753              -8.7478
        70                         -0.3125534              -8.5050
        71                         -0.2582289              -7.0268
        72                         -0.2529705              -6.8837
        73                         -0.2064588              -5.6180
        74                         -0.2008967              -5.4667
        75                         -0.1441086              -3.9214
        76                         -0.1436620              -3.9092
        77                         -0.1432882              -3.8991
        78                         -0.1391252              -3.7858
       ...                                ...                  ...
       134                          0.7653347              20.8258
      -------------------------------------------------------------
                  HL-Gap            0.0645998 Eh            1.7579 eV

Wiberg/Mayer (AO) data.
largest (>0.10) Wiberg bond orders for each atom

     #   Z sym  total        # sym  WBO       # sym  WBO       # sym  WBO
 ---------------------------------------------------------------------------
     1   6 C    3.859 --    28 H    0.985    26 H    0.979    27 H    0.978
                             2 O    0.884
     2   8 O    2.226 --     3 C    1.149     1 C    0.884     4 O    0.147
     3   6 C    3.854 --     4 O    1.684     2 O    1.149     5 C    0.944
     4   8 O    1.948 --     3 C    1.684     2 O    0.147
     5   6 C    3.952 --    25 N    1.790     6 C    0.993     3 C    0.944
     6   6 C    3.856 --     7 O    1.805     5 C    0.993     8 C    0.907
     7   8 O    2.011 --     6 C    1.805
     8   6 C    3.904 --     9 O    1.635    10 N    1.247     6 C    0.907
     9   8 O    1.929 --     8 C    1.635    10 N    0.185
    10   7 N    3.364 --     8 C    1.247    11 C    0.940    29 H    0.882
                             9 O    0.185
    11   6 C    3.913 --    25 N    1.001    12 C    0.947    10 N    0.940
                            13 C    0.928
    12   6 C    3.982 --    30 H    0.982    31 H    0.981    32 H    0.980
                            11 C    0.947
    13   6 C    3.929 --    15 C    0.999    14 C    0.991    16 N    0.934
                            11 C    0.928
    14   6 C    3.990 --    13 C    0.991    35 H    0.984    34 H    0.984
                            33 H    0.981
    15   6 C    3.989 --    13 C    0.999    37 H    0.982    36 H    0.981
                            38 H    0.974
    16   7 N    3.340 --    17 C    1.245    13 C    0.934    39 H    0.886
                            18 O    0.175
    17   6 C    3.916 --    18 O    1.598    16 N    1.245    19 C    0.989
    18   8 O    1.915 --    17 C    1.598    16 N    0.175
    19   6 C    3.875 --    20 N    1.611    24 O    1.064    17 C    0.989
    20   7 N    3.017 --    19 C    1.611    21 N    1.200
    21   7 N    2.981 --    22 C    1.605    20 N    1.200
    22   6 C    3.871 --    21 N    1.605    24 O    1.083    23 C    1.031
    23   6 C    3.986 --    22 C    1.031    40 H    0.982    41 H    0.966
                            42 H    0.961
    24   8 O    2.330 --    22 C    1.083    19 C    1.064
    25   7 N    3.065 --     5 C    1.790    11 C    1.001
    26   1 H    1.005 --     1 C    0.979
    27   1 H    1.004 --     1 C    0.978
    28   1 H    1.008 --     1 C    0.985
    29   1 H    0.929 --    10 N    0.882
    30   1 H    0.999 --    12 C    0.982
    31   1 H    0.999 --    12 C    0.981
    32   1 H    0.999 --    12 C    0.980
    33   1 H    1.004 --    14 C    0.981
    34   1 H    1.002 --    14 C    0.984
    35   1 H    1.004 --    14 C    0.984
    36   1 H    0.998 --    15 C    0.981
    37   1 H    1.001 --    15 C    0.982
    38   1 H    1.009 --    15 C    0.974
    39   1 H    0.969 --    16 N    0.886
    40   1 H    0.998 --    23 C    0.982
    41   1 H    0.997 --    23 C    0.966
    42   1 H    0.997 --    23 C    0.961
 ---------------------------------------------------------------------------

           -------------------------------------------------
          | TOTAL ENERGY              -82.983894105208 Eh   |
          | GRADIENT NORM               0.000466556924 Eh/α |
          | HOMO-LUMO GAP               1.757850355531 eV   |
           -------------------------------------------------

 * finished run on 2023/06/21 at 17:25:33.483
