   * xtb version 6.5.1 (579679a) compiled by 'ehlert@majestix' on 2022-07-11
          program call               : /lustre/hpc/kemi/ree/PhD/git/ReactivityQM/dep/xtb-6.5.1/bin/xtb --gfn 1 /lustre/hpc/kemi/ree/PhD/git/ReactivityQM/calculations/RaltegravirCLI/reac02prodN13/conf11/RaltegravirCLI_reac02prodN13_conf11_gfn1.xyz --opt --vfukui --chrg 1 --uhf 0 --alpb DMSO

   ID    Z sym.   atoms
    1    6 C      1, 3-6, 9, 10, 13-17, 19-21, 23, 24
    2    7 N      2, 7, 8, 12
    3    8 O      11, 22, 25
    4    9 F      18
    5    1 H      26-47

      * Solvation model:               ALPB
        Solvent                        DMSO
        Solvent mass                       7.8130E+01 g/mol
          :  Hamiltonian                  GFN1-xTB          :
 * total energy  :   -79.3993763 Eh     change       -0.1766409E-10 Eh
 * total energy  :   -79.4198919 Eh     change       -0.2051554E-01 Eh
 * total energy  :   -79.4303249 Eh     change       -0.1043299E-01 Eh
 * total energy  :   -79.4334071 Eh     change       -0.3082283E-02 Eh
 * total energy  :   -79.4354826 Eh     change       -0.2075491E-02 Eh
 * total energy  :   -79.4363424 Eh     change       -0.8597223E-03 Eh
 * total energy  :   -79.4368271 Eh     change       -0.4847694E-03 Eh
 * total energy  :   -79.4371773 Eh     change       -0.3501873E-03 Eh
 * total energy  :   -79.4373705 Eh     change       -0.1932322E-03 Eh
 * total energy  :   -79.4374748 Eh     change       -0.1042203E-03 Eh
 * total energy  :   -79.4907534 Eh     change       -0.1366354E-04 Eh
 * total energy  :   -79.4907637 Eh     change       -0.1029843E-04 Eh
 * total energy  :   -79.4907721 Eh     change       -0.8452973E-05 Eh
 * total energy  :   -79.4907769 Eh     change       -0.4758455E-05 Eh
 * total energy  :   -79.4907845 Eh     change       -0.7649835E-05 Eh
 * total energy  :   -79.4907904 Eh     change       -0.5891013E-05 Eh
 * total energy  :   -79.4907992 Eh     change       -0.8754912E-05 Eh
 * total energy  :   -79.4908071 Eh     change       -0.7986676E-05 Eh
 * total energy  :   -79.4908121 Eh     change       -0.4992620E-05 Eh
   *** GEOMETRY OPTIMIZATION CONVERGED AFTER 68 ITERATIONS ***

 final structure:
================
47
 xtb: 6.5.1 (579679a)
C           -3.48703498379128        1.28935997971063       -1.61037109870482
N           -2.42330639007246        0.90099538742388       -0.67936732216909
C           -2.22192763295314       -0.31903379540051       -0.18750791333085
C           -3.22185311290140       -1.44991567479381       -0.25737498998927
C           -2.59441512068067       -2.74493240909843        0.27456384495419
C           -4.42093568460281       -1.04453008569583        0.61881151416770
N           -3.67423452614750       -1.61812612668419       -1.62894972774385
N           -1.03136829347650       -0.60875834102871        0.36943379894403
C           -0.17293466953112        0.26932739982412        0.77198247124939
C            1.18152176243203       -0.30396532318708        1.14914496068566
O            1.32070249666866       -1.51370405099897        1.20904260297813
N            2.15183494069244        0.58154386308540        1.39692129289537
C            3.50786776181047        0.12593027535972        1.70349580730426
C            4.28044641423040       -0.08745670183194        0.41850620385732
C            5.07514977624039        0.93176353116538       -0.09946687757215
C            5.75929400190504        0.75326670815225       -1.29405527855776
C            5.62569236583692       -0.45642242492007       -1.95150740293053
F            6.27756368529997       -0.63474004449121       -3.10959788130357
C            4.84479300105756       -1.48922993283132       -1.46347862480893
C            4.16865878527842       -1.29501783830149       -0.26785871044078
C           -0.64133757683871        1.68380778287007        0.87809139592696
O            0.40144928211914        2.60328156151933        0.88879259927033
C           -1.58892935392327        1.98119066560132       -0.27896934599917
C           -1.51026708717759        1.83172794712236        2.16244092035518
O           -1.73301293580385        3.07549845379478       -0.73861816158453
H           -4.21329840024741        1.89453872718437       -1.06985191304864
H           -3.95101191839402        0.39354538681401       -2.01458454103091
H           -3.03580843738190        1.88569638776822       -2.40269376961955
H           -1.73430797466805       -3.02114444306937       -0.33294188899806
H           -2.27230245793194       -2.61199427052233        1.30619739832990
H           -3.33297864194525       -3.54258462739765        0.22879266576451
H           -5.13461425638375       -1.86639499909070        0.63689473222998
H           -4.09256025554731       -0.83691437233355        1.63588911267251
H           -4.90980625987404       -0.16139490797490        0.21363432923097
H           -4.49236318575659       -2.20984771046808       -1.64059850628824
H           -2.94933790771494       -2.05132850215433       -2.18390514622642
H            1.99898695675242        1.57054699195557        1.28093010736165
H            3.97882935236966        0.89202836745457        2.32159183360830
H            3.42947914513475       -0.80799742741858        2.26706398797794
H            5.16173212102604        1.87193487795583        0.43125149036564
H            6.37966801447563        1.53704892474053       -1.70866706311666
H            4.76613203091593       -2.42052872865886       -2.00927321052824
H            3.54627517402240       -2.08611370013030        0.13319106010093
H            0.08672015908265        3.48769667638656        0.64572899054679
H           -1.96911759809782        2.81785959699833        2.16231936491978
H           -2.27989193262963        1.06481874751057        2.19473013759162
H           -0.85384063288440        1.73866819808014        3.02474775070214

          :  Hamiltonian                  GFN1-xTB          :
         :: total energy             -79.490812140490 Eh    ::
         :: gradient norm              0.000406270639 Eh/a0 ::
         :: HOMO-LUMO gap              0.689635743325 eV    ::
         :: SCC energy               -80.382633470718 Eh    ::
         :: -> Gsolv                  -0.106856263053 Eh    ::
         :: repulsion energy           0.922865649261 Eh    ::

    * Orbital Energies and Occupations

         #    Occupation            Energy/Eh            Energy/eV
      -------------------------------------------------------------
         1        2.0000           -0.8868181             -24.1315
       ...           ...                  ...                  ...
        55        2.0000           -0.5204713             -14.1627
        56        2.0000           -0.5198085             -14.1447
        57        2.0000           -0.5165049             -14.0548
        58        2.0000           -0.5145755             -14.0023
        59        2.0000           -0.5116538             -13.9228
        60        2.0000           -0.5043288             -13.7235
        61        2.0000           -0.4971031             -13.5269
        62        2.0000           -0.4814381             -13.1006
        63        2.0000           -0.4783302             -13.0160
        64        2.0000           -0.4654784             -12.6663
        65        2.0000           -0.4589960             -12.4899
        66        2.0000           -0.4459907             -12.1360
        67        2.0000           -0.4421170             -12.0306 (HOMO)
        68        0.0000           -0.4167734             -11.3410 (LUMO)
        69                         -0.3422733              -9.3137
        70                         -0.3014566              -8.2031
        71                         -0.2809044              -7.6438
        72                         -0.2760110              -7.5106
        73                         -0.2429689              -6.6115
        74                         -0.1626725              -4.4265
        75                         -0.1579534              -4.2981
        76                         -0.1542819              -4.1982
        77                         -0.1420754              -3.8661
        78                         -0.1351913              -3.6787
       ...                                ...                  ...
       144                          0.6845804              18.6284
      -------------------------------------------------------------
                  HL-Gap            0.0253436 Eh            0.6896 eV

Wiberg/Mayer (AO) data.
largest (>0.10) Wiberg bond orders for each atom

     #   Z sym  total        # sym  WBO       # sym  WBO       # sym  WBO
 ---------------------------------------------------------------------------
     1   6 C    3.880 --    28 H    0.969    26 H    0.966    27 H    0.960
                             2 N    0.901
     2   7 N    3.553 --     3 C    1.370    23 C    1.011     1 C    0.901
     3   6 C    3.869 --     2 N    1.370     8 N    1.264     4 C    0.988
     4   6 C    3.954 --     3 C    0.988     5 C    0.988     7 N    0.983
                             6 C    0.953
     5   6 C    3.988 --     4 C    0.988    31 H    0.983    29 H    0.982
                            30 H    0.981
     6   6 C    3.986 --    33 H    0.984    34 H    0.983    32 H    0.975
                             4 C    0.953
     7   7 N    3.007 --     4 C    0.983    36 H    0.929    35 H    0.924
     8   7 N    3.138 --     9 C    1.625     3 C    1.264
     9   6 C    3.895 --     8 N    1.625    21 C    1.004    10 C    0.959
    10   6 C    3.922 --    11 O    1.584    12 N    1.302     9 C    0.959
    11   8 O    1.913 --    10 C    1.584    12 N    0.203
    12   7 N    3.420 --    10 C    1.302    13 C    0.929    37 H    0.870
                            11 O    0.203
    13   6 C    3.929 --    14 C    0.985    38 H    0.974    39 H    0.969
                            12 N    0.929
    14   6 C    3.981 --    15 C    1.421    20 C    1.416    13 C    0.985
    15   6 C    3.993 --    16 C    1.442    14 C    1.421    40 H    0.970
                            19 C    0.110
    16   6 C    3.990 --    15 C    1.442    17 C    1.401    41 H    0.968
                            20 C    0.111
    17   6 C    3.861 --    16 C    1.401    19 C    1.398    18 F    0.930
    18   9 F    1.059 --    17 C    0.930
    19   6 C    3.991 --    20 C    1.446    17 C    1.398    42 H    0.969
                            15 C    0.110
    20   6 C    3.992 --    19 C    1.446    14 C    1.416    43 H    0.969
                            16 C    0.111
    21   6 C    3.933 --     9 C    1.004    22 O    0.988    23 C    0.929
                            24 C    0.892
    22   8 O    1.932 --    21 C    0.988    44 H    0.808
    23   6 C    3.860 --    25 O    1.773     2 N    1.011    21 C    0.929
    24   6 C    3.968 --    46 H    0.984    45 H    0.978    47 H    0.975
                            21 C    0.892
    25   8 O    2.039 --    23 C    1.773
    26   1 H    0.994 --     1 C    0.966
    27   1 H    1.020 --     1 C    0.960
    28   1 H    0.997 --     1 C    0.969
    29   1 H    1.004 --     5 C    0.982
    30   1 H    1.003 --     5 C    0.981
    31   1 H    0.999 --     5 C    0.983
    32   1 H    0.994 --     6 C    0.975
    33   1 H    0.999 --     6 C    0.984
    34   1 H    0.998 --     6 C    0.983
    35   1 H    0.940 --     7 N    0.924
    36   1 H    0.944 --     7 N    0.929
    37   1 H    0.934 --    12 N    0.870
    38   1 H    0.999 --    13 C    0.974
    39   1 H    1.004 --    13 C    0.969
    40   1 H    0.998 --    15 C    0.970
    41   1 H    0.997 --    16 C    0.968
    42   1 H    0.997 --    19 C    0.969
    43   1 H    1.009 --    20 C    0.969
    44   1 H    0.833 --    22 O    0.808
    45   1 H    0.993 --    24 C    0.978
    46   1 H    0.997 --    24 C    0.984
    47   1 H    0.995 --    24 C    0.975
 ---------------------------------------------------------------------------

           -------------------------------------------------
          | TOTAL ENERGY              -79.490812140490 Eh   |
          | GRADIENT NORM               0.000406270639 Eh/α |
          | HOMO-LUMO GAP               0.689635743325 eV   |
           -------------------------------------------------

 * finished run on 2023/06/20 at 15:35:11.398
