                         Program Version 5.0.1 -  RELEASE  -
|  1> # ORCA input file
|  2> ! SP r2SCAN-3c CPCM
|  3>
|  4> %maxcore 1875.0
|  5> %pal nprocs 4 end
|  6> %cpcm smd true SMDsolvent "DMSO" end
|  7>
|  8> *xyz 1 1
|  9> C       5.745559    0.628141    2.201779
| 10> O       4.529659    0.232649    1.554456
| 11> C       4.556163    0.165642    0.232764
| 12> O       5.547608    0.419721   -0.429414
| 13> C       3.271441   -0.250267   -0.376616
| 14> N       2.219972   -0.491980    0.474366
| 15> C       1.092075   -0.854056   -0.027037
| 16> C      -0.070725   -1.174077    0.886117
| 17> C       0.099231   -0.473467    2.235810
| 18> C      -0.176422   -2.692263    1.054957
| 19> N      -1.316681   -0.713843    0.248031
| 20> C      -1.473818    0.551557   -0.149648
| 21> O      -0.634684    1.428674   -0.139734
| 22> C      -2.860172    0.815239   -0.670051
| 23> O      -3.783039   -0.130877   -0.753452
| 24> C      -4.882139    0.461000   -1.253552
| 25> C      -6.112536   -0.312577   -1.484661
| 26> N      -4.666463    1.724635   -1.477216
| 27> N      -3.389791    1.933509   -1.106686
| 28> C      -2.835539    3.266814   -1.221874
| 29> N       0.906115   -1.031442   -1.366553
| 30> C       1.873597   -0.795423   -2.327952
| 31> O       1.629916   -0.939912   -3.511255
| 32> C       3.153203   -0.377194   -1.740123
| 33> O       4.143315   -0.143371   -2.598473
| 34> H       5.540415    0.628550    3.270151
| 35> H       6.037526    1.626202    1.867677
| 36> H       6.541062   -0.081960    1.965112
| 37> H      -0.757336   -0.685870    2.871535
| 38> H       1.007051   -0.838334    2.714086
| 39> H       0.184966    0.602400    2.092364
| 40> H      -0.318564   -3.168949    0.086959
| 41> H       0.737698   -3.073175    1.508095
| 42> H      -1.019132   -2.935026    1.699196
| 43> H      -2.104757   -1.338547    0.235719
| 44> H      -6.410894   -0.810068   -0.561133
| 45> H      -5.920087   -1.086381   -2.230173
| 46> H      -6.906401    0.346032   -1.830438
| 47> H      -3.396284    3.925190   -0.559523
| 48> H      -2.955237    3.596057   -2.253028
| 49> H      -1.785900    3.238443   -0.940366
| 50> H       0.002067   -1.323331   -1.701256
| 51> H       4.957958    0.131935   -2.113118
| 52> **                         ****END OF INPUT****

CARTESIAN COORDINATES (ANGSTROEM)
---------------------------------
  C      5.745559    0.628141    2.201779
  O      4.529659    0.232649    1.554456
  C      4.556163    0.165642    0.232764
  O      5.547608    0.419721   -0.429414
  C      3.271441   -0.250267   -0.376616
  N      2.219972   -0.491980    0.474366
  C      1.092075   -0.854056   -0.027037
  C     -0.070725   -1.174077    0.886117
  C      0.099231   -0.473467    2.235810
  C     -0.176422   -2.692263    1.054957
  N     -1.316681   -0.713843    0.248031
  C     -1.473818    0.551557   -0.149648
  O     -0.634684    1.428674   -0.139734
  C     -2.860172    0.815239   -0.670051
  O     -3.783039   -0.130877   -0.753452
  C     -4.882139    0.461000   -1.253552
  C     -6.112536   -0.312577   -1.484661
  N     -4.666463    1.724635   -1.477216
  N     -3.389791    1.933509   -1.106686
  C     -2.835539    3.266814   -1.221874
  N      0.906115   -1.031442   -1.366553
  C      1.873597   -0.795423   -2.327952
  O      1.629916   -0.939912   -3.511255
  C      3.153203   -0.377194   -1.740123
  O      4.143315   -0.143371   -2.598473
  H      5.540415    0.628550    3.270151
  H      6.037526    1.626202    1.867677
  H      6.541062   -0.081960    1.965112
  H     -0.757336   -0.685870    2.871535
  H      1.007051   -0.838334    2.714086
  H      0.184966    0.602400    2.092364
  H     -0.318564   -3.168949    0.086959
  H      0.737698   -3.073175    1.508095
  H     -1.019132   -2.935026    1.699196
  H     -2.104757   -1.338547    0.235719
  H     -6.410894   -0.810068   -0.561133
  H     -5.920087   -1.086381   -2.230173
  H     -6.906401    0.346032   -1.830438
  H     -3.396284    3.925190   -0.559523
  H     -2.955237    3.596057   -2.253028
  H     -1.785900    3.238443   -0.940366
  H      0.002067   -1.323331   -1.701256
  H      4.957958    0.131935   -2.113118

 Total Charge           Charge          ....    1
 Multiplicity           Mult            ....    1
 Number of Electrons    NEL             ....  184
 Basis Dimension        Dim             ....  620

ORBITAL ENERGIES
----------------

  NO   OCC          E(Eh)            E(eV)
   0   2.0000     -19.115810      -520.1676
   1   2.0000     -19.013179      -517.3749
   2   2.0000     -18.999406      -517.0001
   3   2.0000     -18.966071      -516.0930
   4   2.0000     -18.959673      -515.9189
   5   2.0000     -18.935912      -515.2724
   6   2.0000     -14.334061      -390.0496
   7   2.0000     -14.249558      -387.7502
   8   2.0000     -14.230101      -387.2207
   9   2.0000     -14.228791      -387.1851
  10   2.0000     -14.170000      -385.5853
  11   2.0000     -10.214546      -277.9519
  12   2.0000     -10.194209      -277.3985
  13   2.0000     -10.191714      -277.3306
  14   2.0000     -10.177038      -276.9313
  15   2.0000     -10.155250      -276.3384
  16   2.0000     -10.130871      -275.6750
  17   2.0000     -10.128696      -275.6158
  18   2.0000     -10.115982      -275.2699
  19   2.0000     -10.096165      -274.7306
  20   2.0000     -10.092019      -274.6178
  21   2.0000     -10.082093      -274.3477
  22   2.0000     -10.062533      -273.8154
  23   2.0000     -10.034564      -273.0544
  24   2.0000     -10.025625      -272.8111
  25   2.0000      -1.218233       -33.1498
  26   2.0000      -1.092672       -29.7331
  27   2.0000      -1.062557       -28.9136
  28   2.0000      -1.058173       -28.7943
  29   2.0000      -1.055837       -28.7308
  30   2.0000      -1.025097       -27.8943
  31   2.0000      -1.000740       -27.2315
  32   2.0000      -0.974120       -26.5072
  33   2.0000      -0.940006       -25.5789
  34   2.0000      -0.902134       -24.5483
  35   2.0000      -0.885336       -24.0912
  36   2.0000      -0.803467       -21.8634
  37   2.0000      -0.779948       -21.2235
  38   2.0000      -0.755385       -20.5551
  39   2.0000      -0.744721       -20.2649
  40   2.0000      -0.716705       -19.5025
  41   2.0000      -0.692966       -18.8566
  42   2.0000      -0.674288       -18.3483
  43   2.0000      -0.659723       -17.9520
  44   2.0000      -0.653083       -17.7713
  45   2.0000      -0.648974       -17.6595
  46   2.0000      -0.624777       -17.0010
  47   2.0000      -0.576790       -15.6953
  48   2.0000      -0.568604       -15.4725
  49   2.0000      -0.565033       -15.3753
  50   2.0000      -0.554077       -15.0772
  51   2.0000      -0.552170       -15.0253
  52   2.0000      -0.542546       -14.7634
  53   2.0000      -0.520316       -14.1585
  54   2.0000      -0.502678       -13.6786
  55   2.0000      -0.492079       -13.3901
  56   2.0000      -0.467965       -12.7340
  57   2.0000      -0.464408       -12.6372
  58   2.0000      -0.458354       -12.4724
  59   2.0000      -0.455910       -12.4059
  60   2.0000      -0.455099       -12.3839
  61   2.0000      -0.448177       -12.1955
  62   2.0000      -0.444448       -12.0940
  63   2.0000      -0.442067       -12.0293
  64   2.0000      -0.432735       -11.7753
  65   2.0000      -0.426207       -11.5977
  66   2.0000      -0.413871       -11.2620
  67   2.0000      -0.406573       -11.0634
  68   2.0000      -0.401184       -10.9168
  69   2.0000      -0.398246       -10.8368
  70   2.0000      -0.393755       -10.7146
  71   2.0000      -0.391064       -10.6414
  72   2.0000      -0.384669       -10.4674
  73   2.0000      -0.371702       -10.1145
  74   2.0000      -0.368810       -10.0358
  75   2.0000      -0.368037       -10.0148
  76   2.0000      -0.364366        -9.9149
  77   2.0000      -0.361062        -9.8250
  78   2.0000      -0.348212        -9.4753
  79   2.0000      -0.346277        -9.4227
  80   2.0000      -0.342111        -9.3093
  81   2.0000      -0.332864        -9.0577
  82   2.0000      -0.330810        -9.0018
  83   2.0000      -0.305493        -8.3129
  84   2.0000      -0.292777        -7.9669
  85   2.0000      -0.286779        -7.8037
  86   2.0000      -0.284611        -7.7447
  87   2.0000      -0.277616        -7.5543
  88   2.0000      -0.272996        -7.4286
  89   2.0000      -0.250420        -6.8143
  90   2.0000      -0.247760        -6.7419
  91   2.0000      -0.215598        -5.8667
  92   0.0000      -0.134625        -3.6633
  93   0.0000      -0.099279        -2.7015
  94   0.0000      -0.065648        -1.7864
  95   0.0000      -0.043398        -1.1809
  96   0.0000       0.003971         0.1081

MULLIKEN ATOMIC CHARGES
-----------------------
   0 C :   -0.309357
   1 O :   -0.186103
   2 C :    0.220523
   3 O :   -0.480964
   4 C :    0.128064
   5 N :   -0.129667
   6 C :    0.238110
   7 C :    0.044254
   8 C :   -0.588150
   9 C :   -0.537735
  10 N :   -0.159834
  11 C :    0.045430
  12 O :   -0.456771
  13 C :    0.191372
  14 O :    0.018508
  15 C :    0.501397
  16 C :   -0.618003
  17 N :   -0.413771
  18 N :    0.522936
  19 C :   -0.405738
  20 N :   -0.050108
  21 C :    0.064520
  22 O :   -0.391393
  23 C :    0.051849
  24 O :   -0.356533
  25 H :    0.180759
  26 H :    0.180092
  27 H :    0.180427
  28 H :    0.191201
  29 H :    0.192230
  30 H :    0.197148
  31 H :    0.194156
  32 H :    0.201032
  33 H :    0.193956
  34 H :    0.332187
  35 H :    0.215653
  36 H :    0.219627
  37 H :    0.218937
  38 H :    0.218701
  39 H :    0.216386
  40 H :    0.220509
  41 H :    0.327531
  42 H :    0.376634
Sum of atomic charges:    1.0000000

LOEWDIN ATOMIC CHARGES
----------------------
   0 C :   -0.030819
   1 O :   -0.555935
   2 C :    0.408733
   3 O :   -0.463159
   4 C :    0.195880
   5 N :   -0.549501
   6 C :    0.352121
   7 C :    0.110159
   8 C :   -0.337283
   9 C :   -0.332604
  10 N :   -0.546061
  11 C :    0.389883
  12 O :   -0.428321
  13 C :    0.524607
  14 O :   -0.329679
  15 C :    0.432457
  16 C :   -0.298438
  17 N :   -0.211915
  18 N :   -0.491146
  19 C :   -0.018721
  20 N :   -0.439804
  21 C :    0.373848
  22 O :   -0.433891
  23 C :    0.283995
  24 O :   -0.439182
  25 H :    0.188646
  26 H :    0.184801
  27 H :    0.184920
  28 H :    0.172331
  29 H :    0.181188
  30 H :    0.181707
  31 H :    0.177051
  32 H :    0.181976
  33 H :    0.177703
  34 H :    0.306605
  35 H :    0.203377
  36 H :    0.205243
  37 H :    0.201178
  38 H :    0.219165
  39 H :    0.218997
  40 H :    0.223433
  41 H :    0.310377
  42 H :    0.316078

  Mayer bond orders larger than 0.100000
B(  0-C ,  1-O ) :   0.8232 B(  0-C , 25-H ) :   0.9607 B(  0-C , 26-H ) :   0.9540
B(  0-C , 27-H ) :   0.9540 B(  1-O ,  2-C ) :   1.2052 B(  2-C ,  3-O ) :   1.7212
B(  2-C ,  4-C ) :   1.0734 B(  4-C ,  5-N ) :   1.0044 B(  4-C , 23-C ) :   1.3167
B(  5-N ,  6-C ) :   1.7097 B(  6-C ,  7-C ) :   0.7836 B(  6-C , 20-N ) :   1.0680
B(  6-C , 23-C ) :   0.1139 B(  7-C ,  8-C ) :   0.9228 B(  7-C ,  9-C ) :   0.9488
B(  7-C , 10-N ) :   0.7682 B(  8-C , 28-H ) :   0.9703 B(  8-C , 29-H ) :   0.9561
B(  8-C , 30-H ) :   0.9574 B(  9-C , 31-H ) :   0.9502 B(  9-C , 32-H ) :   0.9608
B(  9-C , 33-H ) :   0.9590 B( 10-N , 11-C ) :   1.2138 B( 10-N , 12-O ) :   0.1120
B( 10-N , 34-H ) :   0.8861 B( 11-C , 12-O ) :   1.7287 B( 11-C , 13-C ) :   0.9064
B( 11-C , 18-N ) :  -0.1172 B( 13-C , 14-O ) :   1.1463 B( 13-C , 17-N ) :   0.2006
B( 13-C , 18-N ) :   1.6825 B( 14-O , 15-C ) :   1.0518 B( 15-C , 16-C ) :   0.8513
B( 15-C , 17-N ) :   1.5002 B( 16-C , 35-H ) :   0.9322 B( 16-C , 36-H ) :   0.9249
B( 16-C , 37-H ) :   0.9737 B( 17-N , 18-N ) :   1.2279 B( 18-N , 19-C ) :   0.8999
B( 19-C , 38-H ) :   0.9142 B( 19-C , 39-H ) :   0.9175 B( 19-C , 40-H ) :   0.9301
B( 20-N , 21-C ) :   1.0188 B( 20-N , 41-H ) :   0.8840 B( 21-C , 22-O ) :   2.0641
B( 21-C , 23-C ) :   0.9779 B( 23-C , 24-O ) :   1.1664 B( 24-O , 42-H ) :   0.7640

Dispersion correction           -0.018812193
FINAL SINGLE POINT ENERGY     -1269.107029391222

DIPOLE MOMENT
-------------
                                X             Y             Z
Electronic contribution:      2.68917       2.14789     -11.67727
Nuclear contribution   :    -11.11040      -2.11490      13.59174
                        -----------------------------------------
Total Dipole Moment    :     -8.42123       0.03299       1.91447
                        -----------------------------------------
Magnitude (a.u.)       :      8.63617
Magnitude (Debye)      :     21.95139

Rotational constants in cm-1:     0.014362     0.003605     0.003449
Rotational constants in MHz :   430.565451   108.074979   103.393679

                             ****ORCA TERMINATED NORMALLY****
TOTAL RUN TIME: 0 days 0 hours 2 minutes 17 seconds 975 msec
