   * xtb version 6.5.1 (579679a) compiled by 'ehlert@majestix' on 2022-07-11
          program call               : /lustre/hpc/kemi/ree/PhD/git/ReactivityQM/dep/xtb-6.5.1/bin/xtb --gfn 1 /lustre/hpc/kemi/ree/PhD/git/ReactivityQM/calculations/R02/reac01prodN06/conf12/R02_reac01prodN06_conf12_gfn1.xyz --opt --vfukui --chrg 1 --uhf 0 --alpb DMSO

   ID    Z sym.   atoms
    1    6 C      1, 3, 5, 7-10, 12, 14, 16, 17, 20, 22, 24
    2    8 O      2, 4, 13, 15, 23, 25
    3    7 N      6, 11, 18, 19, 21
    4    1 H      26-43

      * Solvation model:               ALPB
        Solvent                        DMSO
        Solvent mass                       7.8130E+01 g/mol
          :  Hamiltonian                  GFN1-xTB          :
 * total energy  :   -83.1594711 Eh     change       -0.5675815E-10 Eh
 * total energy  :   -83.1781255 Eh     change       -0.1865444E-01 Eh
 * total energy  :   -83.1851959 Eh     change       -0.7070394E-02 Eh
 * total energy  :   -83.1867663 Eh     change       -0.1570404E-02 Eh
 * total energy  :   -83.1881003 Eh     change       -0.1333959E-02 Eh
 * total energy  :   -83.1888020 Eh     change       -0.7017390E-03 Eh
 * total energy  :   -83.1893957 Eh     change       -0.5937073E-03 Eh
 * total energy  :   -83.1897939 Eh     change       -0.3981754E-03 Eh
 * total energy  :   -83.1899820 Eh     change       -0.1881202E-03 Eh
 * total energy  :   -83.1900434 Eh     change       -0.6135664E-04 Eh
 * total energy  :   -83.1909702 Eh     change       -0.3974269E-04 Eh
 * total energy  :   -83.1909872 Eh     change       -0.1694578E-04 Eh
 * total energy  :   -83.1910042 Eh     change       -0.1698527E-04 Eh
 * total energy  :   -83.1910267 Eh     change       -0.2249795E-04 Eh
 * total energy  :   -83.1910398 Eh     change       -0.1314848E-04 Eh
 * total energy  :   -83.1910548 Eh     change       -0.1496540E-04 Eh
 * total energy  :   -83.1910641 Eh     change       -0.9310892E-05 Eh
 * total energy  :   -83.1910707 Eh     change       -0.6627339E-05 Eh
 * total energy  :   -83.1910735 Eh     change       -0.2824773E-05 Eh
   *** GEOMETRY OPTIMIZATION CONVERGED AFTER 43 ITERATIONS ***

 final structure:
================
43
 xtb: 6.5.1 (579679a)
C            5.74555887105340        0.62814051768631        2.20177940749975
O            4.52965892881325        0.23264905537519        1.55445615500042
C            4.55616303342125        0.16564209686425        0.23276350462669
O            5.54760805690412        0.41972128461277       -0.42941404414966
C            3.27144130141669       -0.25026670396251       -0.37661566101414
N            2.21997246849846       -0.49198030741070        0.47436597005956
C            1.09207482695644       -0.85405577473234       -0.02703714449742
C           -0.07072502621711       -1.17407701554030        0.88611658260603
C            0.09923102780664       -0.47346682258188        2.23580981048632
C           -0.17642233307581       -2.69226269709309        1.05495710294915
N           -1.31668079070520       -0.71384301830432        0.24803063584427
C           -1.47381812139066        0.55155701911852       -0.14964793059523
O           -0.63468399107122        1.42867421926537       -0.13973382022682
C           -2.86017182423863        0.81523854483333       -0.67005105508826
O           -3.78303850504285       -0.13087721444847       -0.75345231029199
C           -4.88213888816774        0.46100003278759       -1.25355224696704
C           -6.11253581021973       -0.31257662590056       -1.48466074066912
N           -4.66646299526779        1.72463468785833       -1.47721635620789
N           -3.38979066977661        1.93350939768475       -1.10668626575770
C           -2.83553890519415        3.26681375716119       -1.22187383594343
N            0.90611474372125       -1.03144243329596       -1.36655299769126
C            1.87359723507862       -0.79542277570939       -2.32795181172888
O            1.62991647837524       -0.93991150090523       -3.51125481655697
C            3.15320310875780       -0.37719373698826       -1.74012315546059
O            4.14331474530519       -0.14337074127204       -2.59847274485262
H            5.54041532868025        0.62854952453554        3.27015079127637
H            6.03752634936508        1.62620218229639        1.86767684883452
H            6.54106160076540       -0.08196048178428        1.96511221794716
H           -0.75733578288681       -0.68587046879978        2.87153465485120
H            1.00705130018318       -0.83833446633803        2.71408559396338
H            0.18496570908659        0.60240030323172        2.09236447275168
H           -0.31856379276563       -3.16894935811724        0.08695861233845
H            0.73769830481415       -3.07317513310850        1.50809453069149
H           -1.01913227245647       -2.93502593503454        1.69919568828846
H           -2.10475711276375       -1.33854682062901        0.23571937797660
H           -6.41089378327128       -0.81006845818649       -0.56113253870972
H           -5.92008694411546       -1.08638101065297       -2.23017341297087
H           -6.90640060670444        0.34603225410257       -1.83043788330950
H           -3.39628444840228        3.92518976563655       -0.55952334845765
H           -2.95523692507546        3.59605681711622       -2.25302839909509
H           -1.78589986779707        3.23844283539432       -0.94036620567737
H            0.00206731482302       -1.32333144461037       -1.70125590375775
H            4.95795766278546        0.13193464984117       -2.11311832831273

          :  Hamiltonian                  GFN1-xTB          :
         :: total energy             -83.191073534765 Eh    ::
         :: gradient norm              0.000604367528 Eh/a0 ::
         :: HOMO-LUMO gap              1.606997722631 eV    ::
         :: SCC energy               -83.998453401170 Eh    ::
         :: -> Gsolv                  -0.123620713554 Eh    ::
         :: repulsion energy           0.833540990870 Eh    ::

    * Orbital Energies and Occupations

         #    Occupation            Energy/Eh            Energy/eV
      -------------------------------------------------------------
         1        2.0000           -0.9391258             -25.5549
       ...           ...                  ...                  ...
        55        2.0000           -0.5325134             -14.4904
        56        2.0000           -0.5240837             -14.2610
        57        2.0000           -0.5203278             -14.1588
        58        2.0000           -0.5192602             -14.1298
        59        2.0000           -0.5166023             -14.0575
        60        2.0000           -0.5059206             -13.7668
        61        2.0000           -0.5036760             -13.7057
        62        2.0000           -0.4965673             -13.5123
        63        2.0000           -0.4938281             -13.4377
        64        2.0000           -0.4901352             -13.3373
        65        2.0000           -0.4673069             -12.7161
        66        2.0000           -0.4544110             -12.3652
        67        2.0000           -0.4372547             -11.8983 (HOMO)
        68                         -0.3781987             -10.2913 (LUMO)
        69                         -0.3320807              -9.0364
        70                         -0.3243338              -8.8256
        71                         -0.2919246              -7.9437
        72                         -0.2589961              -7.0476
        73                         -0.2483538              -6.7581
        74                         -0.1724208              -4.6918
        75                         -0.1665316              -4.5316
        76                         -0.1662559              -4.5241
        77                         -0.1461827              -3.9778
        78                         -0.1404180              -3.8210
       ...                                ...                  ...
       136                          0.7182440              19.5444
      -------------------------------------------------------------
                  HL-Gap            0.0590561 Eh            1.6070 eV

Wiberg/Mayer (AO) data.
largest (>0.10) Wiberg bond orders for each atom

     #   Z sym  total        # sym  WBO       # sym  WBO       # sym  WBO
 ---------------------------------------------------------------------------
     1   6 C    3.864 --    26 H    0.986    27 H    0.979    28 H    0.979
                             2 O    0.890
     2   8 O    2.219 --     3 C    1.139     1 C    0.890     4 O    0.130
     3   6 C    3.850 --     4 O    1.605     2 O    1.139     5 C    1.019
     4   8 O    1.946 --     3 C    1.605     2 O    0.130
     5   6 C    3.963 --    24 C    1.487     6 N    1.171     3 C    1.019
     6   7 N    3.028 --     7 C    1.599     5 C    1.171
     7   6 C    3.935 --     6 N    1.599    21 N    1.167     8 C    0.976
     8   6 C    3.916 --     9 C    0.987    10 C    0.983     7 C    0.976
                            11 N    0.904
     9   6 C    3.984 --     8 C    0.987    29 H    0.985    31 H    0.981
                            30 H    0.981
    10   6 C    3.986 --     8 C    0.983    32 H    0.983    33 H    0.982
                            34 H    0.981
    11   7 N    3.393 --    12 C    1.305     8 C    0.904    35 H    0.882
                            13 O    0.200
    12   6 C    3.929 --    13 O    1.593    11 N    1.305    14 C    0.954
    13   8 O    1.940 --    12 C    1.593    11 N    0.200
    14   6 C    3.842 --    19 N    1.458    15 O    1.125    12 C    0.954
    15   8 O    2.370 --    14 C    1.125    16 C    1.067
    16   6 C    3.838 --    18 N    1.574    15 O    1.067    17 C    1.044
    17   6 C    3.969 --    16 C    1.044    38 H    0.977    36 H    0.951
                            37 H    0.946
    18   7 N    2.964 --    16 C    1.574    19 N    1.156
    19   7 N    3.662 --    14 C    1.458    18 N    1.156    20 C    0.909
    20   6 C    3.877 --    41 H    0.973    40 H    0.965    39 H    0.962
                            19 N    0.909
    21   7 N    3.457 --     7 C    1.167    22 C    1.116    42 H    0.885
                            23 O    0.135
    22   6 C    3.906 --    23 O    1.608    21 N    1.116    24 C    1.052
    23   8 O    1.906 --    22 C    1.608    21 N    0.135
    24   6 C    3.922 --     5 C    1.487    25 O    1.134    22 C    1.052
    25   8 O    2.099 --    24 C    1.134    43 H    0.771
    26   1 H    1.010 --     1 C    0.986
    27   1 H    1.006 --     1 C    0.979
    28   1 H    1.006 --     1 C    0.979
    29   1 H    0.999 --     9 C    0.985
    30   1 H    1.007 --     9 C    0.981
    31   1 H    1.006 --     9 C    0.981
    32   1 H    0.997 --    10 C    0.983
    33   1 H    0.998 --    10 C    0.982
    34   1 H    0.994 --    10 C    0.981
    35   1 H    0.919 --    11 N    0.882
    36   1 H    0.988 --    17 C    0.951
    37   1 H    0.988 --    17 C    0.946
    38   1 H    0.990 --    17 C    0.977
    39   1 H    0.990 --    20 C    0.962
    40   1 H    0.991 --    20 C    0.965
    41   1 H    1.003 --    20 C    0.973
    42   1 H    0.930 --    21 N    0.885
    43   1 H    0.849 --    25 O    0.771
 ---------------------------------------------------------------------------

           -------------------------------------------------
          | TOTAL ENERGY              -83.191073534765 Eh   |
          | GRADIENT NORM               0.000604367528 Eh/α |
          | HOMO-LUMO GAP               1.606997722631 eV   |
           -------------------------------------------------

 * finished run on 2023/06/20 at 15:25:25.478
