   * xtb version 6.5.1 (579679a) compiled by 'ehlert@majestix' on 2022-07-11
          program call               : /lustre/hpc/kemi/ree/PhD/git/ReactivityQM/dep/xtb-6.5.1/bin/xtb --gfn 1 /lustre/hpc/kemi/ree/PhD/git/ReactivityQM/calculations/R01/reac01prodN06/conf05/R01_reac01prodN06_conf05_gfn1.xyz --opt --vfukui --chrg 1 --uhf 0 --alpb DMSO

   ID    Z sym.   atoms
    1    6 C      1, 3, 5, 6, 9, 10
    2    8 O      2, 4, 11
    3    7 N      7, 8
    4    1 H      12-20

      * Solvation model:               ALPB
        Solvent                        DMSO
        Solvent mass                       7.8130E+01 g/mol
          :  Hamiltonian                  GFN1-xTB          :
 * total energy  :   -37.5805912 Eh     change       -0.9805490E-12 Eh
 * total energy  :   -37.5916483 Eh     change       -0.1105707E-01 Eh
 * total energy  :   -37.5959490 Eh     change       -0.4300715E-02 Eh
 * total energy  :   -37.5966238 Eh     change       -0.6748323E-03 Eh
 * total energy  :   -37.5970998 Eh     change       -0.4759499E-03 Eh
 * total energy  :   -37.5972669 Eh     change       -0.1671241E-03 Eh
 * total energy  :   -37.5974367 Eh     change       -0.1697897E-03 Eh
 * total energy  :   -37.5975821 Eh     change       -0.1454717E-03 Eh
 * total energy  :   -37.5976964 Eh     change       -0.1142452E-03 Eh
 * total energy  :   -37.5978098 Eh     change       -0.1134391E-03 Eh
 * total energy  :   -37.5982657 Eh     change       -0.1239253E-04 Eh
 * total energy  :   -37.5982772 Eh     change       -0.1148179E-04 Eh
 * total energy  :   -37.5982980 Eh     change       -0.2078684E-04 Eh
 * total energy  :   -37.5983063 Eh     change       -0.8256406E-05 Eh
 * total energy  :   -37.5983133 Eh     change       -0.7067942E-05 Eh
 * total energy  :   -37.5983185 Eh     change       -0.5156860E-05 Eh
 * total energy  :   -37.5983225 Eh     change       -0.3974897E-05 Eh
 * total energy  :   -37.5983270 Eh     change       -0.4495499E-05 Eh
 * total energy  :   -37.5983313 Eh     change       -0.4296674E-05 Eh
   *** GEOMETRY OPTIMIZATION CONVERGED AFTER 35 ITERATIONS ***

 final structure:
================
20
 xtb: 6.5.1 (579679a)
C           -2.90938715535644        0.91683104311006       -0.25190785832909
O           -1.52365281987902        0.49637831840066       -0.19470366359582
C           -1.25514688368979       -0.72954931873140        0.09117373579379
O           -1.97147582236293       -1.63606817479226        0.36961702191394
C            0.33902635566377       -0.96071425884891        0.08002510080725
C            0.64525312601610       -2.41756900932100       -0.23426219339266
N            0.75975404578664       -0.49111286540517        1.34864541553472
N            1.43412084313081        0.56315281819040        1.21260143231434
C            1.53849924697522        0.82536712921492       -0.13790608561623
C            2.24035246595206        1.95853814145772       -0.72189577592094
O            0.93091553592023       -0.06447342384390       -0.82606048841029
H           -3.50907107549958        0.30310147272714        0.42020332461576
H           -3.25445362185728        0.81082580078898       -1.28066988041100
H           -2.91819578269155        1.96137599002962        0.05058130201024
H            1.71671102509649       -2.58307256805147       -0.15140877756009
H            0.10976209418812       -3.04591877618871        0.47476496690693
H            0.31484997875862       -2.63881794571120       -1.24665636003273
H            2.03683741376113        2.03582774748075       -1.78747725076075
H            1.96085452266516        2.87363667230054       -0.19750267621217
H            3.31444550742279        1.82226220719341       -0.56259428965507

          :  Hamiltonian                  GFN1-xTB          :
         :: total energy             -37.598331252213 Eh    ::
         :: gradient norm              0.000848265703 Eh/a0 ::
         :: HOMO-LUMO gap              2.231010784592 eV    ::
         :: SCC energy               -37.939272066508 Eh    ::
         :: -> Gsolv                  -0.080643058984 Eh    ::
         :: repulsion energy           0.349795782173 Eh    ::

    * Orbital Energies and Occupations

         #    Occupation            Energy/Eh            Energy/eV
      -------------------------------------------------------------
         1        2.0000           -0.9437387             -25.6804
       ...           ...                  ...                  ...
        18        2.0000           -0.6166632             -16.7803
        19        2.0000           -0.6119218             -16.6512
        20        2.0000           -0.6011676             -16.3586
        21        2.0000           -0.6009617             -16.3530
        22        2.0000           -0.5854844             -15.9318
        23        2.0000           -0.5803060             -15.7909
        24        2.0000           -0.5720253             -15.5656
        25        2.0000           -0.5667142             -15.4211
        26        2.0000           -0.5644316             -15.3590
        27        2.0000           -0.5502986             -14.9744
        28        2.0000           -0.5394647             -14.6796
        29        2.0000           -0.5358415             -14.5810
        30        2.0000           -0.5165586             -14.0563 (HOMO)
        31                         -0.4345704             -11.8253 (LUMO)
        32                         -0.3415971              -9.2953
        33                         -0.3164053              -8.6098
        34                         -0.1810512              -4.9267
        35                         -0.1648216              -4.4850
        36                         -0.1600662              -4.3556
        37                         -0.1131509              -3.0790
        38                         -0.1096089              -2.9826
        39                         -0.1023044              -2.7838
        40                         -0.0985851              -2.6826
        41                         -0.0976728              -2.6578
       ...                                ...                  ...
        62                          0.7491038              20.3842
      -------------------------------------------------------------
                  HL-Gap            0.0819881 Eh            2.2310 eV

Wiberg/Mayer (AO) data.
largest (>0.10) Wiberg bond orders for each atom

     #   Z sym  total        # sym  WBO       # sym  WBO       # sym  WBO
 ---------------------------------------------------------------------------
     1   6 C    3.813 --    12 H    0.980    14 H    0.979    13 H    0.975
                             2 O    0.835
     2   8 O    2.267 --     3 C    1.233     1 C    0.835     4 O    0.154
     3   6 C    3.864 --     4 O    1.739     2 O    1.233     5 C    0.745
     4   8 O    2.073 --     3 C    1.739     2 O    0.154
     5   6 C    3.837 --     7 N    1.076     6 C    0.933    11 O    0.905
                             3 C    0.745
     6   6 C    3.949 --    17 H    0.976    15 H    0.975    16 H    0.973
                             5 C    0.933
     7   7 N    3.010 --     8 N    1.682     5 C    1.076
     8   7 N    3.022 --     7 N    1.682     9 C    1.175
     9   6 C    3.801 --    11 O    1.307     8 N    1.175    10 C    1.086
    10   6 C    3.962 --     9 C    1.086    18 H    0.969    19 H    0.931
                            20 H    0.904
    11   8 O    2.395 --     9 C    1.307     5 C    0.905
    12   1 H    0.998 --     1 C    0.980
    13   1 H    0.997 --     1 C    0.975
    14   1 H    1.002 --     1 C    0.979
    15   1 H    0.989 --     6 C    0.975
    16   1 H    0.995 --     6 C    0.973
    17   1 H    0.990 --     6 C    0.976
    18   1 H    0.984 --    10 C    0.969
    19   1 H    0.980 --    10 C    0.931
    20   1 H    0.977 --    10 C    0.904
 ---------------------------------------------------------------------------

           -------------------------------------------------
          | TOTAL ENERGY              -37.598331252213 Eh   |
          | GRADIENT NORM               0.000848265703 Eh/α |
          | HOMO-LUMO GAP               2.231010784592 eV   |
           -------------------------------------------------

 * finished run on 2023/06/20 at 14:56:10.418
