   * xtb version 6.5.1 (579679a) compiled by 'ehlert@majestix' on 2022-07-11
          program call               : /lustre/hpc/kemi/ree/PhD/git/ReactivityQM/dep/xtb-6.5.1/bin/xtb --gfn 1 /lustre/hpc/kemi/ree/PhD/git/ReactivityQM/calculations/R01/reac02prodN07/conf17/R01_reac02prodN07_conf17_gfn1.xyz --opt --vfukui --chrg 1 --uhf 0 --alpb DMSO

   ID    Z sym.   atoms
    1    6 C      1, 3, 5, 6, 8, 11-15
    2    8 O      2, 4, 7, 9
    3    7 N      10, 16, 17
    4    1 H      18-33

      * Solvation model:               ALPB
        Solvent                        DMSO
        Solvent mass                       7.8130E+01 g/mol
          :  Hamiltonian                  GFN1-xTB          :
 * total energy  :   -57.7944549 Eh     change       -0.1318853E-08 Eh
 * total energy  :   -57.8096126 Eh     change       -0.1515767E-01 Eh
 * total energy  :   -57.8156919 Eh     change       -0.6079343E-02 Eh
 * total energy  :   -57.8168185 Eh     change       -0.1126575E-02 Eh
 * total energy  :   -57.8179681 Eh     change       -0.1149642E-02 Eh
 * total energy  :   -57.8186869 Eh     change       -0.7187186E-03 Eh
 * total energy  :   -57.8195573 Eh     change       -0.8704280E-03 Eh
 * total energy  :   -57.8204959 Eh     change       -0.9385794E-03 Eh
 * total energy  :   -57.8218376 Eh     change       -0.1341730E-02 Eh
 * total energy  :   -57.8242880 Eh     change       -0.2450411E-02 Eh
 * total energy  :   -57.8682670 Eh     change       -0.5958094E-05 Eh
 * total energy  :   -57.8682729 Eh     change       -0.5955856E-05 Eh
 * total energy  :   -57.8682783 Eh     change       -0.5391773E-05 Eh
 * total energy  :   -57.8682855 Eh     change       -0.7192557E-05 Eh
 * total energy  :   -57.8682947 Eh     change       -0.9182051E-05 Eh
 * total energy  :   -57.8683030 Eh     change       -0.8274703E-05 Eh
 * total energy  :   -57.8683102 Eh     change       -0.7200759E-05 Eh
 * total energy  :   -57.8683152 Eh     change       -0.5033550E-05 Eh
 * total energy  :   -57.8683196 Eh     change       -0.4418078E-05 Eh
   *** GEOMETRY OPTIMIZATION CONVERGED AFTER 116 ITERATIONS ***

 final structure:
================
33
 xtb: 6.5.1 (579679a)
C            3.13454282106018        1.95118424328300       -0.37967060955146
O            2.19225847053941        0.89933204434884       -0.12620484423286
C            2.51720362123734       -0.30414905732136       -0.58518269649326
O            3.54292146635428       -0.51929739117468       -1.20531963886661
C            1.53390046596977       -1.36232190524765       -0.26586878087377
C            1.76962558664782       -2.66593016231139       -0.63047712758677
O            2.84718429831278       -3.07444817729345       -1.29806831893127
C            0.79923244093791       -3.71122555270485       -0.27952716514556
O            0.88497688236980       -4.89459361436970       -0.54717485708761
N           -0.28188715428489       -3.21319150471161        0.42607951787894
C           -0.45573302265460       -1.90174380253671        0.74857675443006
C           -1.68850462900878       -1.54420433400915        1.50722087352607
C           -2.01003465634792        2.22630322904326        0.07017049218909
C           -0.62269814762254        1.95001580062617       -0.33059373989279
C           -3.12628988435018        1.56181602808487       -0.63466497338459
N           -2.25639853956716        3.03706340859186        1.04407214990613
N            0.40072996760196       -0.99163590882760        0.42283931838723
H            4.11016800279554        1.68443834404580        0.03299912949966
H            3.22411805698162        2.11727906421075       -1.45545068749647
H            2.74209644014324        2.83913192902214        0.11013124860095
H            3.44030443813117       -2.31244121760586       -1.49323027172630
H           -0.99135343904589       -3.87900994817902        0.69046652357010
H           -1.64785976264910       -0.49570496687762        1.79057886878412
H           -2.57147762650492       -1.71230197855158        0.89078028214887
H           -1.77897196998719       -2.15903333153728        2.40247777299393
H           -0.32749516448794        0.97577434214878        0.09036420546946
H            0.07052639454074        2.69981637176467        0.04267965527965
H           -0.53981782136783        1.85735170249657       -1.41242914715086
H           -3.25508056708105        2.04415928504622       -1.60674764756130
H           -4.05931085953783        1.63605011572485       -0.08079561966606
H           -2.88295438976565        0.51675057433297       -0.82434704345084
H           -1.51871559667755        3.52005651823396        1.53066761811988
H           -3.19520712267266        3.22470785223427        1.35564675830676

          :  Hamiltonian                  GFN1-xTB          :
         :: total energy             -57.868319619523 Eh    ::
         :: gradient norm              0.000567893151 Eh/a0 ::
         :: HOMO-LUMO gap              2.190129153277 eV    ::
         :: SCC energy               -58.481133960234 Eh    ::
         :: -> Gsolv                  -0.127436129254 Eh    ::
         :: repulsion energy           0.630428245691 Eh    ::

    * Orbital Energies and Occupations

         #    Occupation            Energy/Eh            Energy/eV
      -------------------------------------------------------------
         1        2.0000           -0.8699818             -23.6734
       ...           ...                  ...                  ...
        35        2.0000           -0.5590827             -15.2134
        36        2.0000           -0.5469758             -14.8840
        37        2.0000           -0.5460436             -14.8586
        38        2.0000           -0.5442896             -14.8109
        39        2.0000           -0.5381388             -14.6435
        40        2.0000           -0.5272171             -14.3463
        41        2.0000           -0.5222976             -14.2124
        42        2.0000           -0.5068041             -13.7908
        43        2.0000           -0.4965076             -13.5107
        44        2.0000           -0.4931186             -13.4184
        45        2.0000           -0.4686770             -12.7534
        46        2.0000           -0.4554496             -12.3934
        47        2.0000           -0.4358190             -11.8592 (HOMO)
        48                         -0.3553333              -9.6691 (LUMO)
        49                         -0.3319680              -9.0333
        50                         -0.2884587              -7.8494
        51                         -0.2486280              -6.7655
        52                         -0.1759047              -4.7866
        53                         -0.1724755              -4.6933
        54                         -0.1656217              -4.5068
        55                         -0.1593126              -4.3351
        56                         -0.1503100              -4.0901
        57                         -0.1418647              -3.8603
        58                         -0.1188041              -3.2328
       ...                                ...                  ...
       100                          0.7198841              19.5890
      -------------------------------------------------------------
                  HL-Gap            0.0804858 Eh            2.1901 eV

Wiberg/Mayer (AO) data.
largest (>0.10) Wiberg bond orders for each atom

     #   Z sym  total        # sym  WBO       # sym  WBO       # sym  WBO
 ---------------------------------------------------------------------------
     1   6 C    3.862 --    20 H    0.986    19 H    0.979    18 H    0.978
                             2 O    0.887
     2   8 O    2.215 --     3 C    1.125     1 C    0.887     4 O    0.127
     3   6 C    3.848 --     4 O    1.612     2 O    1.125     5 C    1.024
     4   8 O    1.950 --     3 C    1.612     2 O    0.127
     5   6 C    3.962 --     6 C    1.489    17 N    1.165     3 C    1.024
     6   6 C    3.922 --     5 C    1.489     7 O    1.131     8 C    1.051
     7   8 O    2.098 --     6 C    1.131    21 H    0.774
     8   6 C    3.908 --     9 O    1.611    10 N    1.117     6 C    1.051
     9   8 O    1.908 --     8 C    1.611    10 N    0.134
    10   7 N    3.456 --    11 C    1.176     8 C    1.117    22 H    0.881
                             9 O    0.134
    11   6 C    3.930 --    17 N    1.573    10 N    1.176    12 C    1.025
    12   6 C    3.989 --    11 C    1.025    23 H    0.983    25 H    0.966
                            24 H    0.963
    13   6 C    3.859 --    16 N    1.626    14 C    1.079    15 C    1.064
    14   6 C    3.979 --    13 C    1.079    27 H    0.973    28 H    0.958
                            26 H    0.894
    15   6 C    3.982 --    13 C    1.064    30 H    0.975    31 H    0.957
                            29 H    0.930
    16   7 N    3.506 --    13 C    1.626    33 H    0.873    32 H    0.873
    17   7 N    3.061 --    11 C    1.573     5 C    1.165
    18   1 H    1.005 --     1 C    0.978
    19   1 H    1.005 --     1 C    0.979
    20   1 H    1.010 --     1 C    0.986
    21   1 H    0.849 --     7 O    0.774
    22   1 H    0.919 --    10 N    0.881
    23   1 H    1.004 --    12 C    0.983
    24   1 H    0.997 --    12 C    0.963
    25   1 H    0.994 --    12 C    0.966
    26   1 H    1.025 --    14 C    0.894
    27   1 H    0.995 --    14 C    0.973
    28   1 H    0.993 --    14 C    0.958
    29   1 H    0.988 --    15 C    0.930
    30   1 H    0.990 --    15 C    0.975
    31   1 H    0.994 --    15 C    0.957
    32   1 H    0.903 --    16 N    0.873
    33   1 H    0.903 --    16 N    0.873
 ---------------------------------------------------------------------------

           -------------------------------------------------
          | TOTAL ENERGY              -57.868319619523 Eh   |
          | GRADIENT NORM               0.000567893151 Eh/α |
          | HOMO-LUMO GAP               2.190129153277 eV   |
           -------------------------------------------------

 * finished run on 2023/06/20 at 15:08:08.107
