                         Program Version 5.0.1 -  RELEASE  -
|  1> # ORCA input file
|  2> ! SP r2SCAN-3c CPCM
|  3>
|  4> %maxcore 1875.0
|  5> %pal nprocs 4 end
|  6> %cpcm smd true SMDsolvent "DMSO" end
|  7>
|  8> *xyz 1 1
|  9> C      -3.357560   -2.493015    0.930781
| 10> N      -2.268447   -1.578578    0.556040
| 11> C      -2.446242   -0.348741    0.025821
| 12> C      -3.772021    0.407681    0.203989
| 13> C      -4.766301    0.085224   -0.920457
| 14> C      -4.400435    0.129964    1.587732
| 15> N      -3.473138    1.834265    0.160091
| 16> N      -1.395766    0.235648   -0.559438
| 17> C      -1.563652    1.329794   -1.535469
| 18> C      -0.091520   -0.225240   -0.409098
| 19> C       1.052239    0.663215   -0.859575
| 20> O       0.992808    1.878002   -0.761361
| 21> N       2.107524   -0.004932   -1.335408
| 22> C       3.307363    0.696840   -1.772537
| 23> C       4.424127    0.629890   -0.752575
| 24> C       4.208873    0.186160    0.547976
| 25> C       5.251413    0.153115    1.464421
| 26> C       6.501890    0.574410    1.053247
| 27> F       7.514298    0.546648    1.933316
| 28> C       6.750926    1.020807   -0.232607
| 29> C       5.698917    1.045015   -1.135964
| 30> C       0.109679   -1.383208    0.270046
| 31> O       1.323534   -1.887607    0.510796
| 32> C      -1.013224   -2.173016    0.734794
| 33> O      -0.884783   -3.270163    1.239357
| 34> H      -3.487622   -2.488810    2.011342
| 35> H      -3.054501   -3.491391    0.614250
| 36> H      -4.273288   -2.220622    0.423726
| 37> H      -4.399510    0.453369   -1.876741
| 38> H      -5.714266    0.572891   -0.698846
| 39> H      -4.936106   -0.985595   -1.004199
| 40> H      -3.631819   -0.032297    2.340441
| 41> H      -4.976604    1.009611    1.871376
| 42> H      -5.084214   -0.714089    1.574201
| 43> H      -4.337434    2.343703    0.038666
| 44> H      -3.062747    2.119058    1.039645
| 45> H      -0.848380    1.164818   -2.338950
| 46> H      -1.375302    2.288926   -1.058531
| 47> H      -2.567116    1.302980   -1.940140
| 48> H       2.103673   -1.008593   -1.384968
| 49> H       3.032495    1.741392   -1.956247
| 50> H       3.634067    0.254685   -2.717626
| 51> H       3.223742   -0.145468    0.850808
| 52> H       5.095370   -0.194224    2.477219
| 53> H       7.744601    1.339101   -0.519285
| 54> H       5.870951    1.388614   -2.149112
| 55> H       1.233509   -2.750237    0.958732
| 56> **                         ****END OF INPUT****

CARTESIAN COORDINATES (ANGSTROEM)
---------------------------------
  C     -3.357560   -2.493015    0.930781
  N     -2.268447   -1.578578    0.556040
  C     -2.446242   -0.348741    0.025821
  C     -3.772021    0.407681    0.203989
  C     -4.766301    0.085224   -0.920457
  C     -4.400435    0.129964    1.587732
  N     -3.473138    1.834265    0.160091
  N     -1.395766    0.235648   -0.559438
  C     -1.563652    1.329794   -1.535469
  C     -0.091520   -0.225240   -0.409098
  C      1.052239    0.663215   -0.859575
  O      0.992808    1.878002   -0.761361
  N      2.107524   -0.004932   -1.335408
  C      3.307363    0.696840   -1.772537
  C      4.424127    0.629890   -0.752575
  C      4.208873    0.186160    0.547976
  C      5.251413    0.153115    1.464421
  C      6.501890    0.574410    1.053247
  F      7.514298    0.546648    1.933316
  C      6.750926    1.020807   -0.232607
  C      5.698917    1.045015   -1.135964
  C      0.109679   -1.383208    0.270046
  O      1.323534   -1.887607    0.510796
  C     -1.013224   -2.173016    0.734794
  O     -0.884783   -3.270163    1.239357
  H     -3.487622   -2.488810    2.011342
  H     -3.054501   -3.491391    0.614250
  H     -4.273288   -2.220622    0.423726
  H     -4.399510    0.453369   -1.876741
  H     -5.714266    0.572891   -0.698846
  H     -4.936106   -0.985595   -1.004199
  H     -3.631819   -0.032297    2.340441
  H     -4.976604    1.009611    1.871376
  H     -5.084214   -0.714089    1.574201
  H     -4.337434    2.343703    0.038666
  H     -3.062747    2.119058    1.039645
  H     -0.848380    1.164818   -2.338950
  H     -1.375302    2.288926   -1.058531
  H     -2.567116    1.302980   -1.940140
  H      2.103673   -1.008593   -1.384968
  H      3.032495    1.741392   -1.956247
  H      3.634067    0.254685   -2.717626
  H      3.223742   -0.145468    0.850808
  H      5.095370   -0.194224    2.477219
  H      7.744601    1.339101   -0.519285
  H      5.870951    1.388614   -2.149112
  H      1.233509   -2.750237    0.958732

 Total Charge           Charge          ....    1
 Multiplicity           Mult            ....    1
 Number of Electrons    NEL             ....  184
 Basis Dimension        Dim             ....  625

ORBITAL ENERGIES
----------------

  NO   OCC          E(Eh)            E(eV)
   0   2.0000     -24.503940      -666.7861
   1   2.0000     -19.024410      -517.6805
   2   2.0000     -18.965491      -516.0772
   3   2.0000     -18.936916      -515.2997
   4   2.0000     -14.281651      -388.6235
   5   2.0000     -14.273071      -388.3900
   6   2.0000     -14.204168      -386.5151
   7   2.0000     -14.141250      -384.8030
   8   2.0000     -10.179617      -277.0015
   9   2.0000     -10.174833      -276.8713
  10   2.0000     -10.159307      -276.4488
  11   2.0000     -10.145213      -276.0653
  12   2.0000     -10.126586      -275.5584
  13   2.0000     -10.119783      -275.3733
  14   2.0000     -10.111348      -275.1438
  15   2.0000     -10.078187      -274.2414
  16   2.0000     -10.076920      -274.2069
  17   2.0000     -10.070115      -274.0218
  18   2.0000     -10.050871      -273.4981
  19   2.0000     -10.044152      -273.3153
  20   2.0000     -10.043386      -273.2944
  21   2.0000     -10.043239      -273.2904
  22   2.0000     -10.042752      -273.2772
  23   2.0000     -10.032225      -272.9907
  24   2.0000     -10.026980      -272.8480
  25   2.0000      -1.195624       -32.5346
  26   2.0000      -1.086847       -29.5746
  27   2.0000      -1.052792       -28.6479
  28   2.0000      -1.033804       -28.1312
  29   2.0000      -1.017130       -27.6775
  30   2.0000      -0.948250       -25.8032
  31   2.0000      -0.913602       -24.8604
  32   2.0000      -0.883670       -24.0459
  33   2.0000      -0.837867       -22.7995
  34   2.0000      -0.804688       -21.8967
  35   2.0000      -0.755894       -20.5689
  36   2.0000      -0.749357       -20.3910
  37   2.0000      -0.733691       -19.9647
  38   2.0000      -0.729255       -19.8440
  39   2.0000      -0.700160       -19.0523
  40   2.0000      -0.678195       -18.4546
  41   2.0000      -0.669099       -18.2071
  42   2.0000      -0.659587       -17.9483
  43   2.0000      -0.649550       -17.6752
  44   2.0000      -0.601413       -16.3653
  45   2.0000      -0.594789       -16.1850
  46   2.0000      -0.585994       -15.9457
  47   2.0000      -0.577134       -15.7046
  48   2.0000      -0.565646       -15.3920
  49   2.0000      -0.545421       -14.8417
  50   2.0000      -0.524266       -14.2660
  51   2.0000      -0.517606       -14.0848
  52   2.0000      -0.500245       -13.6124
  53   2.0000      -0.487915       -13.2768
  54   2.0000      -0.473064       -12.8727
  55   2.0000      -0.471007       -12.8168
  56   2.0000      -0.461910       -12.5692
  57   2.0000      -0.453706       -12.3460
  58   2.0000      -0.449415       -12.2292
  59   2.0000      -0.444206       -12.0875
  60   2.0000      -0.438005       -11.9187
  61   2.0000      -0.435897       -11.8614
  62   2.0000      -0.430005       -11.7010
  63   2.0000      -0.427570       -11.6348
  64   2.0000      -0.420898       -11.4532
  65   2.0000      -0.416819       -11.3422
  66   2.0000      -0.410277       -11.1642
  67   2.0000      -0.401953       -10.9377
  68   2.0000      -0.400231       -10.8908
  69   2.0000      -0.395673       -10.7668
  70   2.0000      -0.390665       -10.6305
  71   2.0000      -0.383327       -10.4308
  72   2.0000      -0.376779       -10.2527
  73   2.0000      -0.370598       -10.0845
  74   2.0000      -0.367120        -9.9899
  75   2.0000      -0.362510        -9.8644
  76   2.0000      -0.361102        -9.8261
  77   2.0000      -0.355446        -9.6722
  78   2.0000      -0.346807        -9.4371
  79   2.0000      -0.343742        -9.3537
  80   2.0000      -0.338102        -9.2002
  81   2.0000      -0.331735        -9.0270
  82   2.0000      -0.323832        -8.8119
  83   2.0000      -0.314785        -8.5657
  84   2.0000      -0.297151        -8.0859
  85   2.0000      -0.283325        -7.7097
  86   2.0000      -0.252972        -6.8837
  87   2.0000      -0.252481        -6.8704
  88   2.0000      -0.249289        -6.7835
  89   2.0000      -0.236584        -6.4378
  90   2.0000      -0.225052        -6.1240
  91   2.0000      -0.215033        -5.8514
  92   0.0000      -0.104938        -2.8555
  93   0.0000      -0.098959        -2.6928
  94   0.0000      -0.045387        -1.2350
  95   0.0000      -0.029704        -0.8083
  96   0.0000      -0.014181        -0.3859

MULLIKEN ATOMIC CHARGES
-----------------------
   0 C :   -0.429661
   1 N :    0.272515
   2 C :    0.039453
   3 C :    0.112099
   4 C :   -0.486143
   5 C :   -0.564450
   6 N :   -0.679255
   7 N :    0.382600
   8 C :   -0.386424
   9 C :   -0.005439
  10 C :    0.165463
  11 O :   -0.449840
  12 N :   -0.097465
  13 C :   -0.410838
  14 C :    0.147276
  15 C :   -0.104242
  16 C :   -0.367585
  17 C :    0.366170
  18 F :   -0.235493
  19 C :   -0.278767
  20 C :   -0.249844
  21 C :    0.130763
  22 O :   -0.399527
  23 C :    0.139610
  24 O :   -0.460314
  25 H :    0.226444
  26 H :    0.202933
  27 H :    0.203208
  28 H :    0.182646
  29 H :    0.192871
  30 H :    0.184030
  31 H :    0.202024
  32 H :    0.190987
  33 H :    0.191161
  34 H :    0.307865
  35 H :    0.301930
  36 H :    0.183855
  37 H :    0.218497
  38 H :    0.190970
  39 H :    0.308116
  40 H :    0.217859
  41 H :    0.201494
  42 H :    0.189290
  43 H :    0.197068
  44 H :    0.196803
  45 H :    0.186031
  46 H :    0.373259
Sum of atomic charges:    1.0000000

LOEWDIN ATOMIC CHARGES
----------------------
   0 C :   -0.059354
   1 N :   -0.611405
   2 C :    0.453555
   3 C :    0.072193
   4 C :   -0.340966
   5 C :   -0.350787
   6 N :   -0.694970
   7 N :   -0.635999
   8 C :   -0.037463
   9 C :    0.258237
  10 C :    0.361905
  11 O :   -0.473935
  12 N :   -0.589344
  13 C :    0.006110
  14 C :   -0.073737
  15 C :   -0.142027
  16 C :   -0.157581
  17 C :    0.197600
  18 F :   -0.296564
  19 C :   -0.155865
  20 C :   -0.143379
  21 C :    0.282679
  22 O :   -0.447956
  23 C :    0.394599
  24 O :   -0.442326
  25 H :    0.204642
  26 H :    0.218466
  27 H :    0.199724
  28 H :    0.172871
  29 H :    0.178002
  30 H :    0.171215
  31 H :    0.177799
  32 H :    0.179837
  33 H :    0.170148
  34 H :    0.262023
  35 H :    0.257906
  36 H :    0.202480
  37 H :    0.211703
  38 H :    0.204763
  39 H :    0.298117
  40 H :    0.219266
  41 H :    0.207827
  42 H :    0.195298
  43 H :    0.194072
  44 H :    0.194285
  45 H :    0.187849
  46 H :    0.318489

  Mayer bond orders larger than 0.100000
B(  0-C ,  1-N ) :   0.8350 B(  0-C , 25-H ) :   0.9256 B(  0-C , 26-H ) :   0.9207
B(  0-C , 27-H ) :   0.9360 B(  1-N ,  2-C ) :   1.3857 B(  1-N ,  7-N ) :   0.1260
B(  1-N , 23-C ) :   1.0473 B(  2-C ,  3-C ) :   0.8495 B(  2-C ,  7-N ) :   1.4358
B(  3-C ,  4-C ) :   0.9983 B(  3-C ,  5-C ) :   0.8721 B(  3-C ,  6-N ) :   0.8449
B(  4-C , 28-H ) :   0.9420 B(  4-C , 29-H ) :   0.9575 B(  4-C , 30-H ) :   0.9532
B(  5-C , 31-H ) :   0.9599 B(  5-C , 32-H ) :   0.9652 B(  5-C , 33-H ) :   0.9517
B(  6-N , 34-H ) :   0.9031 B(  6-N , 35-H ) :   0.9100 B(  7-N ,  8-C ) :   0.8909
B(  7-N ,  9-C ) :   1.1890 B(  8-C , 36-H ) :   0.9130 B(  8-C , 37-H ) :   0.9261
B(  8-C , 38-H ) :   0.9188 B(  9-C , 10-C ) :   0.8718 B(  9-C , 21-C ) :   1.5319
B(  9-C , 22-O ) :   0.1464 B( 10-C , 11-O ) :   1.8191 B( 10-C , 12-N ) :   1.1594
B( 12-N , 13-C ) :   0.8987 B( 12-N , 39-H ) :   0.8931 B( 13-C , 14-C ) :   0.7622
B( 13-C , 40-H ) :   0.9655 B( 13-C , 41-H ) :   0.9748 B( 14-C , 15-C ) :   1.4054
B( 14-C , 20-C ) :   1.3770 B( 15-C , 16-C ) :   1.3700 B( 15-C , 42-H ) :   0.9471
B( 16-C , 17-C ) :   1.3855 B( 16-C , 43-H ) :   0.9270 B( 17-C , 18-F ) :   0.8869
B( 17-C , 19-C ) :   1.3990 B( 19-C , 20-C ) :   1.3664 B( 19-C , 44-H ) :   0.9339
B( 20-C , 45-H ) :   0.9460 B( 21-C , 22-O ) :   0.9004 B( 21-C , 23-C ) :   1.0358
B( 22-O , 46-H ) :   0.8195 B( 23-C , 24-O ) :   1.8231

Dispersion correction           -0.022107699
FINAL SINGLE POINT ENERGY     -1205.228270832666

DIPOLE MOMENT
-------------
                                X             Y             Z
Electronic contribution:     34.05128      -4.02954       5.01262
Nuclear contribution   :    -40.62186       2.95769      -6.31453
                        -----------------------------------------
Total Dipole Moment    :     -6.57058      -1.07185      -1.30190
                        -----------------------------------------
Magnitude (a.u.)       :      6.78353
Magnitude (Debye)      :     17.24236

Rotational constants in cm-1:     0.016783     0.003218     0.002939
Rotational constants in MHz :   503.129280    96.466858    88.104679

                             ****ORCA TERMINATED NORMALLY****
TOTAL RUN TIME: 0 days 0 hours 2 minutes 30 seconds 95 msec
