   * xtb version 6.5.1 (579679a) compiled by 'ehlert@majestix' on 2022-07-11
          program call               : /lustre/hpc/kemi/ree/PhD/git/ReactivityQM/dep/xtb-6.5.1/bin/xtb --gfn 1 /lustre/hpc/kemi/ree/PhD/git/ReactivityQM/calculations/RaltegravirCLI/reac02prodN04/conf19/RaltegravirCLI_reac02prodN04_conf19_gfn1.xyz --opt --vfukui --chrg 1 --uhf 0 --alpb DMSO

   ID    Z sym.   atoms
    1    6 C      1, 3-6, 9-11, 14-18, 20-22, 24
    2    7 N      2, 7, 8, 13
    3    8 O      12, 23, 25
    4    9 F      19
    5    1 H      26-47

      * Solvation model:               ALPB
        Solvent                        DMSO
        Solvent mass                       7.8130E+01 g/mol
          :  Hamiltonian                  GFN1-xTB          :
 * total energy  :   -79.4947130 Eh     change       -0.2576428E-10 Eh
 * total energy  :   -79.5102546 Eh     change       -0.1554167E-01 Eh
 * total energy  :   -79.5150542 Eh     change       -0.4799573E-02 Eh
 * total energy  :   -79.5161969 Eh     change       -0.1142647E-02 Eh
 * total energy  :   -79.5173875 Eh     change       -0.1190621E-02 Eh
 * total energy  :   -79.5182912 Eh     change       -0.9037014E-03 Eh
 * total energy  :   -79.5192745 Eh     change       -0.9833408E-03 Eh
 * total energy  :   -79.5200925 Eh     change       -0.8179948E-03 Eh
 * total energy  :   -79.5206203 Eh     change       -0.5278280E-03 Eh
 * total energy  :   -79.5207953 Eh     change       -0.1749367E-03 Eh
 * total energy  :   -79.5251672 Eh     change       -0.8947013E-05 Eh
 * total energy  :   -79.5251786 Eh     change       -0.1138318E-04 Eh
 * total energy  :   -79.5251942 Eh     change       -0.1566374E-04 Eh
 * total energy  :   -79.5252045 Eh     change       -0.1030498E-04 Eh
 * total energy  :   -79.5252184 Eh     change       -0.1391301E-04 Eh
 * total energy  :   -79.5252293 Eh     change       -0.1089595E-04 Eh
 * total energy  :   -79.5252403 Eh     change       -0.1096024E-04 Eh
 * total energy  :   -79.5252482 Eh     change       -0.7917278E-05 Eh
 * total energy  :   -79.5252517 Eh     change       -0.3510459E-05 Eh
   *** GEOMETRY OPTIMIZATION CONVERGED AFTER 95 ITERATIONS ***

 final structure:
================
47
 xtb: 6.5.1 (579679a)
C           -3.35755963167280       -2.49301493558489        0.93078065535582
N           -2.26844742527607       -1.57857782714936        0.55604004018258
C           -2.44624205076572       -0.34874147320620        0.02582144157469
C           -3.77202120218020        0.40768060197748        0.20398900188091
C           -4.76630073981552        0.08522368368642       -0.92045742271268
C           -4.40043504786134        0.12996394345850        1.58773249193089
N           -3.47313779185495        1.83426521077511        0.16009109990705
N           -1.39576616047578        0.23564810468886       -0.55943849917845
C           -1.56365154389195        1.32979431662561       -1.53546946221520
C           -0.09152021766210       -0.22524023472625       -0.40909817375830
C            1.05223929250256        0.66321521497118       -0.85957486907050
O            0.99280838435725        1.87800150991771       -0.76136097230871
N            2.10752369690073       -0.00493192667528       -1.33540769094013
C            3.30736306309404        0.69684026694433       -1.77253702050290
C            4.42412689323834        0.62988995755088       -0.75257453996869
C            4.20887345851827        0.18615986821984        0.54797554365261
C            5.25141295298871        0.15311533084626        1.46442103701356
C            6.50189031359435        0.57440980956731        1.05324695126422
F            7.51429796596827        0.54664847215082        1.93331630344034
C            6.75092576447560        1.02080651869428       -0.23260741588020
C            5.69891729037834        1.04501533991042       -1.13596424690826
C            0.10967868355750       -1.38320781187300        0.27004609923088
O            1.32353399589184       -1.88760688616465        0.51079568001418
C           -1.01322447883184       -2.17301642148957        0.73479381428504
O           -0.88478331462033       -3.27016334472700        1.23935704056124
H           -3.48762195848324       -2.48880991326578        2.01134235478372
H           -3.05450118737575       -3.49139121037612        0.61425015822746
H           -4.27328844966684       -2.22062201875123        0.42372550281946
H           -4.39951038171583        0.45336877940186       -1.87674065789389
H           -5.71426613197351        0.57289089918396       -0.69884592000886
H           -4.93610620295033       -0.98559509010022       -1.00419898410831
H           -3.63181902887574       -0.03229735518272        2.34044125897895
H           -4.97660372038896        1.00961131164212        1.87137644016243
H           -5.08421400100265       -0.71408851456213        1.57420115044478
H           -4.33743436146234        2.34370339520538        0.03866611878932
H           -3.06274658096662        2.11905794596086        1.03964511934643
H           -0.84838011877314        1.16481787493665       -2.33894957918339
H           -1.37530172659679        2.28892602886151       -1.05853114990013
H           -2.56711582133266        1.30297991331697       -1.94014032035678
H            2.10367262201807       -1.00859335376286       -1.38496844005066
H            3.03249460966323        1.74139180904415       -1.95624726807455
H            3.63406706665986        0.25468533096857       -2.71762620767112
H            3.22374194850446       -0.14546755245609        0.85080841558257
H            5.09536953001398       -0.19422434383503        2.47721906176276
H            7.74460076596635        1.33910076670787       -0.51928484272897
H            5.87095107302990        1.38861391024917       -2.14911229961994
H            1.23350890515645       -2.75023690157617        0.95873220184735

          :  Hamiltonian                  GFN1-xTB          :
         :: total energy             -79.525251717459 Eh    ::
         :: gradient norm              0.000541059585 Eh/a0 ::
         :: HOMO-LUMO gap              2.316207376621 eV    ::
         :: SCC energy               -80.426454947515 Eh    ::
         :: -> Gsolv                  -0.109177126928 Eh    ::
         :: repulsion energy           0.932591330439 Eh    ::

    * Orbital Energies and Occupations

         #    Occupation            Energy/Eh            Energy/eV
      -------------------------------------------------------------
         1        2.0000           -0.8795688             -23.9343
       ...           ...                  ...                  ...
        55        2.0000           -0.5213352             -14.1863
        56        2.0000           -0.5149819             -14.0134
        57        2.0000           -0.5123243             -13.9411
        58        2.0000           -0.5093602             -13.8604
        59        2.0000           -0.5077389             -13.8163
        60        2.0000           -0.5056743             -13.7601
        61        2.0000           -0.4810937             -13.0912
        62        2.0000           -0.4783330             -13.0161
        63        2.0000           -0.4711461             -12.8205
        64        2.0000           -0.4616080             -12.5610
        65        2.0000           -0.4571922             -12.4408
        66        2.0000           -0.4410118             -12.0005
        67        2.0000           -0.4375539             -11.9064 (HOMO)
        68                         -0.3524349              -9.5902 (LUMO)
        69                         -0.3497293              -9.5166
        70                         -0.2791965              -7.5973
        71                         -0.2710899              -7.3767
        72                         -0.2683267              -7.3015
        73                         -0.2095024              -5.7009
        74                         -0.1620556              -4.4098
        75                         -0.1518022              -4.1307
        76                         -0.1498746              -4.0783
        77                         -0.1450953              -3.9482
        78                         -0.1369064              -3.7254
       ...                                ...                  ...
       144                          0.6965076              18.9529
      -------------------------------------------------------------
                  HL-Gap            0.0851191 Eh            2.3162 eV

Wiberg/Mayer (AO) data.
largest (>0.10) Wiberg bond orders for each atom

     #   Z sym  total        # sym  WBO       # sym  WBO       # sym  WBO
 ---------------------------------------------------------------------------
     1   6 C    3.896 --    28 H    0.978    26 H    0.972    27 H    0.967
                             2 N    0.910
     2   7 N    3.528 --     3 C    1.280    24 C    1.072     1 C    0.910
                            25 O    0.119
     3   6 C    3.885 --     8 N    1.368     2 N    1.280     4 C    0.968
     4   6 C    3.954 --     7 N    0.994     5 C    0.978     6 C    0.976
                             3 C    0.968
     5   6 C    3.987 --    30 H    0.979     4 C    0.978    31 H    0.978
                            29 H    0.977
     6   6 C    3.987 --    32 H    0.984    34 H    0.979    33 H    0.978
                             4 C    0.976
     7   7 N    2.976 --     4 C    0.994    36 H    0.935    35 H    0.929
     8   7 N    3.575 --     3 C    1.368    10 C    1.100     9 C    0.900
     9   6 C    3.891 --    39 H    0.977    37 H    0.975    38 H    0.967
                             8 N    0.900
    10   6 C    3.923 --    22 C    1.538     8 N    1.100    11 C    0.957
    11   6 C    3.919 --    12 O    1.578    13 N    1.307    10 C    0.957
    12   8 O    1.912 --    11 C    1.578    13 N    0.185
    13   7 N    3.387 --    11 C    1.307    14 C    0.938    40 H    0.891
                            12 O    0.185
    14   6 C    3.934 --    15 C    0.995    42 H    0.967    41 H    0.960
                            13 N    0.938
    15   6 C    3.988 --    16 C    1.423    21 C    1.410    14 C    0.995
    16   6 C    3.994 --    17 C    1.438    15 C    1.423    43 H    0.969
                            20 C    0.109
    17   6 C    3.992 --    16 C    1.438    18 C    1.405    44 H    0.969
                            21 C    0.112
    18   6 C    3.862 --    17 C    1.405    20 C    1.396    19 F    0.927
    19   9 F    1.056 --    18 C    0.927
    20   6 C    3.991 --    21 C    1.450    18 C    1.396    45 H    0.969
                            16 C    0.109
    21   6 C    3.994 --    20 C    1.450    15 C    1.410    46 H    0.971
                            17 C    0.112
    22   6 C    3.927 --    10 C    1.538    23 O    1.105    24 C    1.067
    23   8 O    2.090 --    22 C    1.105    47 H    0.789
    24   6 C    3.909 --    25 O    1.622     2 N    1.072    22 C    1.067
    25   8 O    1.954 --    24 C    1.622     2 N    0.119
    26   1 H    0.997 --     1 C    0.972
    27   1 H    0.999 --     1 C    0.967
    28   1 H    1.004 --     1 C    0.978
    29   1 H    1.000 --     5 C    0.977
    30   1 H    0.995 --     5 C    0.979
    31   1 H    1.001 --     5 C    0.978
    32   1 H    0.997 --     6 C    0.984
    33   1 H    0.998 --     6 C    0.978
    34   1 H    0.999 --     6 C    0.979
    35   1 H    0.944 --     7 N    0.929
    36   1 H    0.948 --     7 N    0.935
    37   1 H    1.000 --     9 C    0.975
    38   1 H    1.022 --     9 C    0.967
    39   1 H    1.018 --     9 C    0.977
    40   1 H    0.935 --    13 N    0.891
    41   1 H    1.008 --    14 C    0.960
    42   1 H    1.002 --    14 C    0.967
    43   1 H    1.010 --    16 C    0.969
    44   1 H    0.998 --    17 C    0.969
    45   1 H    0.997 --    20 C    0.969
    46   1 H    0.997 --    21 C    0.971
    47   1 H    0.824 --    23 O    0.789
 ---------------------------------------------------------------------------

           -------------------------------------------------
          | TOTAL ENERGY              -79.525251717459 Eh   |
          | GRADIENT NORM               0.000541059585 Eh/α |
          | HOMO-LUMO GAP               2.316207376621 eV   |
           -------------------------------------------------

 * finished run on 2023/06/20 at 15:20:07.412
