   * xtb version 6.5.1 (579679a) compiled by 'ehlert@majestix' on 2022-07-11
          program call               : /lustre/hpc/kemi/ree/PhD/git/ReactivityQM/dep/xtb-6.5.1/bin/xtb --gfn 1 /lustre/hpc/kemi/ree/PhD/git/ReactivityQM/calculations/RaltegravirCLI/reac01prodN07/conf09/RaltegravirCLI_reac01prodN07_conf09_gfn1.xyz --opt --vfukui --chrg 1 --uhf 0 --alpb DMSO

   ID    Z sym.   atoms
    1    6 C      1, 3, 5, 8, 9
    2    8 O      2, 10
    3   17 Cl     4
    4    7 N      6, 7
    5    1 H      11-16

      * Solvation model:               ALPB
        Solvent                        DMSO
        Solvent mass                       7.8130E+01 g/mol
          :  Hamiltonian                  GFN1-xTB          :
 * total energy  :   -33.4078041 Eh     change       -0.3673506E-11 Eh
 * total energy  :   -33.4156166 Eh     change       -0.7812484E-02 Eh
 * total energy  :   -33.4177854 Eh     change       -0.2168863E-02 Eh
 * total energy  :   -33.4180727 Eh     change       -0.2872781E-03 Eh
 * total energy  :   -33.4182541 Eh     change       -0.1813523E-03 Eh
 * total energy  :   -33.4182754 Eh     change       -0.2130476E-04 Eh
 * total energy  :   -33.4182840 Eh     change       -0.8672540E-05 Eh
 * total energy  :   -33.4182856 Eh     change       -0.1559428E-05 Eh
   *** GEOMETRY OPTIMIZATION CONVERGED AFTER 8 ITERATIONS ***

 final structure:
================
16
 xtb: 6.5.1 (579679a)
C            2.99436711431215        0.85519348951455       -0.20272774785604
O            2.51129099660501       -0.41010896252759       -0.68540433791051
C            1.28443773665290       -0.77809902905478       -0.67748879037086
Cl           0.96168235390043       -2.29020233976199       -1.28998574491071
C            0.22930531411185        0.03379091410027       -0.18188610495862
N            0.28510812247386        1.25101157120311        0.33012940987879
N           -0.94984233574083        1.60223213690634        0.64871206611579
C           -1.74001779146806        0.59297059923315        0.32707290951407
C           -3.19662305589394        0.50566890202833        0.50669040488171
O           -1.04717322305580       -0.40904116891896       -0.19575263873247
H            2.73756744449898        0.96501674634226        0.85150197478484
H            4.07226908036798        0.82802747680478       -0.34796587179285
H            2.53637661899742        1.66168005201124       -0.77659927064306
H           -3.41199966948775        0.01036341348432        1.45641450551522
H           -3.63009778006847        1.50350016255190        0.52889419289170
H           -3.63664992620574       -0.08931296391690       -0.29160395640699

          :  Hamiltonian                  GFN1-xTB          :
         :: total energy             -33.418285599987 Eh    ::
         :: gradient norm              0.000449828551 Eh/a0 ::
         :: HOMO-LUMO gap              2.433953747788 eV    ::
         :: SCC energy               -33.695126462416 Eh    ::
         :: -> Gsolv                  -0.078381443525 Eh    ::
         :: repulsion energy           0.283948043877 Eh    ::

    * Orbital Energies and Occupations

         #    Occupation            Energy/Eh            Energy/eV
      -------------------------------------------------------------
         1        2.0000           -1.0162049             -27.6523
       ...           ...                  ...                  ...
        15        2.0000           -0.6383659             -17.3708
        16        2.0000           -0.5978602             -16.2686
        17        2.0000           -0.5843904             -15.9021
        18        2.0000           -0.5827475             -15.8574
        19        2.0000           -0.5727328             -15.5849
        20        2.0000           -0.5628030             -15.3146
        21        2.0000           -0.5610318             -15.2665
        22        2.0000           -0.5598169             -15.2334
        23        2.0000           -0.5375681             -14.6280
        24        2.0000           -0.5341919             -14.5361
        25        2.0000           -0.5254957             -14.2995
        26        2.0000           -0.5047049             -13.7337
        27        2.0000           -0.5013428             -13.6422 (HOMO)
        28                         -0.4118966             -11.2083 (LUMO)
        29                         -0.3066913              -8.3455
        30                         -0.2849409              -7.7536
        31                         -0.2644163              -7.1951
        32                         -0.1703921              -4.6366
        33                         -0.1620448              -4.4095
        34                         -0.1403320              -3.8186
        35                         -0.1402397              -3.8161
        36                         -0.1389197              -3.7802
        37                         -0.1103016              -3.0015
        38                         -0.1007080              -2.7404
       ...                                ...                  ...
        57                          0.5362505              14.5921
      -------------------------------------------------------------
                  HL-Gap            0.0894462 Eh            2.4340 eV

Wiberg/Mayer (AO) data.
largest (>0.10) Wiberg bond orders for each atom

     #   Z sym  total        # sym  WBO       # sym  WBO       # sym  WBO
 ---------------------------------------------------------------------------
     1   6 C    3.809 --    12 H    0.977    11 H    0.964    13 H    0.964
                             2 O    0.842
     2   8 O    2.343 --     3 C    1.300     1 C    0.842
     3   6 C    3.886 --     2 O    1.300     4 Cl   1.228     5 C    1.182
     4  17 Cl   1.461 --     3 C    1.228
     5   6 C    3.887 --     6 N    1.449     3 C    1.182    10 O    1.040
     6   7 N    3.042 --     5 C    1.449     7 N    1.341
     7   7 N    2.999 --     8 C    1.454     6 N    1.341
     8   6 C    3.843 --     7 N    1.454    10 O    1.131     9 C    1.050
     9   6 C    3.971 --     8 C    1.050    15 H    0.970    16 H    0.965
                            14 H    0.933
    10   8 O    2.353 --     8 C    1.131     5 C    1.040
    11   1 H    1.003 --     1 C    0.964
    12   1 H    0.998 --     1 C    0.977
    13   1 H    1.003 --     1 C    0.964
    14   1 H    0.985 --     9 C    0.933
    15   1 H    0.990 --     9 C    0.970
    16   1 H    0.989 --     9 C    0.965
 ---------------------------------------------------------------------------

           -------------------------------------------------
          | TOTAL ENERGY              -33.418285599987 Eh   |
          | GRADIENT NORM               0.000449828551 Eh/α |
          | HOMO-LUMO GAP               2.433953747788 eV   |
           -------------------------------------------------

 * finished run on 2023/06/20 at 14:55:32.282
