   * xtb version 6.5.1 (579679a) compiled by 'ehlert@majestix' on 2022-07-11
          program call               : /lustre/hpc/kemi/ree/PhD/git/ReactivityQM/dep/xtb-6.5.1/bin/xtb --gfn 1 /lustre/hpc/kemi/ree/PhD/git/ReactivityQM/calculations/R02oxygendeprot/reac01prodN19/conf13/R02oxygendeprot_reac01prodN19_conf13_gfn1.xyz --opt --vfukui --chrg 0 --uhf 0 --alpb DMSO

   ID    Z sym.   atoms
    1    6 C      1, 3, 5, 7-10, 12, 14, 17, 18, 21, 23, 24
    2    8 O      2, 4, 13, 19, 22, 25
    3    7 N      6, 11, 15, 16, 20
    4    1 H      26-42

      * Solvation model:               ALPB
        Solvent                        DMSO
        Solvent mass                       7.8130E+01 g/mol
          :  Hamiltonian                  GFN1-xTB          :
 * total energy  :   -82.9812544 Eh     change       -0.4740741E-10 Eh
 * total energy  :   -82.9933418 Eh     change       -0.1208739E-01 Eh
 * total energy  :   -82.9981997 Eh     change       -0.4857936E-02 Eh
 * total energy  :   -82.9991994 Eh     change       -0.9997324E-03 Eh
 * total energy  :   -83.0000003 Eh     change       -0.8008481E-03 Eh
 * total energy  :   -83.0004053 Eh     change       -0.4050528E-03 Eh
 * total energy  :   -83.0007848 Eh     change       -0.3794787E-03 Eh
 * total energy  :   -83.0011473 Eh     change       -0.3625160E-03 Eh
 * total energy  :   -83.0014193 Eh     change       -0.2719282E-03 Eh
 * total energy  :   -83.0015953 Eh     change       -0.1760294E-03 Eh
 * total energy  :   -83.0029316 Eh     change       -0.1738523E-04 Eh
 * total energy  :   -83.0029622 Eh     change       -0.3065587E-04 Eh
 * total energy  :   -83.0029849 Eh     change       -0.2265134E-04 Eh
 * total energy  :   -83.0029983 Eh     change       -0.1345457E-04 Eh
 * total energy  :   -83.0030096 Eh     change       -0.1126930E-04 Eh
 * total energy  :   -83.0030221 Eh     change       -0.1250512E-04 Eh
 * total energy  :   -83.0030258 Eh     change       -0.3753825E-05 Eh
 * total energy  :   -83.0030287 Eh     change       -0.2849111E-05 Eh
 * total energy  :   -83.0030321 Eh     change       -0.3453414E-05 Eh
   *** GEOMETRY OPTIMIZATION CONVERGED AFTER 43 ITERATIONS ***

 final structure:
================
42
 xtb: 6.5.1 (579679a)
C           -4.57183409717454        3.77425389135085       -0.55130753390587
O           -3.66907829263556        2.69921111086086       -0.29528039672004
C           -4.09065343436160        1.47204633584446       -0.65959896723555
O           -5.17074278417626        1.29272050932101       -1.18055661708848
C           -3.09486437076838        0.42664180696948       -0.34546792335757
N           -1.95778257445276        0.86087281672217        0.25068767222465
C           -1.01456283507814        0.03973496161683        0.57614149732904
C            0.22949522521720        0.51438285750933        1.29926283386245
C            0.28416227904741       -0.08692749181531        2.71097529786220
C            0.21183351889023        2.04135611749644        1.36928282375373
N            1.44758889743405        0.13536029666639        0.55727325396969
C            1.94154105264298       -1.10572262398706        0.41940129958092
O            1.36467839005300       -2.14736762718957        0.72722136046408
C            3.29067124086633       -1.12689677697808       -0.18486889805233
N            4.00801059677563       -2.16269995564524       -0.49390973289303
N            5.18012385495158       -1.69269540251845       -0.99952918715308
C            5.11031217077793       -0.39720404444277       -0.96699794086814
C            6.13401357665653        0.57767121534616       -1.39993206719675
O            3.93877893191477        0.02520344050670       -0.46433415174068
N           -1.14969249471107       -1.30594408418984        0.33350394049168
C           -2.21651379334580       -1.82136596917632       -0.25457396646758
O           -2.29581972248618       -3.11415151040944       -0.49559530083540
C           -1.24128502823196       -4.00427823713577       -0.12778286391323
C           -3.34250901516780       -0.94962066669471       -0.65512130101407
O           -4.34672287043036       -1.42372837788860       -1.19392502616333
H           -4.80973096943050        3.82643177119121       -1.61751266785377
H           -5.49622622327866        3.63751791865799        0.01691187173521
H           -4.06984716526480        4.68661239946483       -0.23475428122672
H            1.18876043911128        0.24907292276065        3.21440239810520
H           -0.58400853254086        0.24491648036764        3.27815334567388
H            0.28553843401725       -1.17423665836080        2.67151327422225
H           -0.67622648616514        2.37075801782298        1.90653337374718
H            1.09691260921693        2.40118626266453        1.88913340152403
H            0.18687276013424        2.46314153439065        0.36564246865470
H            2.05146655297490        0.89813836797847        0.29185907395436
H            6.39648320844870        1.23195973638388       -0.56885000646763
H            5.73977847509685        1.19891369363601       -2.20423549590677
H            7.02013598434550        0.05019992280894       -1.74562370231743
H           -0.34611943505379       -1.89268911645595        0.58268454076147
H           -1.55986760061399       -4.99467646713088       -0.44857404263080
H           -0.31182237916474       -3.72731802732293       -0.63043240109066
H           -1.09124609404022       -3.99078335100167        0.95391974419115

          :  Hamiltonian                  GFN1-xTB          :
         :: total energy             -83.003032145387 Eh    ::
         :: gradient norm              0.000455484288 Eh/a0 ::
         :: HOMO-LUMO gap              2.304800385335 eV    ::
         :: SCC energy               -83.778576150043 Eh    ::
         :: -> Gsolv                  -0.069330561326 Eh    ::
         :: repulsion energy           0.801221811269 Eh    ::

    * Orbital Energies and Occupations

         #    Occupation            Energy/Eh            Energy/eV
      -------------------------------------------------------------
         1        2.0000           -0.8699207             -23.6717
       ...           ...                  ...                  ...
        55        2.0000           -0.5049610             -13.7407
        56        2.0000           -0.5046894             -13.7333
        57        2.0000           -0.4910825             -13.3630
        58        2.0000           -0.4851670             -13.2021
        59        2.0000           -0.4845759             -13.1860
        60        2.0000           -0.4754037             -12.9364
        61        2.0000           -0.4720945             -12.8463
        62        2.0000           -0.4682179             -12.7409
        63        2.0000           -0.4639141             -12.6237
        64        2.0000           -0.4570931             -12.4381
        65        2.0000           -0.4536216             -12.3437
        66        2.0000           -0.4188007             -11.3961
        67        2.0000           -0.4093681             -11.1395 (HOMO)
        68                         -0.3246682              -8.8347 (LUMO)
        69                         -0.3199732              -8.7069
        70                         -0.2786751              -7.5831
        71                         -0.2604068              -7.0860
        72                         -0.2369074              -6.4466
        73                         -0.2078428              -5.6557
        74                         -0.1492426              -4.0611
        75                         -0.1461117              -3.9759
        76                         -0.1431879              -3.8963
        77                         -0.1324045              -3.6029
        78                         -0.1305508              -3.5525
       ...                                ...                  ...
       134                          0.7319575              19.9176
      -------------------------------------------------------------
                  HL-Gap            0.0846999 Eh            2.3048 eV

Wiberg/Mayer (AO) data.
largest (>0.10) Wiberg bond orders for each atom

     #   Z sym  total        # sym  WBO       # sym  WBO       # sym  WBO
 ---------------------------------------------------------------------------
     1   6 C    3.882 --    28 H    0.986    27 H    0.980    26 H    0.980
                             2 O    0.908
     2   8 O    2.174 --     3 C    1.077     1 C    0.908     4 O    0.125
     3   6 C    3.852 --     4 O    1.640     2 O    1.077     5 C    1.043
     4   8 O    1.908 --     3 C    1.640     2 O    0.125
     5   6 C    3.944 --     6 N    1.271    24 C    1.213     3 C    1.043
                            25 O    0.129
     6   7 N    3.044 --     7 C    1.552     5 C    1.271
     7   6 C    3.917 --     6 N    1.552    20 N    1.118     8 C    0.977
     8   6 C    3.931 --    10 C    1.002     9 C    0.981     7 C    0.977
                            11 N    0.910
     9   6 C    3.986 --    30 H    0.984    29 H    0.983     8 C    0.981
                            31 H    0.980
    10   6 C    3.990 --     8 C    1.002    33 H    0.985    34 H    0.983
                            32 H    0.982
    11   7 N    3.361 --    12 C    1.290     8 C    0.910    35 H    0.890
                            13 O    0.171
    12   6 C    3.914 --    13 O    1.528    11 N    1.290    14 C    1.005
    13   8 O    1.923 --    12 C    1.528    11 N    0.171
    14   6 C    3.875 --    15 N    1.616    19 O    1.046    12 C    1.005
    15   7 N    3.002 --    14 C    1.616    16 N    1.205
    16   7 N    2.982 --    17 C    1.604    15 N    1.205
    17   6 C    3.866 --    16 N    1.604    19 O    1.074    18 C    1.033
    18   6 C    3.985 --    17 C    1.033    38 H    0.982    36 H    0.962
                            37 H    0.961
    19   8 O    2.318 --    17 C    1.074    14 C    1.046
    20   7 N    3.523 --    21 C    1.350     7 C    1.118    39 H    0.814
    21   6 C    3.860 --    20 N    1.350    22 O    1.149    24 C    1.042
    22   8 O    2.232 --    21 C    1.149    23 C    0.890
    23   6 C    3.864 --    40 H    0.981    42 H    0.977    41 H    0.975
                            22 O    0.890
    24   6 C    3.948 --    25 O    1.539     5 C    1.213    21 C    1.042
    25   8 O    1.852 --    24 C    1.539     5 C    0.129
    26   1 H    1.010 --     1 C    0.980
    27   1 H    1.009 --     1 C    0.980
    28   1 H    1.013 --     1 C    0.986
    29   1 H    0.999 --     9 C    0.983
    30   1 H    1.000 --     9 C    0.984
    31   1 H    1.005 --     9 C    0.980
    32   1 H    1.007 --    10 C    0.982
    33   1 H    0.998 --    10 C    0.985
    34   1 H    1.003 --    10 C    0.983
    35   1 H    0.934 --    11 N    0.890
    36   1 H    0.996 --    18 C    0.962
    37   1 H    0.996 --    18 C    0.961
    38   1 H    0.998 --    18 C    0.982
    39   1 H    0.923 --    20 N    0.814
    40   1 H    1.008 --    23 C    0.981
    41   1 H    1.006 --    23 C    0.975
    42   1 H    1.000 --    23 C    0.977
 ---------------------------------------------------------------------------

           -------------------------------------------------
          | TOTAL ENERGY              -83.003032145387 Eh   |
          | GRADIENT NORM               0.000455484288 Eh/α |
          | HOMO-LUMO GAP               2.304800385335 eV   |
           -------------------------------------------------

 * finished run on 2023/06/21 at 17:40:04.944
