   * xtb version 6.5.1 (579679a) compiled by 'ehlert@majestix' on 2022-07-11
          program call               : /lustre/hpc/kemi/ree/PhD/git/ReactivityQM/dep/xtb-6.5.1/bin/xtb --gfn 1 /lustre/hpc/kemi/ree/PhD/git/ReactivityQM/calculations/R02oxygendeprot/reac01prodE13/conf15/R02oxygendeprot_reac01prodE13_conf15_gfn1.xyz --opt --vfukui --chrg -2 --uhf 0 --alpb DMSO

   ID    Z sym.   atoms
    1    6 C      1, 3, 5, 6, 8, 10, 12-15, 17, 19, 22, 23
    2    8 O      2, 4, 7, 9, 18, 24
    3    7 N      11, 16, 20, 21, 25
    4    1 H      26-42

      * Solvation model:               ALPB
        Solvent                        DMSO
        Solvent mass                       7.8130E+01 g/mol
          :  Hamiltonian                  GFN1-xTB          :
 * total energy  :   -83.5664919 Eh     change       -0.2884804E-10 Eh
 * total energy  :   -83.5798008 Eh     change       -0.1330895E-01 Eh
 * total energy  :   -83.5849148 Eh     change       -0.5113934E-02 Eh
 * total energy  :   -83.5858337 Eh     change       -0.9189480E-03 Eh
 * total energy  :   -83.5863740 Eh     change       -0.5402640E-03 Eh
 * total energy  :   -83.5866186 Eh     change       -0.2446626E-03 Eh
 * total energy  :   -83.5868444 Eh     change       -0.2257999E-03 Eh
 * total energy  :   -83.5870254 Eh     change       -0.1809342E-03 Eh
 * total energy  :   -83.5872023 Eh     change       -0.1768822E-03 Eh
 * total energy  :   -83.5874288 Eh     change       -0.2265143E-03 Eh
 * total energy  :   -83.5934395 Eh     change       -0.2686967E-04 Eh
 * total energy  :   -83.5934580 Eh     change       -0.1848124E-04 Eh
 * total energy  :   -83.5934744 Eh     change       -0.1641577E-04 Eh
 * total energy  :   -83.5934751 Eh     change       -0.7150293E-06 Eh
 * total energy  :   -83.5934849 Eh     change       -0.9760148E-05 Eh
 * total energy  :   -83.5934989 Eh     change       -0.1404409E-04 Eh
 * total energy  :   -83.5935042 Eh     change       -0.5280453E-05 Eh
 * total energy  :   -83.5935104 Eh     change       -0.6175718E-05 Eh
 * total energy  :   -83.5935134 Eh     change       -0.2985630E-05 Eh
   *** GEOMETRY OPTIMIZATION CONVERGED AFTER 76 ITERATIONS ***

 final structure:
================
42
 xtb: 6.5.1 (579679a)
C           -1.57921004662074       -3.49047824792263        2.12331922591055
O           -1.44939233009372       -2.29982880340282        1.38072659037331
C           -2.68035164069934       -1.73585096320959        0.95159999317139
O           -3.72828575368456       -2.32984290275165        1.27126046793633
C           -2.51097519488338       -0.55335315986332        0.20988846590647
C           -3.64272515006975        0.21904161433876       -0.35262499769845
O           -4.85763011656605       -0.12734005621254       -0.21905188574317
C           -3.25879048499515        1.35816781153537       -1.06552547646211
O           -4.12484627862573        2.24004078507564       -1.71214812120241
C           -5.08163639277215        2.88889876608364       -0.88377794260890
N           -1.90964432438057        1.76958408088765       -1.13680441239668
C           -0.92742057115285        0.95416063689632       -0.63569101966880
C            0.51362860970816        1.40216722685313       -0.84382754179601
C            0.83837675341608        1.41189513874911       -2.34995855375489
C            0.71859796760577        2.80337769974643       -0.24372950620753
N            1.35444202522948        0.44402837803614       -0.14502168252216
C            2.72984956129028        0.43778537282470       -0.21715603013465
O            3.39863427932246        1.38514855943401       -0.68347733758526
C            3.29138893887113       -0.75951963844441        0.34655210016767
N            2.61570147766140       -1.79702993860528        0.83860824197509
N            3.54879490029044       -2.70888481754211        1.24936114425565
C            4.71334166867348       -2.20759921126991        0.99800484705926
C            6.03417001687245       -2.82588841497827        1.27199416521480
O            4.65040778019373       -0.98097924200773        0.42791214572041
N           -1.18829892007979       -0.12769584499784        0.00342307972473
H           -2.06157032736403       -4.28387039825681        1.53578044719587
H           -0.57544127221621       -3.81805254339158        2.40324338029643
H           -2.17006541189076       -3.33594976711323        3.03650325779118
H           -5.78637689768687        2.16635781314992       -0.45048084006805
H           -5.62899713166094        3.58943151986538       -1.51766452066261
H           -4.59531443005444        3.44686722189795       -0.07283353059158
H           -1.69763919397998        2.54746171487233       -1.73369997836151
H            1.85720589969412        1.75851159825427       -2.51626677271606
H            0.15597908742688        2.07944690841583       -2.87308627832951
H            0.73295858387435        0.40791790535178       -2.76113029775380
H            0.49557317523861        2.78668220747223        0.82324386497281
H            0.06056118304209        3.52104118515016       -0.73007183039461
H            1.74915544146605        3.12560141289977       -0.38501118053094
H            0.88859115138103       -0.42382696822228        0.12128062756017
H            5.89196833159741       -3.82589040349307        1.67465811001453
H            6.62268283604946       -2.88525859659086        0.35649506634384
H            6.59260020058419       -2.22647663950789        1.99173251560205

          :  Hamiltonian                  GFN1-xTB          :
         :: total energy             -83.593513370288 Eh    ::
         :: gradient norm              0.000437364108 Eh/a0 ::
         :: HOMO-LUMO gap              0.048211841707 eV    ::
         :: SCC energy               -84.321274107873 Eh    ::
         :: -> Gsolv                  -0.280786034118 Eh    ::
         :: repulsion energy           0.752871426097 Eh    ::

    * Orbital Energies and Occupations

         #    Occupation            Energy/Eh            Energy/eV
      -------------------------------------------------------------
         1        2.0000           -0.8052773             -21.9127
       ...           ...                  ...                  ...
        56        2.0000           -0.4329735             -11.7818
        57        2.0000           -0.4311068             -11.7310
        58        2.0000           -0.4258439             -11.5878
        59        2.0000           -0.4100547             -11.1582
        60        2.0000           -0.4072791             -11.0826
        61        2.0000           -0.4063497             -11.0573
        62        2.0000           -0.3985483             -10.8451
        63        2.0000           -0.3905976             -10.6287
        64        2.0000           -0.3890701             -10.5871
        65        2.0000           -0.3840791             -10.4513
        66        2.0000           -0.3397982              -9.2464
        67        2.0000           -0.3344776              -9.1016
        68        1.4351           -0.2676569              -7.2833 (HOMO)
        69        0.5649           -0.2658852              -7.2351 (LUMO)
        70                         -0.2128977              -5.7932
        71                         -0.1999966              -5.4422
        72                         -0.1616134              -4.3977
        73                         -0.1413112              -3.8453
        74                         -0.1260431              -3.4298
        75                         -0.1069576              -2.9105
        76                         -0.1057302              -2.8771
        77                         -0.1052661              -2.8644
        78                         -0.0983164              -2.6753
        79                         -0.0738742              -2.0102
       ...                                ...                  ...
       134                          0.7344861              19.9864
      -------------------------------------------------------------
                  HL-Gap            0.0017718 Eh            0.0482 eV

Wiberg/Mayer (AO) data.
largest (>0.10) Wiberg bond orders for each atom

     #   Z sym  total        # sym  WBO       # sym  WBO       # sym  WBO
 ---------------------------------------------------------------------------
     1   6 C    3.925 --    27 H    0.986    26 H    0.980    28 H    0.980
                             2 O    0.959
     2   8 O    2.046 --     1 C    0.959     3 C    0.916
     3   6 C    3.788 --     4 O    1.457     5 C    1.309     2 O    0.916
     4   8 O    1.716 --     3 C    1.457     5 C    0.100
     5   6 C    3.757 --     3 C    1.309    25 N    1.098     6 C    1.066
                             4 O    0.100
     6   6 C    3.925 --     7 O    1.390     8 C    1.345     5 C    1.066
     7   8 O    1.684 --     6 C    1.390     8 C    0.120
     8   6 C    3.525 --     6 C    1.345    11 N    1.001     9 O    0.947
                             7 O    0.120
     9   8 O    2.007 --     8 C    0.947    10 C    0.935
    10   6 C    3.911 --    30 H    0.987    31 H    0.983    29 H    0.979
                             9 O    0.935
    11   7 N    3.239 --    12 C    1.128     8 C    1.001    32 H    0.911
                            25 N    0.109
    12   6 C    3.930 --    25 N    1.617    11 N    1.128    13 C    0.973
    13   6 C    3.951 --    15 C    0.985    14 C    0.980    12 C    0.973
                            16 N    0.950
    14   6 C    3.990 --    35 H    0.987    34 H    0.985    33 H    0.981
                            13 C    0.980
    15   6 C    3.991 --    36 H    0.987    37 H    0.986    13 C    0.985
                            38 H    0.981
    16   7 N    3.203 --    17 C    1.143    13 C    0.950    39 H    0.892
                            18 O    0.127
    17   6 C    3.780 --    18 O    1.445    16 N    1.143    19 C    1.123
    18   8 O    1.703 --    17 C    1.445    16 N    0.127
    19   6 C    3.693 --    20 N    1.419    17 C    1.123    24 O    0.982
    20   7 N    2.767 --    19 C    1.419    21 N    1.186
    21   7 N    2.981 --    22 C    1.628    20 N    1.186
    22   6 C    3.822 --    21 N    1.628    24 O    1.051    23 C    1.024
    23   6 C    3.994 --    22 C    1.024    40 H    0.985    41 H    0.972
                            42 H    0.970
    24   8 O    2.191 --    22 C    1.051    19 C    0.982
    25   7 N    2.984 --    12 C    1.617     5 C    1.098    11 N    0.109
    26   1 H    1.022 --     1 C    0.980
    27   1 H    1.021 --     1 C    0.986
    28   1 H    1.023 --     1 C    0.980
    29   1 H    1.037 --    10 C    0.979
    30   1 H    1.020 --    10 C    0.987
    31   1 H    1.015 --    10 C    0.983
    32   1 H    0.961 --    11 N    0.911
    33   1 H    1.016 --    14 C    0.981
    34   1 H    1.006 --    14 C    0.985
    35   1 H    1.008 --    14 C    0.987
    36   1 H    1.009 --    15 C    0.987
    37   1 H    1.006 --    15 C    0.986
    38   1 H    1.019 --    15 C    0.981
    39   1 H    0.996 --    16 N    0.892
    40   1 H    1.004 --    23 C    0.985
    41   1 H    1.001 --    23 C    0.972
    42   1 H    1.001 --    23 C    0.970
 ---------------------------------------------------------------------------

           -------------------------------------------------
          | TOTAL ENERGY              -83.593513370288 Eh   |
          | GRADIENT NORM               0.000437364108 Eh/α |
          | HOMO-LUMO GAP               0.048211841707 eV   |
           -------------------------------------------------

 * finished run on 2023/06/21 at 17:14:37.515
