   * xtb version 6.5.1 (579679a) compiled by 'ehlert@majestix' on 2022-07-11
          program call               : /lustre/hpc/kemi/ree/PhD/git/ReactivityQM/dep/xtb-6.5.1/bin/xtb --gfn 1 /lustre/hpc/kemi/ree/PhD/git/ReactivityQM/calculations/R02deprot/reac01prodE11/conf16/R02deprot_reac01prodE11_conf16_gfn1.xyz --opt --vfukui --chrg -2 --uhf 0 --alpb DMSO

   ID    Z sym.   atoms
    1    6 C      1, 3, 5, 7-10, 12, 14, 17-19, 22, 24
    2    8 O      2, 4, 13, 20, 23, 25
    3    7 N      6, 11, 15, 16, 21
    4    1 H      26-42

      * Solvation model:               ALPB
        Solvent                        DMSO
        Solvent mass                       7.8130E+01 g/mol
          :  Hamiltonian                  GFN1-xTB          :
 * total energy  :   -83.6404890 Eh     change       -0.2978595E-10 Eh
 * total energy  :   -83.6513022 Eh     change       -0.1081322E-01 Eh
 * total energy  :   -83.6542605 Eh     change       -0.2958286E-02 Eh
 * total energy  :   -83.6546703 Eh     change       -0.4098501E-03 Eh
 * total energy  :   -83.6549575 Eh     change       -0.2871674E-03 Eh
 * total energy  :   -83.6550785 Eh     change       -0.1210145E-03 Eh
 * total energy  :   -83.6552127 Eh     change       -0.1341821E-03 Eh
 * total energy  :   -83.6553219 Eh     change       -0.1092504E-03 Eh
 * total energy  :   -83.6554141 Eh     change       -0.9212759E-04 Eh
 * total energy  :   -83.6554844 Eh     change       -0.7029862E-04 Eh
 * total energy  :   -83.6561582 Eh     change       -0.9406707E-05 Eh
 * total energy  :   -83.6561716 Eh     change       -0.1349276E-04 Eh
 * total energy  :   -83.6561841 Eh     change       -0.1241322E-04 Eh
 * total energy  :   -83.6561928 Eh     change       -0.8731967E-05 Eh
 * total energy  :   -83.6561993 Eh     change       -0.6535605E-05 Eh
 * total energy  :   -83.6562048 Eh     change       -0.5486038E-05 Eh
 * total energy  :   -83.6562104 Eh     change       -0.5556915E-05 Eh
 * total energy  :   -83.6562154 Eh     change       -0.5051037E-05 Eh
 * total energy  :   -83.6562200 Eh     change       -0.4552153E-05 Eh
   *** GEOMETRY OPTIMIZATION CONVERGED AFTER 52 ITERATIONS ***

 final structure:
================
42
 xtb: 6.5.1 (579679a)
C           -6.98927308117661       -1.00118729623601       -0.07411533266646
O           -5.70922976094647       -0.67665116362371        0.45588298833894
C           -4.74809178867970       -0.39270458486183       -0.44403102561686
O           -4.97481420997958       -0.40355874339590       -1.63984583485416
C           -3.43523940793216       -0.08684563552646        0.16275609070392
N           -2.43491933283520        0.15905297066734       -0.73810386299628
C           -1.22858116190920        0.41147453529194       -0.26924975949655
C           -0.16430216300629        0.69387619713568       -1.32884852274892
C           -0.49782068245718        2.05666083648877       -1.96245738655814
C           -0.21687573184139       -0.41530393015851       -2.39602104357789
N            1.13974415014225        0.74071553451674       -0.68514528631521
C            2.32042210443591        0.82837089990760       -1.40949728574043
O            2.34565322538281        1.25167920801706       -2.58879115412524
C            3.48197233110749        0.44786706073980       -0.68823694593599
N            4.73108878395198        0.46644762573734       -1.12268469651145
N            5.55351498079229        0.00150791127291       -0.22318074606112
C            4.75174369139252       -0.38406201787264        0.94940656582652
C            4.90279359330436       -1.89505451966115        1.20405679432984
C            5.20712551549113        0.41974503708651        2.18001901612337
O            3.40544761619421       -0.06982956710971        0.62428167016751
N           -0.86284280431364        0.47363521845519        1.01091533685988
C           -1.79959154619352        0.26486397787065        1.96159317670135
O           -1.58347856625303        0.31360530956775        3.19212317561372
C           -3.15752321484107       -0.03851312995721        1.50440022036035
O           -4.05279071241062       -0.25199688892317        2.49890671851574
H           -6.92669896591254       -1.89059421527321       -0.70769068235670
H           -7.64382543129741       -1.19475853910692        0.77372632435361
H           -7.38194243510247       -0.17016514232322       -0.66694976323867
H           -1.51886538915801        2.03754510556454       -2.34349103486500
H            0.18310079603426        2.27853607945311       -2.78314948479075
H           -0.41632261519034        2.84284027211822       -1.21153279841072
H            0.06698982795186       -1.37112233050086       -1.95527571085280
H            0.45928826043168       -0.18944233752979       -3.21977569605067
H           -1.23277014630922       -0.49548871051333       -2.78238139057015
H            1.19217603705931        0.24160675419870        0.19705827367322
H            4.57048742913172       -2.44327061612063        0.32373472369981
H            4.30368684993497       -2.19954337755869        2.06072009683161
H            5.94806976358714       -2.13010256812269        1.39349971541645
H            6.26058123994208        0.22647789526199        2.37131752882262
H            5.07112495750239        1.48305160310100        1.98765563292893
H            4.62508742445307        0.13817599739926        3.05605877561494
H           -3.54429543047457       -0.14433071547366        3.33234361945139

          :  Hamiltonian                  GFN1-xTB          :
         :: total energy             -83.656219975656 Eh    ::
         :: gradient norm              0.000397578841 Eh/a0 ::
         :: HOMO-LUMO gap              0.928069165878 eV    ::
         :: SCC energy               -84.386996521796 Eh    ::
         :: -> Gsolv                  -0.258683718207 Eh    ::
         :: repulsion energy           0.755994338735 Eh    ::

    * Orbital Energies and Occupations

         #    Occupation            Energy/Eh            Energy/eV
      -------------------------------------------------------------
         1        2.0000           -0.8103173             -22.0499
       ...           ...                  ...                  ...
        56        2.0000           -0.4442610             -12.0890
        57        2.0000           -0.4386251             -11.9356
        58        2.0000           -0.4256126             -11.5815
        59        2.0000           -0.4226939             -11.5021
        60        2.0000           -0.4095232             -11.1437
        61        2.0000           -0.4019029             -10.9363
        62        2.0000           -0.3925615             -10.6821
        63        2.0000           -0.3879928             -10.5578
        64        2.0000           -0.3780324             -10.2868
        65        2.0000           -0.3626726              -9.8688
        66        2.0000           -0.3608652              -9.8196
        67        2.0000           -0.3594154              -9.7802
        68        2.0000           -0.3037734              -8.2661 (HOMO)
        69                         -0.2696675              -7.3380 (LUMO)
        70                         -0.2255238              -6.1368
        71                         -0.2163553              -5.8873
        72                         -0.1819430              -4.9509
        73                         -0.1256375              -3.4188
        74                         -0.1145825              -3.1179
        75                         -0.0993236              -2.7027
        76                         -0.0963352              -2.6214
        77                         -0.0932508              -2.5375
        78                         -0.0902419              -2.4556
        79                         -0.0880142              -2.3950
       ...                                ...                  ...
       134                          0.7451999              20.2779
      -------------------------------------------------------------
                  HL-Gap            0.0341059 Eh            0.9281 eV

Wiberg/Mayer (AO) data.
largest (>0.10) Wiberg bond orders for each atom

     #   Z sym  total        # sym  WBO       # sym  WBO       # sym  WBO
 ---------------------------------------------------------------------------
     1   6 C    3.891 --    27 H    0.987    26 H    0.980    28 H    0.980
                             2 O    0.916
     2   8 O    2.179 --     3 C    1.076     1 C    0.916     4 O    0.121
     3   6 C    3.835 --     4 O    1.629     2 O    1.076     5 C    1.032
     4   8 O    1.891 --     3 C    1.629     2 O    0.121
     5   6 C    3.964 --    24 C    1.473     6 N    1.207     3 C    1.032
     6   7 N    2.995 --     7 C    1.456     5 C    1.207
     7   6 C    3.953 --     6 N    1.456    21 N    1.363     8 C    0.973
     8   6 C    3.955 --    10 C    0.982     9 C    0.981     7 C    0.973
                            11 N    0.954
     9   6 C    3.994 --    29 H    0.987    31 H    0.987    30 H    0.982
                             8 C    0.981
    10   6 C    3.994 --    32 H    0.987    34 H    0.985    33 H    0.984
                             8 C    0.982
    11   7 N    3.234 --    12 C    1.119     8 C    0.954    35 H    0.906
                            13 O    0.111
    12   6 C    3.926 --    13 O    1.435    14 C    1.204    11 N    1.119
    13   8 O    1.769 --    12 C    1.435    11 N    0.111
    14   6 C    3.843 --    15 N    1.420    12 C    1.204    20 O    0.920
                            16 N    0.167
    15   7 N    3.022 --    16 N    1.443    14 C    1.420
    16   7 N    2.857 --    15 N    1.443    17 C    0.983    14 C    0.167
    17   6 C    3.901 --    16 N    0.983    19 C    0.977    18 C    0.976
                            20 O    0.925
    18   6 C    3.994 --    38 H    0.988    37 H    0.987    36 H    0.986
                            17 C    0.976
    19   6 C    3.994 --    39 H    0.988    41 H    0.987    40 H    0.986
                            17 C    0.977
    20   8 O    2.053 --    17 C    0.925    14 C    0.920
    21   7 N    2.994 --     7 C    1.363    22 C    1.260    23 O    0.124
    22   6 C    3.932 --    23 O    1.456    21 N    1.260    24 C    1.078
    23   8 O    1.795 --    22 C    1.456    21 N    0.124
    24   6 C    3.904 --     5 C    1.473    22 C    1.078    25 O    1.064
    25   8 O    2.040 --    24 C    1.064    42 H    0.816
    26   1 H    1.011 --     1 C    0.980
    27   1 H    1.014 --     1 C    0.987
    28   1 H    1.012 --     1 C    0.980
    29   1 H    1.015 --     9 C    0.987
    30   1 H    1.025 --     9 C    0.982
    31   1 H    1.011 --     9 C    0.987
    32   1 H    1.008 --    10 C    0.987
    33   1 H    1.018 --    10 C    0.984
    34   1 H    1.022 --    10 C    0.985
    35   1 H    0.985 --    11 N    0.906
    36   1 H    1.016 --    18 C    0.986
    37   1 H    1.009 --    18 C    0.987
    38   1 H    1.012 --    18 C    0.988
    39   1 H    1.012 --    19 C    0.988
    40   1 H    1.016 --    19 C    0.986
    41   1 H    1.009 --    19 C    0.987
    42   1 H    0.880 --    25 O    0.816
 ---------------------------------------------------------------------------

           -------------------------------------------------
          | TOTAL ENERGY              -83.656219975656 Eh   |
          | GRADIENT NORM               0.000397578841 Eh/α |
          | HOMO-LUMO GAP               0.928069165878 eV   |
           -------------------------------------------------

 * finished run on 2023/06/20 at 17:55:13.545
