                         Program Version 5.0.1 -  RELEASE  -
|  1> # ORCA input file
|  2> ! SP r2SCAN-3c CPCM
|  3>
|  4> %maxcore 1875.0
|  5> %pal nprocs 4 end
|  6> %cpcm smd true SMDsolvent "DMSO" end
|  7>
|  8> *xyz -2 1
|  9> C      -3.601359    2.782554    2.129540
| 10> O      -3.559778    1.730575    1.191812
| 11> C      -2.290400    1.143351    1.013901
| 12> O      -1.339747    1.617337    1.677641
| 13> C      -2.239349    0.055224    0.133289
| 14> N      -0.958036   -0.427001   -0.051837
| 15> C      -0.715760   -1.489830   -0.725891
| 16> C       0.714021   -1.946376   -0.960037
| 17> C       1.003630   -3.268032   -0.228793
| 18> C       0.997447   -2.092902   -2.463081
| 19> N       1.551208   -0.887795   -0.396856
| 20> C       2.885953   -0.858095   -0.417915
| 21> O       3.619850   -1.705438   -0.919276
| 22> C       3.408880    0.368205    0.244085
| 23> N       2.699678    1.323853    0.767271
| 24> N       3.579248    2.250792    1.248225
| 25> C       4.766236    1.803525    0.987412
| 26> C       6.061125    2.444132    1.308586
| 27> O       4.732153    0.619737    0.353764
| 28> N      -1.740771   -2.306430   -1.238226
| 29> C      -3.055836   -2.001017   -1.000244
| 30> O      -3.900859   -2.900864   -1.089321
| 31> C      -3.363111   -0.473441   -0.815704
| 32> C      -4.767020   -0.406173   -0.121380
| 33> O      -3.354715    0.088611   -2.035224
| 34> H      -3.288091    2.446096    3.126900
| 35> H      -4.632719    3.136421    2.182862
| 36> H      -2.952719    3.617308    1.831246
| 37> H       2.042944   -3.560149   -0.369932
| 38> H       0.365775   -4.056190   -0.624036
| 39> H       0.807870   -3.155729    0.837105
| 40> H       2.012035   -2.450523   -2.628204
| 41> H       0.301097   -2.808863   -2.896324
| 42> H       0.874828   -1.132053   -2.963070
| 43> H       1.030725   -0.147248    0.085942
| 44> H       5.888321    3.344021    1.893286
| 45> H       6.688688    1.756321    1.873810
| 46> H       6.589116    2.705039    0.391460
| 47> H      -1.530540   -3.273447   -1.418668
| 48> H      -5.449164   -1.084132   -0.637453
| 49> H      -5.167982    0.602237   -0.206574
| 50> H      -4.712872   -0.691181    0.929909
| 51> **                         ****END OF INPUT****

CARTESIAN COORDINATES (ANGSTROEM)
---------------------------------
  C     -3.601359    2.782554    2.129540
  O     -3.559778    1.730575    1.191812
  C     -2.290400    1.143351    1.013901
  O     -1.339747    1.617337    1.677641
  C     -2.239349    0.055224    0.133289
  N     -0.958036   -0.427001   -0.051837
  C     -0.715760   -1.489830   -0.725891
  C      0.714021   -1.946376   -0.960037
  C      1.003630   -3.268032   -0.228793
  C      0.997447   -2.092902   -2.463081
  N      1.551208   -0.887795   -0.396856
  C      2.885953   -0.858095   -0.417915
  O      3.619850   -1.705438   -0.919276
  C      3.408880    0.368205    0.244085
  N      2.699678    1.323853    0.767271
  N      3.579248    2.250792    1.248225
  C      4.766236    1.803525    0.987412
  C      6.061125    2.444132    1.308586
  O      4.732153    0.619737    0.353764
  N     -1.740771   -2.306430   -1.238226
  C     -3.055836   -2.001017   -1.000244
  O     -3.900859   -2.900864   -1.089321
  C     -3.363111   -0.473441   -0.815704
  C     -4.767020   -0.406173   -0.121380
  O     -3.354715    0.088611   -2.035224
  H     -3.288091    2.446096    3.126900
  H     -4.632719    3.136421    2.182862
  H     -2.952719    3.617308    1.831246
  H      2.042944   -3.560149   -0.369932
  H      0.365775   -4.056190   -0.624036
  H      0.807870   -3.155729    0.837105
  H      2.012035   -2.450523   -2.628204
  H      0.301097   -2.808863   -2.896324
  H      0.874828   -1.132053   -2.963070
  H      1.030725   -0.147248    0.085942
  H      5.888321    3.344021    1.893286
  H      6.688688    1.756321    1.873810
  H      6.589116    2.705039    0.391460
  H     -1.530540   -3.273447   -1.418668
  H     -5.449164   -1.084132   -0.637453
  H     -5.167982    0.602237   -0.206574
  H     -4.712872   -0.691181    0.929909

 Total Charge           Charge          ....   -2
 Multiplicity           Mult            ....    1
 Number of Electrons    NEL             ....  186
 Basis Dimension        Dim             ....  615

ORBITAL ENERGIES
----------------

  NO   OCC          E(Eh)            E(eV)
   0   2.0000     -19.056465      -518.5528
   1   2.0000     -18.933861      -515.2165
   2   2.0000     -18.917547      -514.7726
   3   2.0000     -18.878255      -513.7034
   4   2.0000     -18.856557      -513.1130
   5   2.0000     -18.794432      -511.4225
   6   2.0000     -14.196422      -386.3043
   7   2.0000     -14.190461      -386.1421
   8   2.0000     -14.175096      -385.7240
   9   2.0000     -14.160071      -385.3151
  10   2.0000     -14.111518      -383.9939
  11   2.0000     -10.139879      -275.9201
  12   2.0000     -10.138816      -275.8912
  13   2.0000     -10.134148      -275.7642
  14   2.0000     -10.078079      -274.2385
  15   2.0000     -10.076723      -274.2016
  16   2.0000     -10.076572      -274.1975
  17   2.0000     -10.053553      -273.5711
  18   2.0000     -10.046213      -273.3714
  19   2.0000     -10.040717      -273.2218
  20   2.0000     -10.027112      -272.8516
  21   2.0000     -10.008413      -272.3428
  22   2.0000     -10.007089      -272.3067
  23   2.0000      -9.979853      -271.5656
  24   2.0000      -9.966391      -271.1993
  25   2.0000      -1.144591       -31.1459
  26   2.0000      -1.003431       -27.3048
  27   2.0000      -0.991568       -26.9819
  28   2.0000      -0.966633       -26.3034
  29   2.0000      -0.961300       -26.1583
  30   2.0000      -0.907891       -24.7050
  31   2.0000      -0.895809       -24.3762
  32   2.0000      -0.879804       -23.9407
  33   2.0000      -0.836731       -22.7686
  34   2.0000      -0.823186       -22.4000
  35   2.0000      -0.810212       -22.0470
  36   2.0000      -0.749036       -20.3823
  37   2.0000      -0.704959       -19.1829
  38   2.0000      -0.673214       -18.3191
  39   2.0000      -0.652521       -17.7560
  40   2.0000      -0.646813       -17.6007
  41   2.0000      -0.635293       -17.2872
  42   2.0000      -0.627142       -17.0654
  43   2.0000      -0.602062       -16.3829
  44   2.0000      -0.574957       -15.6454
  45   2.0000      -0.571276       -15.5452
  46   2.0000      -0.541472       -14.7342
  47   2.0000      -0.523801       -14.2533
  48   2.0000      -0.505114       -13.7449
  49   2.0000      -0.487518       -13.2660
  50   2.0000      -0.485146       -13.2015
  51   2.0000      -0.459526       -12.5043
  52   2.0000      -0.451199       -12.2778
  53   2.0000      -0.430049       -11.7022
  54   2.0000      -0.423472       -11.5233
  55   2.0000      -0.411594       -11.2000
  56   2.0000      -0.410212       -11.1624
  57   2.0000      -0.398095       -10.8327
  58   2.0000      -0.396975       -10.8022
  59   2.0000      -0.394267       -10.7285
  60   2.0000      -0.389781       -10.6065
  61   2.0000      -0.385291       -10.4843
  62   2.0000      -0.377425       -10.2703
  63   2.0000      -0.374836       -10.1998
  64   2.0000      -0.372064       -10.1244
  65   2.0000      -0.360019        -9.7966
  66   2.0000      -0.349940        -9.5224
  67   2.0000      -0.342211        -9.3120
  68   2.0000      -0.340610        -9.2685
  69   2.0000      -0.336119        -9.1463
  70   2.0000      -0.335065        -9.1176
  71   2.0000      -0.334468        -9.1013
  72   2.0000      -0.317152        -8.6301
  73   2.0000      -0.310964        -8.4617
  74   2.0000      -0.310454        -8.4479
  75   2.0000      -0.307079        -8.3560
  76   2.0000      -0.302458        -8.2303
  77   2.0000      -0.291342        -7.9278
  78   2.0000      -0.277497        -7.5511
  79   2.0000      -0.269589        -7.3359
  80   2.0000      -0.261720        -7.1218
  81   2.0000      -0.260079        -7.0771
  82   2.0000      -0.256372        -6.9762
  83   2.0000      -0.229150        -6.2355
  84   2.0000      -0.227235        -6.1834
  85   2.0000      -0.217851        -5.9280
  86   2.0000      -0.211491        -5.7550
  87   2.0000      -0.209782        -5.7085
  88   2.0000      -0.194911        -5.3038
  89   2.0000      -0.176261        -4.7963
  90   2.0000      -0.118361        -3.2208
  91   2.0000      -0.110501        -3.0069
  92   2.0000      -0.097793        -2.6611
  93   0.0000      -0.074284        -2.0214
  94   0.0000      -0.013038        -0.3548
  95   0.0000       0.005064         0.1378
  96   0.0000       0.050532         1.3750
  97   0.0000       0.059516         1.6195

MULLIKEN ATOMIC CHARGES
-----------------------
   0 C :   -0.357425
   1 O :   -0.158283
   2 C :    0.041915
   3 O :   -0.491566
   4 C :   -0.238754
   5 N :   -0.236668
   6 C :    0.255303
   7 C :   -0.189592
   8 C :   -0.626861
   9 C :   -0.627004
  10 N :    0.044544
  11 C :   -0.149185
  12 O :   -0.466302
  13 C :    0.371789
  14 N :   -0.142783
  15 N :   -0.320658
  16 C :    0.413966
  17 C :   -0.643861
  18 O :   -0.032207
  19 N :   -0.044729
  20 C :   -0.139401
  21 O :   -0.419201
  22 C :    0.225782
  23 C :   -0.725460
  24 O :   -0.537686
  25 H :    0.148693
  26 H :    0.148028
  27 H :    0.148649
  28 H :    0.190668
  29 H :    0.176282
  30 H :    0.178687
  31 H :    0.190917
  32 H :    0.176922
  33 H :    0.177643
  34 H :    0.315318
  35 H :    0.203125
  36 H :    0.197158
  37 H :    0.200389
  38 H :    0.284611
  39 H :    0.149469
  40 H :    0.161368
  41 H :    0.146402
Sum of atomic charges:   -2.0000000

LOEWDIN ATOMIC CHARGES
----------------------
   0 C :   -0.077336
   1 O :   -0.682356
   2 C :    0.349468
   3 O :   -0.587217
   4 C :    0.064231
   5 N :   -0.654363
   6 C :    0.284974
   7 C :    0.103520
   8 C :   -0.359871
   9 C :   -0.360352
  10 N :   -0.596944
  11 C :    0.372731
  12 O :   -0.484471
  13 C :    0.421102
  14 N :   -0.365077
  15 N :   -0.367217
  16 C :    0.371731
  17 C :   -0.319463
  18 O :   -0.365910
  19 N :   -0.539361
  20 C :    0.334739
  21 O :   -0.545327
  22 C :    0.120264
  23 C :   -0.417660
  24 O :   -0.837727
  25 H :    0.162700
  26 H :    0.167013
  27 H :    0.162429
  28 H :    0.173480
  29 H :    0.164615
  30 H :    0.168947
  31 H :    0.173367
  32 H :    0.167307
  33 H :    0.169714
  34 H :    0.316666
  35 H :    0.189884
  36 H :    0.189413
  37 H :    0.190592
  38 H :    0.283298
  39 H :    0.152035
  40 H :    0.158718
  41 H :    0.147715

  Mayer bond orders larger than 0.100000
B(  0-C ,  1-O ) :   0.8651 B(  0-C , 25-H ) :   0.9703 B(  0-C , 26-H ) :   0.9726
B(  0-C , 27-H ) :   0.9686 B(  1-O ,  2-C ) :   0.9877 B(  2-C ,  3-O ) :   1.7701
B(  2-C ,  4-C ) :   1.3424 B(  4-C ,  5-N ) :   1.0127 B(  4-C , 20-C ) :   0.1078
B(  4-C , 22-C ) :   0.6860 B(  4-C , 24-O ) :  -0.2518 B(  5-N ,  6-C ) :   1.7586
B(  5-N ,  7-C ) :   0.1156 B(  6-C ,  7-C ) :   0.7719 B(  6-C , 10-N ) :  -0.1288
B(  6-C , 19-N ) :   0.9707 B(  6-C , 24-O ) :   0.1210 B(  7-C ,  8-C ) :   0.9197
B(  7-C ,  9-C ) :   0.8943 B(  7-C , 10-N ) :   0.9530 B(  8-C , 28-H ) :   0.9648
B(  8-C , 29-H ) :   0.9627 B(  8-C , 30-H ) :   0.9758 B(  9-C , 31-H ) :   0.9659
B(  9-C , 32-H ) :   0.9634 B(  9-C , 33-H ) :   0.9778 B( 10-N , 11-C ) :   1.1967
B( 10-N , 34-H ) :   0.8202 B( 11-C , 12-O ) :   1.8968 B( 11-C , 13-C ) :   0.8518
B( 13-C , 14-N ) :   1.6750 B( 13-C , 18-O ) :   1.1211 B( 14-N , 15-N ) :   1.2043
B( 15-N , 16-C ) :   1.6199 B( 16-C , 17-C ) :   0.8296 B( 16-C , 18-O ) :   1.0728
B( 17-C , 35-H ) :   0.9901 B( 17-C , 36-H ) :   0.9482 B( 17-C , 37-H ) :   0.9401
B( 19-N , 20-C ) :   1.0751 B( 19-N , 38-H ) :   0.8700 B( 20-C , 21-O ) :   2.0860
B( 20-C , 22-C ) :   0.8620 B( 20-C , 24-O ) :   0.1296 B( 22-C , 23-C ) :   0.7479
B( 22-C , 24-O ) :   1.7216 B( 23-C , 39-H ) :   0.9734 B( 23-C , 40-H ) :   1.0066
B( 23-C , 41-H ) :   0.9897

Dispersion correction           -0.019201210
FINAL SINGLE POINT ENERGY     -1268.838882351805

DIPOLE MOMENT
-------------
                                X             Y             Z
Electronic contribution:     11.15579       1.29916      -0.20250
Nuclear contribution   :     -1.43537      -1.65197       2.13909
                        -----------------------------------------
Total Dipole Moment    :      9.72042      -0.35282       1.93659
                        -----------------------------------------
Magnitude (a.u.)       :      9.91773
Magnitude (Debye)      :     25.20887

Rotational constants in cm-1:     0.011152     0.004375     0.003303
Rotational constants in MHz :   334.314275   131.153448    99.031400

                             ****ORCA TERMINATED NORMALLY****
TOTAL RUN TIME: 0 days 0 hours 2 minutes 5 seconds 205 msec
