   * xtb version 6.5.1 (579679a) compiled by 'ehlert@majestix' on 2022-07-11
          program call               : /lustre/hpc/kemi/ree/PhD/git/ReactivityQM/dep/xtb-6.5.1/bin/xtb --gfn 1 /lustre/hpc/kemi/ree/PhD/git/ReactivityQM/calculations/R02methylcation/reac01prodE14/conf09/R02methylcation_reac01prodE14_conf09_gfn1.xyz --opt --vfukui --chrg -2 --uhf 0 --alpb DMSO

   ID    Z sym.   atoms
    1    6 C      1, 3, 5, 7-10, 12, 14, 17, 18, 21, 23, 24
    2    8 O      2, 4, 13, 19, 22, 25
    3    7 N      6, 11, 15, 16, 20
    4    1 H      26-42

      * Solvation model:               ALPB
        Solvent                        DMSO
        Solvent mass                       7.8130E+01 g/mol
          :  Hamiltonian                  GFN1-xTB          :
 * total energy  :   -83.5862441 Eh     change       -0.3838423E-08 Eh
 * total energy  :   -83.6023147 Eh     change       -0.1607062E-01 Eh
 * total energy  :   -83.6091450 Eh     change       -0.6830303E-02 Eh
 * total energy  :   -83.6105470 Eh     change       -0.1402044E-02 Eh
 * total energy  :   -83.6113359 Eh     change       -0.7888419E-03 Eh
 * total energy  :   -83.6117283 Eh     change       -0.3924831E-03 Eh
 * total energy  :   -83.6120367 Eh     change       -0.3083253E-03 Eh
 * total energy  :   -83.6122771 Eh     change       -0.2404188E-03 Eh
 * total energy  :   -83.6124953 Eh     change       -0.2182093E-03 Eh
 * total energy  :   -83.6127378 Eh     change       -0.2425043E-03 Eh
 * total energy  :   -83.6148076 Eh     change       -0.2080521E-04 Eh
 * total energy  :   -83.6148269 Eh     change       -0.1934115E-04 Eh
 * total energy  :   -83.6148447 Eh     change       -0.1771610E-04 Eh
 * total energy  :   -83.6148609 Eh     change       -0.1626597E-04 Eh
 * total energy  :   -83.6148716 Eh     change       -0.1064305E-04 Eh
 * total energy  :   -83.6148804 Eh     change       -0.8818518E-05 Eh
 * total energy  :   -83.6148866 Eh     change       -0.6253085E-05 Eh
 * total energy  :   -83.6148930 Eh     change       -0.6317328E-05 Eh
 * total energy  :   -83.6148978 Eh     change       -0.4818702E-05 Eh
   *** GEOMETRY OPTIMIZATION CONVERGED AFTER 35 ITERATIONS ***

 final structure:
================
42
 xtb: 6.5.1 (579679a)
C           -3.60135926920477        2.78255398364442        2.12954026591717
O           -3.55977836981322        1.73057475393889        1.19181245375244
C           -2.29040011620369        1.14335085130489        1.01390099391654
O           -1.33974659727768        1.61733702232493        1.67764144080929
C           -2.23934927976071        0.05522447293253        0.13328869407389
N           -0.95803553736527       -0.42700118803353       -0.05183721112531
C           -0.71576026819611       -1.48983017060828       -0.72589084509985
C            0.71402086070406       -1.94637551404820       -0.96003729460002
C            1.00363035315637       -3.26803153683821       -0.22879341753736
C            0.99744691073332       -2.09290181022992       -2.46308146749576
N            1.55120795088744       -0.88779512457294       -0.39685572652448
C            2.88595334377002       -0.85809469442240       -0.41791474518471
O            3.61985039400324       -1.70543835938273       -0.91927633557964
C            3.40887987495794        0.36820503506911        0.24408466023567
N            2.69967769688577        1.32385294822311        0.76727076744550
N            3.57924798292128        2.25079175403950        1.24822460210147
C            4.76623608739599        1.80352496545414        0.98741236006119
C            6.06112530634952        2.44413200899124        1.30858575973373
O            4.73215278824129        0.61973733469510        0.35376356507338
N           -1.74077065462699       -2.30643044213391       -1.23822610862190
C           -3.05583592948074       -2.00101663965563       -1.00024424035840
O           -3.90085876717860       -2.90086425247545       -1.08932094867207
C           -3.36311070090534       -0.47344065613675       -0.81570367971416
C           -4.76702001156366       -0.40617261048808       -0.12138020881717
O           -3.35471498325280        0.08861088658050       -2.03522360562124
H           -3.28809120826466        2.44609607207131        3.12690049392099
H           -4.63271899254850        3.13642138676455        2.18286204122234
H           -2.95271943969940        3.61730780449169        1.83124615486255
H            2.04294373692426       -3.56014874536315       -0.36993243667702
H            0.36577540059541       -4.05618960043235       -0.62403586297613
H            0.80787042559488       -3.15572867101927        0.83710460177595
H            2.01203478572301       -2.45052283179559       -2.62820413465599
H            0.30109724717129       -2.80886281391238       -2.89632413877514
H            0.87482800844321       -1.13205281103418       -2.96306987988087
H            1.03072538837084       -0.14724789139660        0.08594213919068
H            5.88832090494490        3.34402101138874        1.89328568704575
H            6.68868784537408        1.75632064244701        1.87380995513125
H            6.58911628215277        2.70503913008594        0.39146033177006
H           -1.53053983327848       -3.27344738016207       -1.41866788314466
H           -5.44916448006559       -1.08413221407492       -0.63745285156162
H           -5.16798234133509        0.60223658417305       -0.20657444443630
H           -4.71287179527710       -0.69118069040270        0.92990949902552

          :  Hamiltonian                  GFN1-xTB          :
         :: total energy             -83.614897771635 Eh    ::
         :: gradient norm              0.000485523376 Eh/a0 ::
         :: HOMO-LUMO gap              0.194824238282 eV    ::
         :: SCC energy               -84.349583599427 Eh    ::
         :: -> Gsolv                  -0.302626795405 Eh    ::
         :: repulsion energy           0.760573118075 Eh    ::

    * Orbital Energies and Occupations

         #    Occupation            Energy/Eh            Energy/eV
      -------------------------------------------------------------
         1        2.0000           -0.8479982             -23.0752
       ...           ...                  ...                  ...
        56        2.0000           -0.4426970             -12.0464
        57        2.0000           -0.4366157             -11.8809
        58        2.0000           -0.4316002             -11.7444
        59        2.0000           -0.4251319             -11.5684
        60        2.0000           -0.4201837             -11.4338
        61        2.0000           -0.4144868             -11.2788
        62        2.0000           -0.4001506             -10.8887
        63        2.0000           -0.3919205             -10.6647
        64        2.0000           -0.3832855             -10.4297
        65        2.0000           -0.3728361             -10.1454
        66        2.0000           -0.3067932              -8.3483
        67        1.9942           -0.2989517              -8.1349
        68        1.9576           -0.2970383              -8.0828 (HOMO)
        69        0.0481           -0.2898786              -7.8880 (LUMO)
        70                         -0.2435825              -6.6282
        71                         -0.2129401              -5.7944
        72                         -0.1775105              -4.8303
        73                         -0.1717599              -4.6738
        74                         -0.1379231              -3.7531
        75                         -0.1141022              -3.1049
        76                         -0.1104066              -3.0043
        77                         -0.1048626              -2.8535
        78                         -0.1014692              -2.7611
        79                         -0.0758425              -2.0638
       ...                                ...                  ...
       134                          0.7266991              19.7745
      -------------------------------------------------------------
                  HL-Gap            0.0071597 Eh            0.1948 eV

Wiberg/Mayer (AO) data.
largest (>0.10) Wiberg bond orders for each atom

     #   Z sym  total        # sym  WBO       # sym  WBO       # sym  WBO
 ---------------------------------------------------------------------------
     1   6 C    3.923 --    27 H    0.987    28 H    0.980    26 H    0.980
                             2 O    0.954
     2   8 O    2.079 --     1 C    0.954     3 C    0.927
     3   6 C    3.851 --     4 O    1.437     5 C    1.347     2 O    0.927
     4   8 O    1.741 --     3 C    1.437     5 C    0.111
     5   6 C    3.835 --     3 C    1.347     6 N    1.171    23 C    0.917
                             4 O    0.111
     6   7 N    3.085 --     7 C    1.620     5 C    1.171
     7   6 C    3.903 --     6 N    1.620    20 N    1.013     8 C    0.975
     8   6 C    3.929 --    10 C    0.985     9 C    0.982     7 C    0.975
                            11 N    0.923
     9   6 C    3.990 --    31 H    0.986    30 H    0.984    29 H    0.983
                             8 C    0.982
    10   6 C    3.991 --    34 H    0.986    33 H    0.986     8 C    0.985
                            32 H    0.983
    11   7 N    3.379 --    12 C    1.300     8 C    0.923    35 H    0.869
                            13 O    0.184
    12   6 C    3.911 --    13 O    1.542    11 N    1.300    14 C    0.989
    13   8 O    1.858 --    12 C    1.542    11 N    0.184
    14   6 C    3.846 --    15 N    1.604    19 O    1.050    12 C    0.989
    15   7 N    2.985 --    14 C    1.604    16 N    1.189
    16   7 N    2.981 --    17 C    1.619    15 N    1.189
    17   6 C    3.870 --    16 N    1.619    19 O    1.077    18 C    1.029
    18   6 C    3.989 --    17 C    1.029    36 H    0.983    37 H    0.968
                            38 H    0.964
    19   8 O    2.307 --    17 C    1.077    14 C    1.050
    20   7 N    3.348 --    21 C    1.169     7 C    1.013    39 H    0.913
                            22 O    0.115
    21   6 C    3.814 --    22 O    1.560    20 N    1.169    23 C    0.879
    22   8 O    1.829 --    21 C    1.560    20 N    0.115
    23   6 C    3.964 --    25 O    1.124    24 C    0.947     5 C    0.917
                            21 C    0.879
    24   6 C    3.988 --    42 H    0.990    41 H    0.987    40 H    0.986
                            23 C    0.947
    25   8 O    1.417 --    23 C    1.124
    26   1 H    1.023 --     1 C    0.980
    27   1 H    1.020 --     1 C    0.987
    28   1 H    1.023 --     1 C    0.980
    29   1 H    1.011 --     9 C    0.983
    30   1 H    1.005 --     9 C    0.984
    31   1 H    1.008 --     9 C    0.986
    32   1 H    1.013 --    10 C    0.983
    33   1 H    1.007 --    10 C    0.986
    34   1 H    1.007 --    10 C    0.986
    35   1 H    0.992 --    11 N    0.869
    36   1 H    1.000 --    18 C    0.983
    37   1 H    0.998 --    18 C    0.968
    38   1 H    0.998 --    18 C    0.964
    39   1 H    0.968 --    20 N    0.913
    40   1 H    1.027 --    24 C    0.986
    41   1 H    1.034 --    24 C    0.987
    42   1 H    1.018 --    24 C    0.990
 ---------------------------------------------------------------------------

           -------------------------------------------------
          | TOTAL ENERGY              -83.614897771635 Eh   |
          | GRADIENT NORM               0.000485523376 Eh/α |
          | HOMO-LUMO GAP               0.194824238282 eV   |
           -------------------------------------------------

 * finished run on 2023/06/21 at 17:28:31.356
