   * xtb version 6.5.1 (579679a) compiled by 'ehlert@majestix' on 2022-07-11
          program call               : /lustre/hpc/kemi/ree/PhD/git/ReactivityQM/dep/xtb-6.5.1/bin/xtb --gfn 1 /lustre/hpc/kemi/ree/PhD/git/ReactivityQM/calculations/R02oxygendeprot/reac01/conf04/R02oxygendeprot_reac01_conf04_gfn1.xyz --opt --vfukui --chrg -1 --uhf 0 --alpb DMSO

   ID    Z sym.   atoms
    1    6 C      1, 3, 5, 7-10, 12, 14, 17, 18, 21, 23
    2    8 O      2, 4, 13, 19, 22, 24
    3    7 N      6, 11, 15, 16, 20
    4    1 H      25-38

      * Solvation model:               ALPB
        Solvent                        DMSO
        Solvent mass                       7.8130E+01 g/mol
          :  Hamiltonian                  GFN1-xTB          :
 * total energy  :   -79.6041587 Eh     change       -0.3646505E-10 Eh
 * total energy  :   -79.6161354 Eh     change       -0.1197669E-01 Eh
 * total energy  :   -79.6203329 Eh     change       -0.4197542E-02 Eh
 * total energy  :   -79.6209352 Eh     change       -0.6023216E-03 Eh
 * total energy  :   -79.6213720 Eh     change       -0.4367498E-03 Eh
 * total energy  :   -79.6215969 Eh     change       -0.2249220E-03 Eh
 * total energy  :   -79.6218036 Eh     change       -0.2067254E-03 Eh
 * total energy  :   -79.6219522 Eh     change       -0.1485713E-03 Eh
 * total energy  :   -79.6220524 Eh     change       -0.1001710E-03 Eh
 * total energy  :   -79.6221271 Eh     change       -0.7469291E-04 Eh
 * total energy  :   -79.6227466 Eh     change       -0.2792825E-04 Eh
 * total energy  :   -79.6227559 Eh     change       -0.9362563E-05 Eh
 * total energy  :   -79.6227780 Eh     change       -0.2206435E-04 Eh
 * total energy  :   -79.6227551 Eh     change        0.2288358E-04 Eh
 * total energy  :   -79.6227841 Eh     change       -0.2902929E-04 Eh
 * total energy  :   -79.6227954 Eh     change       -0.1129443E-04 Eh
 * total energy  :   -79.6228025 Eh     change       -0.7029666E-05 Eh
 * total energy  :   -79.6228122 Eh     change       -0.9745632E-05 Eh
 * total energy  :   -79.6228162 Eh     change       -0.3986679E-05 Eh
   *** GEOMETRY OPTIMIZATION CONVERGED AFTER 31 ITERATIONS ***

 final structure:
================
38
 xtb: 6.5.1 (579679a)
C           -6.09402580135752        2.08055321739086        0.60958968824836
O           -4.97814832855894        1.64799923256658       -0.15546783784143
C           -4.01727584631950        0.97633941938646        0.52831309526053
O           -4.13884373042701        0.76815636447568        1.73031749687621
C           -2.88050760287780        0.55313878408216       -0.27545858654574
N           -1.92285538409916       -0.11166625255650        0.46811311899336
C           -0.85482549152820       -0.55297370346314       -0.08064116135578
C            0.16143930208237       -1.32999330935840        0.73033733139632
C           -0.11802976213449       -1.13802375833103        2.22439454676427
C            0.08578155313208       -2.81348936740194        0.33800349963242
N            1.49747734416040       -0.80233659222146        0.40498488841065
C            2.63249807184533       -1.28282461627077        0.94235423857115
O            2.71347209291376       -2.21909045620389        1.72318225823375
C            3.84382656400402       -0.54978882027719        0.48553374684701
N            5.07270376510047       -0.75556512111140        0.84715046295183
N            5.83784758931587        0.15382440019682        0.17859127924181
C            5.02894742384325        0.85796860322958       -0.55010585124470
C            5.36824880416447        1.96703792164139       -1.46807614308582
O            3.75294230133800        0.46514449851521       -0.40129619862350
N           -0.61341108162029       -0.40243989518274       -1.43373343317982
C           -1.47375475667469        0.23813599402223       -2.29071261998642
O           -1.18424793207196        0.33904371071584       -3.47989182163885
C           -2.74606484938147        0.77589130822046       -1.67097154021054
O           -3.56441365564482        1.35595833694251       -2.40751010950865
H           -6.77897572909186        2.57759385828586       -0.07641947547360
H           -5.78057318525256        2.78066662825341        1.39060538681656
H           -6.59511202251375        1.22910954721831        1.08105380768573
H            0.56122210967519       -1.74374061221176        2.82049821752504
H            0.00645708067441       -0.08929574210390        2.49139341631543
H           -1.14454085526849       -1.43437677207085        2.43751694710428
H            0.78118461412566       -3.40304626824506        0.93214884132818
H            0.33100781032563       -2.93306663239821       -0.71593868214507
H           -0.92539538065103       -3.18005642192080        0.51035853371713
H            1.55726209440064        0.00928823536558       -0.18831749705635
H            6.42278452975543        2.21349206790861       -1.36988338465355
H            5.15945509725203        1.67367320099775       -2.49744465249140
H            4.76121003363963        2.84214950932514       -1.23693211890602
H            0.23523421372213       -0.76339349741239       -1.83531868796968

          :  Hamiltonian                  GFN1-xTB          :
         :: total energy             -79.622816188811 Eh    ::
         :: gradient norm              0.000659444194 Eh/a0 ::
         :: HOMO-LUMO gap              1.658194085763 eV    ::
         :: SCC energy               -80.349545033463 Eh    ::
         :: -> Gsolv                  -0.121297428509 Eh    ::
         :: repulsion energy           0.749489702668 Eh    ::

    * Orbital Energies and Occupations

         #    Occupation            Energy/Eh            Energy/eV
      -------------------------------------------------------------
         1        2.0000           -0.8608243             -23.4242
       ...           ...                  ...                  ...
        52        2.0000           -0.4836509             -13.1608
        53        2.0000           -0.4746435             -12.9157
        54        2.0000           -0.4636780             -12.6173
        55        2.0000           -0.4581457             -12.4668
        56        2.0000           -0.4544888             -12.3673
        57        2.0000           -0.4540418             -12.3551
        58        2.0000           -0.4459714             -12.1355
        59        2.0000           -0.4394894             -11.9591
        60        2.0000           -0.4385366             -11.9332
        61        2.0000           -0.4349440             -11.8354
        62        2.0000           -0.4153359             -11.3019
        63        2.0000           -0.3776519             -10.2764
        64        2.0000           -0.3648465              -9.9280 (HOMO)
        65                         -0.3039090              -8.2698 (LUMO)
        66                         -0.2689028              -7.3172
        67                         -0.2526982              -6.8763
        68                         -0.2384873              -6.4896
        69                         -0.1958872              -5.3304
        70                         -0.1920038              -5.2247
        71                         -0.1397425              -3.8026
        72                         -0.1205200              -3.2795
        73                         -0.1159184              -3.1543
        74                         -0.1116825              -3.0390
        75                         -0.1072684              -2.9189
       ...                                ...                  ...
       124                          0.7572580              20.6060
      -------------------------------------------------------------
                  HL-Gap            0.0609375 Eh            1.6582 eV

Wiberg/Mayer (AO) data.
largest (>0.10) Wiberg bond orders for each atom

     #   Z sym  total        # sym  WBO       # sym  WBO       # sym  WBO
 ---------------------------------------------------------------------------
     1   6 C    3.899 --    25 H    0.987    26 H    0.981    27 H    0.980
                             2 O    0.925
     2   8 O    2.160 --     3 C    1.048     1 C    0.925     4 O    0.110
     3   6 C    3.850 --     4 O    1.575     5 C    1.114     2 O    1.048
     4   8 O    1.850 --     3 C    1.575     2 O    0.110
     5   6 C    3.915 --    23 C    1.271     6 N    1.153     3 C    1.114
                            24 O    0.130
     6   7 N    3.033 --     7 C    1.638     5 C    1.153
     7   6 C    3.933 --     6 N    1.638    20 N    1.088     8 C    0.979
     8   6 C    3.929 --     9 C    0.993    10 C    0.982     7 C    0.979
                            11 N    0.911
     9   6 C    3.991 --     8 C    0.993    29 H    0.986    28 H    0.984
                            30 H    0.983
    10   6 C    3.989 --    33 H    0.986    32 H    0.985     8 C    0.982
                            31 H    0.980
    11   7 N    3.359 --    12 C    1.275     8 C    0.911    34 H    0.896
                            13 O    0.180
    12   6 C    3.919 --    13 O    1.575    11 N    1.275    14 C    0.988
    13   8 O    1.894 --    12 C    1.575    11 N    0.180
    14   6 C    3.870 --    15 N    1.624    19 O    1.048    12 C    0.988
    15   7 N    2.997 --    14 C    1.624    16 N    1.196
    16   7 N    2.981 --    17 C    1.613    15 N    1.196
    17   6 C    3.870 --    16 N    1.613    19 O    1.072    18 C    1.031
    18   6 C    3.987 --    17 C    1.031    35 H    0.982    37 H    0.966
                            36 H    0.961
    19   8 O    2.316 --    17 C    1.072    14 C    1.048
    20   7 N    3.421 --    21 C    1.157     7 C    1.088    38 H    0.897
                            22 O    0.135
    21   6 C    3.877 --    22 O    1.582    20 N    1.157    23 C    0.967
    22   8 O    1.862 --    21 C    1.582    20 N    0.135
    23   6 C    3.943 --    24 O    1.521     5 C    1.271    21 C    0.967
    24   8 O    1.827 --    23 C    1.521     5 C    0.130
    25   1 H    1.016 --     1 C    0.987
    26   1 H    1.014 --     1 C    0.981
    27   1 H    1.014 --     1 C    0.980
    28   1 H    1.011 --     9 C    0.984
    29   1 H    1.008 --     9 C    0.986
    30   1 H    1.016 --     9 C    0.983
    31   1 H    1.011 --    10 C    0.980
    32   1 H    1.003 --    10 C    0.985
    33   1 H    1.004 --    10 C    0.986
    34   1 H    0.942 --    11 N    0.896
    35   1 H    0.999 --    18 C    0.982
    36   1 H    0.997 --    18 C    0.961
    37   1 H    0.997 --    18 C    0.966
    38   1 H    0.944 --    20 N    0.897
 ---------------------------------------------------------------------------

           -------------------------------------------------
          | TOTAL ENERGY              -79.622816188811 Eh   |
          | GRADIENT NORM               0.000659444194 Eh/α |
          | HOMO-LUMO GAP               1.658194085763 eV   |
           -------------------------------------------------

 * finished run on 2023/06/21 at 17:00:47.888
