   * xtb version 6.5.1 (579679a) compiled by 'ehlert@majestix' on 2022-07-11
          program call               : /lustre/hpc/kemi/ree/PhD/git/ReactivityQM/dep/xtb-6.5.1/bin/xtb --gfn 1 /lustre/hpc/kemi/ree/PhD/git/ReactivityQM/calculations/R02oxygendeprot/reac01prodN08/conf12/R02oxygendeprot_reac01prodN08_conf12_gfn1.xyz --opt --vfukui --chrg 0 --uhf 0 --alpb DMSO

   ID    Z sym.   atoms
    1    6 C      1, 3, 5, 7-10, 12, 14, 17, 18, 21, 23, 25
    2    8 O      2, 4, 13, 19, 22, 24
    3    7 N      6, 11, 15, 16, 20
    4    1 H      26-42

      * Solvation model:               ALPB
        Solvent                        DMSO
        Solvent mass                       7.8130E+01 g/mol
          :  Hamiltonian                  GFN1-xTB          :
 * total energy  :   -82.9965626 Eh     change       -0.1398348E-10 Eh
 * total energy  :   -83.0109568 Eh     change       -0.1439419E-01 Eh
 * total energy  :   -83.0160278 Eh     change       -0.5070996E-02 Eh
 * total energy  :   -83.0172734 Eh     change       -0.1245600E-02 Eh
 * total energy  :   -83.0179380 Eh     change       -0.6646228E-03 Eh
 * total energy  :   -83.0182150 Eh     change       -0.2770440E-03 Eh
 * total energy  :   -83.0183986 Eh     change       -0.1835468E-03 Eh
 * total energy  :   -83.0185553 Eh     change       -0.1567060E-03 Eh
 * total energy  :   -83.0186675 Eh     change       -0.1121777E-03 Eh
 * total energy  :   -83.0187301 Eh     change       -0.6267430E-04 Eh
 * total energy  :   -83.0193959 Eh     change       -0.1680686E-04 Eh
 * total energy  :   -83.0194078 Eh     change       -0.1183067E-04 Eh
 * total energy  :   -83.0194170 Eh     change       -0.9274970E-05 Eh
 * total energy  :   -83.0194377 Eh     change       -0.2067147E-04 Eh
 * total energy  :   -83.0194499 Eh     change       -0.1216336E-04 Eh
 * total energy  :   -83.0194647 Eh     change       -0.1481144E-04 Eh
 * total energy  :   -83.0194720 Eh     change       -0.7365907E-05 Eh
 * total energy  :   -83.0194799 Eh     change       -0.7877697E-05 Eh
 * total energy  :   -83.0194831 Eh     change       -0.3221340E-05 Eh
   *** GEOMETRY OPTIMIZATION CONVERGED AFTER 38 ITERATIONS ***

 final structure:
================
42
 xtb: 6.5.1 (579679a)
C           -5.11744639064468       -2.68621099439718        0.32455867245765
O           -3.96235138722039       -1.84487178856259        0.34527896903398
C           -4.03700935126260       -0.71854786457644       -0.37111171179810
O           -5.01679625055819       -0.41401824091756       -1.01132246997356
C           -2.78246405166819        0.08373891872795       -0.27119039381507
N           -1.79219946940615       -0.47849765356820        0.49017345045905
C           -0.67262690431739        0.14448309036725        0.64155403166767
C            0.40454986382234       -0.46720623135881        1.52377042898034
C            0.66616202868337        0.43434628868187        2.73752312782064
C           -0.05121764224010       -1.85139238925292        1.98864111931950
N            1.63805720226829       -0.66542480114074        0.74964997867827
C            2.49959775610191        0.29828195268973        0.37172897316414
O            2.33425583723778        1.50064650211598        0.51241892072283
C            3.69828033276120       -0.28491628401615       -0.27725964302545
N            3.91595846792247       -1.54784676444218       -0.49338238901479
N            5.12632859431942       -1.63742831371207       -1.10928596777407
C            5.57169941820271       -0.42236260997252       -1.22959871576337
C            6.85105212646825        0.01600157968265       -1.82870790304280
O            4.71333054800006        0.47508027568572       -0.72468119190132
N           -0.44629826348898        1.35316400719640        0.06456662065116
C           -1.34944487256860        2.01991075920707       -0.73277134253408
O           -1.05305894637740        3.09932591637556       -1.22661641847719
C           -2.62026791933434        1.30469314824615       -0.89041047548412
O           -3.62637400161557        1.80366732587509       -1.61906230852807
C           -3.55886811569565        3.06896616483792       -2.27601338225426
H           -5.33744631920432       -3.00053993205678       -0.69893653799887
H           -5.97985930452684       -2.15190207588904        0.73108520976468
H           -4.88451917140038       -3.55074618283659        0.94261331762658
H           -0.23946490331240        0.49408677596047        3.33930838071202
H            0.95087495801479        1.43818940897247        2.43097259039128
H            1.46587035921721        0.00831848801686        3.34055105869741
H           -0.24417584598561       -2.49373804027935        1.13071591983985
H           -0.96974950788270       -1.75916770252842        2.56568187218591
H            0.71724771816193       -2.30382753977709        2.61205139140501
H            1.91672715142947       -1.62208778640660        0.58660919626742
H            7.44066870000989        0.55716891575512       -1.08891891509844
H            7.40835320313850       -0.85040788178086       -2.17613601019676
H            6.66033782204219        0.68823951806873       -2.66528160599921
H            0.45564358819204        1.80737496712239        0.20028996439658
H           -2.76682482865728        3.08133192233946       -3.02836673788777
H           -3.39912154900893        3.87808627902412       -1.55971470618839
H           -4.52741167961189        3.19603787251943       -2.76173936748285

          :  Hamiltonian                  GFN1-xTB          :
         :: total energy             -83.019483142526 Eh    ::
         :: gradient norm              0.000339477554 Eh/a0 ::
         :: HOMO-LUMO gap              2.775915716553 eV    ::
         :: SCC energy               -83.801006571972 Eh    ::
         :: -> Gsolv                  -0.049309959667 Eh    ::
         :: repulsion energy           0.806637151304 Eh    ::

    * Orbital Energies and Occupations

         #    Occupation            Energy/Eh            Energy/eV
      -------------------------------------------------------------
         1        2.0000           -0.8667107             -23.5844
       ...           ...                  ...                  ...
        55        2.0000           -0.5090457             -13.8518
        56        2.0000           -0.5039184             -13.7123
        57        2.0000           -0.4962180             -13.5028
        58        2.0000           -0.4863140             -13.2333
        59        2.0000           -0.4827824             -13.1372
        60        2.0000           -0.4820095             -13.1161
        61        2.0000           -0.4712425             -12.8232
        62        2.0000           -0.4679017             -12.7323
        63        2.0000           -0.4583664             -12.4728
        64        2.0000           -0.4563175             -12.4170
        65        2.0000           -0.4487043             -12.2099
        66        2.0000           -0.4450764             -12.1111
        67        2.0000           -0.4257222             -11.5845 (HOMO)
        68                         -0.3237091              -8.8086 (LUMO)
        69                         -0.3162076              -8.6044
        70                         -0.2842734              -7.7355
        71                         -0.2595571              -7.0629
        72                         -0.2389471              -6.5021
        73                         -0.2040479              -5.5524
        74                         -0.1598546              -4.3499
        75                         -0.1432114              -3.8970
        76                         -0.1380344              -3.7561
        77                         -0.1316008              -3.5810
        78                         -0.1309673              -3.5638
       ...                                ...                  ...
       134                          0.7338261              19.9684
      -------------------------------------------------------------
                  HL-Gap            0.1020130 Eh            2.7759 eV

Wiberg/Mayer (AO) data.
largest (>0.10) Wiberg bond orders for each atom

     #   Z sym  total        # sym  WBO       # sym  WBO       # sym  WBO
 ---------------------------------------------------------------------------
     1   6 C    3.874 --    28 H    0.986    26 H    0.979    27 H    0.979
                             2 O    0.900
     2   8 O    2.195 --     3 C    1.105     1 C    0.900     4 O    0.133
     3   6 C    3.851 --     4 O    1.659     2 O    1.105     5 C    1.004
     4   8 O    1.921 --     3 C    1.659     2 O    0.133
     5   6 C    3.962 --    23 C    1.478     6 N    1.188     3 C    1.004
     6   7 N    3.026 --     7 C    1.578     5 C    1.188
     7   6 C    3.933 --     6 N    1.578    20 N    1.188     8 C    0.970
     8   6 C    3.933 --    10 C    1.001     9 C    0.982     7 C    0.970
                            11 N    0.917
     9   6 C    3.988 --    29 H    0.985    31 H    0.983     8 C    0.982
                            30 H    0.979
    10   6 C    3.991 --     8 C    1.001    34 H    0.985    32 H    0.983
                            33 H    0.982
    11   7 N    3.347 --    12 C    1.265     8 C    0.917    35 H    0.892
                            13 O    0.175
    12   6 C    3.916 --    13 O    1.569    11 N    1.265    14 C    0.995
    13   8 O    1.923 --    12 C    1.569    11 N    0.175
    14   6 C    3.877 --    15 N    1.606    19 O    1.065    12 C    0.995
    15   7 N    3.018 --    14 C    1.606    16 N    1.204
    16   7 N    2.981 --    17 C    1.600    15 N    1.204
    17   6 C    3.869 --    16 N    1.600    19 O    1.084    18 C    1.032
    18   6 C    3.986 --    17 C    1.032    37 H    0.982    38 H    0.963
                            36 H    0.963
    19   8 O    2.333 --    17 C    1.084    14 C    1.065
    20   7 N    3.476 --     7 C    1.188    21 C    1.139    39 H    0.849
                            22 O    0.133
    21   6 C    3.912 --    22 O    1.571    20 N    1.139    23 C    1.065
    22   8 O    1.897 --    21 C    1.571    20 N    0.133
    23   6 C    3.918 --     5 C    1.478    24 O    1.101    21 C    1.065
    24   8 O    2.198 --    23 C    1.101    25 C    0.897
    25   6 C    3.872 --    42 H    0.984    41 H    0.979    40 H    0.979
                            24 O    0.897
    26   1 H    1.008 --     1 C    0.979
    27   1 H    1.008 --     1 C    0.979
    28   1 H    1.011 --     1 C    0.986
    29   1 H    1.001 --     9 C    0.985
    30   1 H    1.008 --     9 C    0.979
    31   1 H    0.999 --     9 C    0.983
    32   1 H    1.005 --    10 C    0.983
    33   1 H    1.008 --    10 C    0.982
    34   1 H    0.999 --    10 C    0.985
    35   1 H    0.949 --    11 N    0.892
    36   1 H    0.996 --    18 C    0.963
    37   1 H    0.998 --    18 C    0.982
    38   1 H    0.996 --    18 C    0.963
    39   1 H    0.932 --    20 N    0.849
    40   1 H    1.015 --    25 C    0.979
    41   1 H    1.015 --    25 C    0.979
    42   1 H    1.012 --    25 C    0.984
 ---------------------------------------------------------------------------

           -------------------------------------------------
          | TOTAL ENERGY              -83.019483142526 Eh   |
          | GRADIENT NORM               0.000339477554 Eh/α |
          | HOMO-LUMO GAP               2.775915716553 eV   |
           -------------------------------------------------

 * finished run on 2023/06/21 at 17:23:37.907
