   * xtb version 6.5.1 (579679a) compiled by 'ehlert@majestix' on 2022-07-11
          program call               : /lustre/hpc/kemi/ree/PhD/git/ReactivityQM/dep/xtb-6.5.1/bin/xtb --gfn 1 /lustre/hpc/kemi/ree/PhD/git/ReactivityQM/calculations/R01/reac01prodE04/conf06/R01_reac01prodE04_conf06_gfn1.xyz --opt --vfukui --chrg -1 --uhf 0 --alpb DMSO

   ID    Z sym.   atoms
    1    6 C      1, 3, 5, 7, 8, 11
    2    8 O      2, 4, 6
    3    7 N      9, 10
    4    1 H      12-20

      * Solvation model:               ALPB
        Solvent                        DMSO
        Solvent mass                       7.8130E+01 g/mol
          :  Hamiltonian                  GFN1-xTB          :
 * total energy  :   -38.2927343 Eh     change       -0.6060930E-11 Eh
 * total energy  :   -38.3054870 Eh     change       -0.1275267E-01 Eh
 * total energy  :   -38.3074953 Eh     change       -0.2008345E-02 Eh
 * total energy  :   -38.3077382 Eh     change       -0.2428459E-03 Eh
 * total energy  :   -38.3079307 Eh     change       -0.1925534E-03 Eh
 * total energy  :   -38.3080520 Eh     change       -0.1213223E-03 Eh
 * total energy  :   -38.3086275 Eh     change       -0.5755012E-03 Eh
 * total energy  :   -38.3096359 Eh     change       -0.1008350E-02 Eh
 * total energy  :   -38.3110987 Eh     change       -0.1462851E-02 Eh
 * total energy  :   -38.3126807 Eh     change       -0.1581987E-02 Eh
 * total energy  :   -38.3247680 Eh     change       -0.2702233E-04 Eh
 * total energy  :   -38.3247627 Eh     change        0.5226519E-05 Eh
 * total energy  :   -38.3247890 Eh     change       -0.2623537E-04 Eh
 * total energy  :   -38.3248023 Eh     change       -0.1333770E-04 Eh
 * total energy  :   -38.3248116 Eh     change       -0.9258131E-05 Eh
 * total energy  :   -38.3248211 Eh     change       -0.9528305E-05 Eh
 * total energy  :   -38.3248264 Eh     change       -0.5284851E-05 Eh
 * total energy  :   -38.3248296 Eh     change       -0.3189096E-05 Eh
 * total energy  :   -38.3248317 Eh     change       -0.2099404E-05 Eh
   *** GEOMETRY OPTIMIZATION CONVERGED AFTER 41 ITERATIONS ***

 final structure:
================
20
 xtb: 6.5.1 (579679a)
C           -3.39881727727143       -1.42059939782732        0.00641835549582
O           -1.99552330747593       -1.28291363886824       -0.03319826202175
C           -1.54136037227431        0.03906361235718       -0.30829809271104
O           -2.39302931712929        0.93590416057000       -0.54704109652565
C           -0.20043645589483        0.21887063337479       -0.07466133181280
O            0.73244060085453       -0.86446772636914       -0.00720984719191
C            1.87428188904053       -0.35475449091307       -0.47638357485463
C            3.06233338541786       -1.25109031974522       -0.56668117673950
N            1.87347225511081        0.87630296408570       -0.82012890977094
N            0.54144364841010        1.37904472365958       -0.57869753279420
C            0.65896241460347        2.44250343597196        0.43299811791328
H           -3.84453587661557       -0.79205546358926        0.78968375135009
H           -3.61810853447742       -2.46812187165437        0.22421737482373
H           -3.86004661125292       -1.15148784065708       -0.95391945821959
H            3.24251087364062       -1.72595257854805        0.39683887536339
H            3.93767026669451       -0.67516190795156       -0.85707035604969
H            2.88774898651269       -2.03571098170169       -1.30299063366077
H           -0.33981866245910        2.83552923081280        0.61733996587012
H            1.08425492359939        2.06331970976010        1.36783546192904
H            1.29655717096602        3.23177774723351        0.03642836960695

          :  Hamiltonian                  GFN1-xTB          :
         :: total energy             -38.324831682728 Eh    ::
         :: gradient norm              0.000599999292 Eh/a0 ::
         :: HOMO-LUMO gap              2.439533326316 eV    ::
         :: SCC energy               -38.638920672738 Eh    ::
         :: -> Gsolv                  -0.102936557984 Eh    ::
         :: repulsion energy           0.322389962866 Eh    ::

    * Orbital Energies and Occupations

         #    Occupation            Energy/Eh            Energy/eV
      -------------------------------------------------------------
         1        2.0000           -0.7803773             -21.2351
       ...           ...                  ...                  ...
        19        2.0000           -0.5084807             -13.8365
        20        2.0000           -0.5052719             -13.7491
        21        2.0000           -0.4880006             -13.2792
        22        2.0000           -0.4830701             -13.1450
        23        2.0000           -0.4753671             -12.9354
        24        2.0000           -0.4628670             -12.5953
        25        2.0000           -0.4530515             -12.3282
        26        2.0000           -0.4245994             -11.5539
        27        2.0000           -0.4215769             -11.4717
        28        2.0000           -0.4145432             -11.2803
        29        2.0000           -0.3878548             -10.5541
        30        2.0000           -0.3854245             -10.4879
        31        2.0000           -0.2982601              -8.1161 (HOMO)
        32                         -0.2086089              -5.6765 (LUMO)
        33                         -0.1409124              -3.8344
        34                         -0.1235328              -3.3615
        35                         -0.1053196              -2.8659
        36                         -0.0935303              -2.5451
        37                         -0.0570791              -1.5532
        38                         -0.0562205              -1.5298
        39                         -0.0442749              -1.2048
        40                         -0.0418665              -1.1392
        41                         -0.0416575              -1.1336
        42                         -0.0390617              -1.0629
       ...                                ...                  ...
        62                          0.6798929              18.5008
      -------------------------------------------------------------
                  HL-Gap            0.0896512 Eh            2.4395 eV

Wiberg/Mayer (AO) data.
largest (>0.10) Wiberg bond orders for each atom

     #   Z sym  total        # sym  WBO       # sym  WBO       # sym  WBO
 ---------------------------------------------------------------------------
     1   6 C    3.923 --    13 H    0.987    12 H    0.981    14 H    0.980
                             2 O    0.957
     2   8 O    2.037 --     1 C    0.957     3 C    0.901
     3   6 C    3.880 --     5 C    1.484     4 O    1.380     2 O    0.901
     4   8 O    1.708 --     3 C    1.380     5 C    0.173
     5   6 C    3.628 --     3 C    1.484    10 N    0.950     6 O    0.874
                             4 O    0.173
     6   8 O    2.184 --     7 C    1.094     5 C    0.874     9 N    0.135
     7   6 C    3.908 --     9 N    1.709     6 O    1.094     8 C    1.013
     8   6 C    3.995 --     7 C    1.013    16 H    0.987    15 H    0.974
                            17 H    0.972
     9   7 N    2.945 --     7 C    1.709    10 N    0.984     6 O    0.135
    10   7 N    3.056 --     9 N    0.984    11 C    0.970     5 C    0.950
    11   6 C    3.982 --    20 H    0.989    18 H    0.988    19 H    0.984
                            10 N    0.970
    12   1 H    1.022 --     1 C    0.981
    13   1 H    1.021 --     1 C    0.987
    14   1 H    1.024 --     1 C    0.980
    15   1 H    1.003 --     8 C    0.974
    16   1 H    1.006 --     8 C    0.987
    17   1 H    1.004 --     8 C    0.972
    18   1 H    1.029 --    11 C    0.988
    19   1 H    1.021 --    11 C    0.984
    20   1 H    1.025 --    11 C    0.989
 ---------------------------------------------------------------------------

           -------------------------------------------------
          | TOTAL ENERGY              -38.324831682728 Eh   |
          | GRADIENT NORM               0.000599999292 Eh/α |
          | HOMO-LUMO GAP               2.439533326316 eV   |
           -------------------------------------------------

 * finished run on 2023/06/20 at 14:53:39.373
