   * xtb version 6.5.1 (579679a) compiled by 'ehlert@majestix' on 2022-07-11
          program call               : /lustre/hpc/kemi/ree/PhD/git/ReactivityQM/dep/xtb-6.5.1/bin/xtb --gfn 1 /lustre/hpc/kemi/ree/PhD/git/ReactivityQM/calculations/R03/reac02prodN10/conf12/R03_reac02prodN10_conf12_gfn1.xyz --opt --vfukui --chrg 1 --uhf 0 --alpb DMSO

   ID    Z sym.   atoms
    1    6 C      1, 3, 5, 6, 8, 11-16, 18, 20, 23, 24
    2    8 O      2, 4, 7, 9, 19, 25
    3    7 N      10, 17, 21, 22, 26
    4    1 H      27-46

      * Solvation model:               ALPB
        Solvent                        DMSO
        Solvent mass                       7.8130E+01 g/mol
          :  Hamiltonian                  GFN1-xTB          :
 * total energy  :   -86.2786465 Eh     change       -0.1428191E-10 Eh
 * total energy  :   -86.2961250 Eh     change       -0.1747853E-01 Eh
 * total energy  :   -86.3032708 Eh     change       -0.7145713E-02 Eh
 * total energy  :   -86.3049146 Eh     change       -0.1643878E-02 Eh
 * total energy  :   -86.3061887 Eh     change       -0.1274044E-02 Eh
 * total energy  :   -86.3069968 Eh     change       -0.8081692E-03 Eh
 * total energy  :   -86.3077346 Eh     change       -0.7377599E-03 Eh
 * total energy  :   -86.3084329 Eh     change       -0.6982687E-03 Eh
 * total energy  :   -86.3089602 Eh     change       -0.5273677E-03 Eh
 * total energy  :   -86.3093090 Eh     change       -0.3487420E-03 Eh
 * total energy  :   -86.3102590 Eh     change       -0.1185476E-04 Eh
 * total energy  :   -86.3102680 Eh     change       -0.9011682E-05 Eh
 * total energy  :   -86.3102759 Eh     change       -0.7894860E-05 Eh
 * total energy  :   -86.3102835 Eh     change       -0.7613208E-05 Eh
 * total energy  :   -86.3102916 Eh     change       -0.8148260E-05 Eh
 * total energy  :   -86.3103007 Eh     change       -0.9074718E-05 Eh
 * total energy  :   -86.3103109 Eh     change       -0.1020843E-04 Eh
 * total energy  :   -86.3103218 Eh     change       -0.1087548E-04 Eh
 * total energy  :   -86.3103250 Eh     change       -0.3240324E-05 Eh
   *** GEOMETRY OPTIMIZATION CONVERGED AFTER 44 ITERATIONS ***

 final structure:
================
46
 xtb: 6.5.1 (579679a)
C           -6.15141178626053       -0.87760879706219       -1.78189735595858
O           -5.08543741896822       -0.74629766884604       -0.82512222386653
C           -3.92342287385888       -0.33343443078178       -1.28237382762903
O           -3.67809578197500       -0.06316989139019       -2.42834046639776
C           -2.87208363776151       -0.21873654961232       -0.19326070311609
C           -2.92129739130675       -0.84895256401179        1.06294257785689
O           -3.89036326147081       -1.60729153527871        1.45443679508961
C           -1.84941189055181       -0.60366242264174        2.05258537942959
O           -1.94718577864123       -1.06385169007294        3.17665080662613
N           -0.83421861921705        0.19554691258662        1.62661088889355
C            0.12357608358691        0.59351360023215        2.65591018350495
C           -0.72693701644145        0.67495874958471        0.28605894874390
C           -0.22773541356849        2.11955760495718        0.23063555065556
C            0.36987006242090       -0.31802341204936       -0.57039159512053
C            0.42701974908936        0.18696504375852       -2.00695299828508
C           -0.13475390581788       -1.74849395333594       -0.51019724741582
N            1.64084308066123       -0.13100084314034        0.02274418977198
C            2.23575145057621       -0.93075239479240        0.97670166318077
O            1.69684359661426       -1.86215721209681        1.53149037423517
C            3.62010967692940       -0.50998131938535        1.24424140955024
N            4.49177280538708       -1.06773489297969        2.02873430687868
N            5.62295176899127       -0.32697325180226        1.94846745455551
C            5.38180024600493        0.64531786989212        1.11934952823520
C            6.29349069607019        1.72550544303177        0.69098236182909
O            4.13062237626734        0.58477557496411        0.63852232758458
N           -1.84256835599681        0.52797889472163       -0.50555625361577
H           -7.00547214047004       -1.27143104566665       -1.23557232386763
H           -6.38366317369345        0.10021449172012       -2.20799810950262
H           -5.85025215686711       -1.56245759228032       -2.57669255639270
H           -3.73136715106709       -1.92929907004363        2.37124430483660
H            1.04965439400462        0.91902860120893        2.19667922761073
H           -0.30719428743388        1.41125891369295        3.23501221866603
H            0.29716712465524       -0.26403750047219        3.30627544539186
H           -0.41466273627960        2.52430271938395       -0.76095718913522
H           -0.78955221929052        2.70261824214188        0.95860201743669
H            0.83166374214195        2.19190408093593        0.45735719943826
H            0.81979167516159        1.19920810736956       -2.06182603274819
H            1.09620814265514       -0.46872134270300       -2.56429529875553
H           -0.56251697975434        0.16083878489712       -2.46021537822375
H           -0.96253631366554       -1.87323526234505       -1.20588184714525
H            0.67585278643297       -2.41374683078707       -0.80512882654954
H           -0.46238888428966       -2.03709161053192        0.48589294144292
H            2.20634285796739        0.61981558402162       -0.34531805047035
H            7.23865657007996        1.64587276234196        1.22336798297634
H            5.83588123997027        2.69395163388680        0.89077136987707
H            6.46866004897964        1.65500846877952       -0.38290617010071

          :  Hamiltonian                  GFN1-xTB          :
         :: total energy             -86.310325025247 Eh    ::
         :: gradient norm              0.000334041736 Eh/a0 ::
         :: HOMO-LUMO gap              1.170919739651 eV    ::
         :: SCC energy               -87.137272067634 Eh    ::
         :: -> Gsolv                  -0.113214133509 Eh    ::
         :: repulsion energy           0.859073544673 Eh    ::

    * Orbital Energies and Occupations

         #    Occupation            Energy/Eh            Energy/eV
      -------------------------------------------------------------
         1        2.0000           -0.8901685             -24.2227
       ...           ...                  ...                  ...
        58        2.0000           -0.5302101             -14.4278
        59        2.0000           -0.5285919             -14.3837
        60        2.0000           -0.5221777             -14.2092
        61        2.0000           -0.5199360             -14.1482
        62        2.0000           -0.5170824             -14.0705
        63        2.0000           -0.5096800             -13.8691
        64        2.0000           -0.5001000             -13.6084
        65        2.0000           -0.4974236             -13.5356
        66        2.0000           -0.4911962             -13.3661
        67        2.0000           -0.4890576             -13.3079
        68        2.0000           -0.4773225             -12.9886
        69        2.0000           -0.4691409             -12.7660
        70        2.0000           -0.4683649             -12.7449 (HOMO)
        71                         -0.4253344             -11.5739 (LUMO)
        72                         -0.3528769              -9.6023
        73                         -0.3374781              -9.1832
        74                         -0.2774596              -7.5501
        75                         -0.2709784              -7.3737
        76                         -0.2273248              -6.1858
        77                         -0.2207821              -6.0078
        78                         -0.1665749              -4.5327
        79                         -0.1539919              -4.1903
        80                         -0.1496106              -4.0711
        81                         -0.1492784              -4.0621
       ...                                ...                  ...
       144                          0.7213466              19.6288
      -------------------------------------------------------------
                  HL-Gap            0.0430305 Eh            1.1709 eV

Wiberg/Mayer (AO) data.
largest (>0.10) Wiberg bond orders for each atom

     #   Z sym  total        # sym  WBO       # sym  WBO       # sym  WBO
 ---------------------------------------------------------------------------
     1   6 C    3.849 --    27 H    0.985    29 H    0.978    28 H    0.978
                             2 O    0.875
     2   8 O    2.228 --     3 C    1.158     1 C    0.875     4 O    0.149
     3   6 C    3.862 --     4 O    1.689     2 O    1.158     5 C    0.944
     4   8 O    1.957 --     3 C    1.689     2 O    0.149
     5   6 C    3.956 --    26 N    1.501     6 C    1.253     3 C    0.944
     6   6 C    3.860 --     7 O    1.281     5 C    1.253     8 C    1.008
     7   8 O    2.214 --     6 C    1.281    30 H    0.760
     8   6 C    3.924 --     9 O    1.585    10 N    1.205     6 C    1.008
     9   8 O    1.935 --     8 C    1.585    10 N    0.179
    10   7 N    3.500 --     8 C    1.205    12 C    0.997    11 C    0.924
                             9 O    0.179
    11   6 C    3.906 --    31 H    0.977    33 H    0.970    32 H    0.961
                            10 N    0.924
    12   6 C    3.910 --    26 N    1.147    10 N    0.997    13 C    0.957
                            14 C    0.655
    13   6 C    3.967 --    36 H    0.978    34 H    0.978    35 H    0.972
                            12 C    0.957
    14   6 C    3.896 --    17 N    1.040    16 C    1.010    15 C    1.000
                            12 C    0.655
    15   6 C    3.978 --    14 C    1.000    39 H    0.977    37 H    0.977
                            38 H    0.967
    16   6 C    3.983 --    14 C    1.010    40 H    0.982    42 H    0.971
                            41 H    0.961
    17   7 N    3.384 --    18 C    1.137    14 C    1.040    43 H    0.881
                            19 O    0.130
    18   6 C    3.902 --    19 O    1.639    17 N    1.137    20 C    1.018
    19   8 O    1.949 --    18 C    1.639    17 N    0.130
    20   6 C    3.876 --    21 N    1.597    25 O    1.044    18 C    1.018
    21   7 N    3.005 --    20 C    1.597    22 N    1.224
    22   7 N    2.981 --    23 C    1.583    21 N    1.224
    23   6 C    3.855 --    22 N    1.583    25 O    1.077    24 C    1.036
    24   6 C    3.982 --    23 C    1.036    44 H    0.981    45 H    0.960
                            46 H    0.957
    25   8 O    2.322 --    23 C    1.077    20 C    1.044
    26   7 N    3.038 --     5 C    1.501    12 C    1.147
    27   1 H    1.007 --     1 C    0.985
    28   1 H    1.002 --     1 C    0.978
    29   1 H    1.003 --     1 C    0.978
    30   1 H    0.808 --     7 O    0.760
    31   1 H    1.001 --    11 C    0.977
    32   1 H    0.993 --    11 C    0.961
    33   1 H    1.003 --    11 C    0.970
    34   1 H    0.999 --    13 C    0.978
    35   1 H    0.992 --    13 C    0.972
    36   1 H    0.996 --    13 C    0.978
    37   1 H    0.994 --    15 C    0.977
    38   1 H    0.989 --    15 C    0.967
    39   1 H    1.008 --    15 C    0.977
    40   1 H    1.000 --    16 C    0.982
    41   1 H    0.996 --    16 C    0.961
    42   1 H    1.011 --    16 C    0.971
    43   1 H    0.930 --    17 N    0.881
    44   1 H    0.996 --    24 C    0.981
    45   1 H    0.994 --    24 C    0.960
    46   1 H    0.994 --    24 C    0.957
 ---------------------------------------------------------------------------

           -------------------------------------------------
          | TOTAL ENERGY              -86.310325025247 Eh   |
          | GRADIENT NORM               0.000334041736 Eh/α |
          | HOMO-LUMO GAP               1.170919739651 eV   |
           -------------------------------------------------

 * finished run on 2023/06/20 at 15:45:07.561
