   * xtb version 6.5.1 (579679a) compiled by 'ehlert@majestix' on 2022-07-11
          program call               : /lustre/hpc/kemi/ree/PhD/git/ReactivityQM/dep/xtb-6.5.1/bin/xtb --gfn 1 /lustre/hpc/kemi/ree/PhD/git/ReactivityQM/calculations/R01/reac02prodN12/conf07/R01_reac02prodN12_conf07_gfn1.xyz --opt --vfukui --chrg 1 --uhf 0 --alpb DMSO

   ID    Z sym.   atoms
    1    6 C      1, 3, 5, 7-10, 13, 15, 16
    2    8 O      2, 4, 14, 17
    3    7 N      6, 11, 12
    4    1 H      18-33

      * Solvation model:               ALPB
        Solvent                        DMSO
        Solvent mass                       7.8130E+01 g/mol
          :  Hamiltonian                  GFN1-xTB          :
 * total energy  :   -57.8352676 Eh     change       -0.3502976E-11 Eh
 * total energy  :   -57.8529516 Eh     change       -0.1768397E-01 Eh
 * total energy  :   -57.8586311 Eh     change       -0.5679509E-02 Eh
 * total energy  :   -57.8599422 Eh     change       -0.1311154E-02 Eh
 * total energy  :   -57.8607164 Eh     change       -0.7742203E-03 Eh
 * total energy  :   -57.8609372 Eh     change       -0.2207920E-03 Eh
 * total energy  :   -57.8610432 Eh     change       -0.1059618E-03 Eh
 * total energy  :   -57.8610937 Eh     change       -0.5053472E-04 Eh
 * total energy  :   -57.8611153 Eh     change       -0.2159812E-04 Eh
 * total energy  :   -57.8611297 Eh     change       -0.1438992E-04 Eh
 * total energy  :   -57.8611364 Eh     change       -0.6714883E-05 Eh
 * total energy  :   -57.8611396 Eh     change       -0.3134063E-05 Eh
   *** GEOMETRY OPTIMIZATION CONVERGED AFTER 12 ITERATIONS ***

 final structure:
================
33
 xtb: 6.5.1 (579679a)
C            3.83674490350617       -2.67427195789186       -0.14377606293793
O            2.58463713870179       -1.96824200599077       -0.10876466865235
C            2.63803713668897       -0.67488805374639        0.09888096866847
O            3.66474467479070       -0.04589166028267        0.26267491966515
C            1.29568040750625       -0.00982213664579        0.11764098333177
N            0.20697958959805       -0.77606744935382       -0.06260539484343
C           -0.98060863793589       -0.23640758582465       -0.06026705716804
C           -2.19136013778174       -1.12443097470166       -0.28704147657472
C           -3.46583903124908       -0.53782318890327        0.32077471597407
C           -2.34409178346243       -1.32029906671312       -1.80445383061567
N           -1.93101083578604       -2.41605692771882        0.32570242785434
N           -1.11639169874640        1.10797443002276        0.11696438575967
C           -0.08115534843123        1.94135130078024        0.31260191575211
O           -0.42567171966465        3.19245598763898        0.46939560975463
C            0.52302441461280        4.25547399902522        0.67320908361673
C            1.21579326453547        1.36768063296108        0.31665197376867
O            2.27250481584654        2.14894712139635        0.50121191060974
H            4.45719053691481       -2.27966902009326       -0.95057660960367
H            4.35374706125900       -2.55147180337205        0.80959106179919
H            3.59364883145831       -3.71985595722162       -0.31933758609472
H           -3.77532279773849        0.36057920510928       -0.21066027479032
H           -4.26266649134154       -1.27677773313634        0.24456523140172
H           -3.31024860388986       -0.29797774106334        1.37132957515033
H           -3.16529277351874       -2.01070996728682       -1.99173942949836
H           -2.55472672105648       -0.36864180763433       -2.28884652344457
H           -1.42640912000023       -1.73530500214402       -2.21913334092037
H           -1.04486056819121       -2.77073050588530       -0.01658090849925
H           -1.84973185496004       -2.29867860460898        1.32683972387652
H           -2.03319043327627        1.53929816049398        0.10987732026927
H            1.19522088360333        4.32702426697416       -0.18243529692563
H            1.09113953063853        4.08323128280448        1.58771218151579
H           -0.07806675313772        5.15937755203272        0.76259668426313
H            3.10755412050739        1.61062421097854        0.47881978753806

          :  Hamiltonian                  GFN1-xTB          :
         :: total energy             -57.861139560314 Eh    ::
         :: gradient norm              0.000462067279 Eh/a0 ::
         :: HOMO-LUMO gap              1.548791738088 eV    ::
         :: SCC energy               -58.432175752870 Eh    ::
         :: -> Gsolv                  -0.090661165531 Eh    ::
         :: repulsion energy           0.589071061502 Eh    ::

    * Orbital Energies and Occupations

         #    Occupation            Energy/Eh            Energy/eV
      -------------------------------------------------------------
         1        2.0000           -0.8933352             -24.3089
       ...           ...                  ...                  ...
        35        2.0000           -0.5377050             -14.6317
        36        2.0000           -0.5338964             -14.5281
        37        2.0000           -0.5302120             -14.4278
        38        2.0000           -0.5294895             -14.4081
        39        2.0000           -0.5271767             -14.3452
        40        2.0000           -0.5249928             -14.2858
        41        2.0000           -0.5157282             -14.0337
        42        2.0000           -0.5131541             -13.9636
        43        2.0000           -0.5066335             -13.7862
        44        2.0000           -0.5047234             -13.7342
        45        2.0000           -0.4818476             -13.1117
        46        2.0000           -0.4751725             -12.9301
        47        2.0000           -0.4333514             -11.7921 (HOMO)
        48                         -0.3764344             -10.2433 (LUMO)
        49                         -0.3288634              -8.9488
        50                         -0.2846757              -7.7464
        51                         -0.2015013              -5.4831
        52                         -0.1646003              -4.4790
        53                         -0.1534236              -4.1749
        54                         -0.1471859              -4.0051
        55                         -0.1374987              -3.7415
        56                         -0.1251650              -3.4059
        57                         -0.1038988              -2.8272
        58                         -0.1014603              -2.7609
       ...                                ...                  ...
       100                          0.6843923              18.6233
      -------------------------------------------------------------
                  HL-Gap            0.0569170 Eh            1.5488 eV

Wiberg/Mayer (AO) data.
largest (>0.10) Wiberg bond orders for each atom

     #   Z sym  total        # sym  WBO       # sym  WBO       # sym  WBO
 ---------------------------------------------------------------------------
     1   6 C    3.848 --    20 H    0.985    18 H    0.977    19 H    0.977
                             2 O    0.875
     2   8 O    2.245 --     3 C    1.176     1 C    0.875     4 O    0.142
     3   6 C    3.857 --     4 O    1.622     2 O    1.176     5 C    0.984
     4   8 O    1.973 --     3 C    1.622     2 O    0.142
     5   6 C    3.970 --    16 C    1.373     6 N    1.302     3 C    0.984
     6   7 N    3.050 --     7 C    1.498     5 C    1.302
     7   6 C    3.890 --     6 N    1.498    12 N    1.185     8 C    0.970
     8   6 C    3.963 --     9 C    0.997    11 N    0.994     7 C    0.970
                            10 C    0.968
     9   6 C    3.991 --     8 C    0.997    23 H    0.984    21 H    0.981
                            22 H    0.980
    10   6 C    3.989 --    25 H    0.986    26 H    0.984    24 H    0.980
                             8 C    0.968
    11   7 N    2.963 --     8 C    0.994    28 H    0.939    27 H    0.936
    12   7 N    3.537 --    13 C    1.262     7 C    1.185    29 H    0.863
    13   6 C    3.893 --    12 N    1.262    16 C    1.210    14 O    1.178
    14   8 O    2.255 --    13 C    1.178    15 C    0.858
    15   6 C    3.826 --    32 H    0.981    30 H    0.976    31 H    0.976
                            14 O    0.858
    16   6 C    3.934 --     5 C    1.373    13 C    1.210    17 O    1.136
    17   8 O    2.095 --    16 C    1.136    33 H    0.742
    18   1 H    1.002 --     1 C    0.977
    19   1 H    1.002 --     1 C    0.977
    20   1 H    1.007 --     1 C    0.985
    21   1 H    0.998 --     9 C    0.981
    22   1 H    1.001 --     9 C    0.980
    23   1 H    0.997 --     9 C    0.984
    24   1 H    1.001 --    10 C    0.980
    25   1 H    1.000 --    10 C    0.986
    26   1 H    1.000 --    10 C    0.984
    27   1 H    0.964 --    11 N    0.936
    28   1 H    0.954 --    11 N    0.939
    29   1 H    0.913 --    12 N    0.863
    30   1 H    1.005 --    15 C    0.976
    31   1 H    1.005 --    15 C    0.976
    32   1 H    1.004 --    15 C    0.981
    33   1 H    0.827 --    17 O    0.742
 ---------------------------------------------------------------------------

           -------------------------------------------------
          | TOTAL ENERGY              -57.861139560314 Eh   |
          | GRADIENT NORM               0.000462067279 Eh/α |
          | HOMO-LUMO GAP               1.548791738088 eV   |
           -------------------------------------------------

 * finished run on 2023/06/20 at 15:11:42.753
