   * xtb version 6.5.1 (579679a) compiled by 'ehlert@majestix' on 2022-07-11
          program call               : /lustre/hpc/kemi/ree/PhD/git/ReactivityQM/dep/xtb-6.5.1/bin/xtb --gfn 1 /lustre/hpc/kemi/ree/PhD/git/ReactivityQM/calculations/RaltegravirCLI/reac01prodN03/conf04/RaltegravirCLI_reac01prodN03_conf04_gfn1.xyz --opt --vfukui --chrg 1 --uhf 0 --alpb DMSO

   ID    Z sym.   atoms
    1    6 C      1, 2, 5-7
    2    7 N      3, 4
    3    8 O      8, 10
    4   17 Cl     9
    5    1 H      11-16

      * Solvation model:               ALPB
        Solvent                        DMSO
        Solvent mass                       7.8130E+01 g/mol
          :  Hamiltonian                  GFN1-xTB          :
 * total energy  :   -33.4331478 Eh     change       -0.3623768E-12 Eh
 * total energy  :   -33.4385084 Eh     change       -0.5360672E-02 Eh
 * total energy  :   -33.4406035 Eh     change       -0.2095082E-02 Eh
 * total energy  :   -33.4408879 Eh     change       -0.2844147E-03 Eh
 * total energy  :   -33.4410209 Eh     change       -0.1329562E-03 Eh
 * total energy  :   -33.4410623 Eh     change       -0.4142149E-04 Eh
 * total energy  :   -33.4410747 Eh     change       -0.1239223E-04 Eh
 * total energy  :   -33.4410840 Eh     change       -0.9252272E-05 Eh
 * total energy  :   -33.4410928 Eh     change       -0.8843586E-05 Eh
 * total energy  :   -33.4411044 Eh     change       -0.1155288E-04 Eh
 * total energy  :   -33.4412139 Eh     change       -0.2009838E-04 Eh
 * total energy  :   -33.4411397 Eh     change        0.7419818E-04 Eh
 * total energy  :   -33.4412472 Eh     change       -0.1074634E-03 Eh
 * total energy  :   -33.4412555 Eh     change       -0.8315210E-05 Eh
 * total energy  :   -33.4412680 Eh     change       -0.1254050E-04 Eh
 * total energy  :   -33.4412857 Eh     change       -0.1764775E-04 Eh
 * total energy  :   -33.4412943 Eh     change       -0.8611130E-05 Eh
 * total energy  :   -33.4412959 Eh     change       -0.1608366E-05 Eh
 * total energy  :   -33.4412989 Eh     change       -0.2989267E-05 Eh
   *** GEOMETRY OPTIMIZATION CONVERGED AFTER 24 ITERATIONS ***

 final structure:
================
16
 xtb: 6.5.1 (579679a)
C            2.84619598203495       -0.13281472625736       -0.18573470568007
C            1.38026908252615       -0.09033283586968       -0.08201487797244
N            0.56584342562363       -1.06198150236467        0.23822464123413
N           -0.65588819139301       -0.52387011429954        0.19434192814044
C           -1.81919949828533       -1.33299440371322        0.48713896495736
C           -0.57678444266680        0.74618868512983       -0.14703091405185
C           -1.70749318776229        1.70600496503313       -0.30890884263828
O           -2.83262914556328        1.34038170804125       -0.13440051801715
Cl          -1.24429374564570        3.27302747188500       -0.74677751564017
O            0.70167046980872        1.03915211381769       -0.32471257578212
H            3.28262494477596        0.57364097546247        0.52267408671658
H            3.15149692401893        0.17401650365704       -1.18763556505892
H            3.20403826130306       -1.13838574062599        0.02322874564367
H           -2.48264082832932       -0.77153939005484        1.14147980066404
H           -1.47911138642516       -2.25052960059650        0.95834780091612
H           -2.33409966402047       -1.54996310924460       -0.44822045343135

          :  Hamiltonian                  GFN1-xTB          :
         :: total energy             -33.441298889004 Eh    ::
         :: gradient norm              0.000887008135 Eh/a0 ::
         :: HOMO-LUMO gap              2.997825320223 eV    ::
         :: SCC energy               -33.735364547274 Eh    ::
         :: -> Gsolv                  -0.081431365998 Eh    ::
         :: repulsion energy           0.301340237161 Eh    ::

    * Orbital Energies and Occupations

         #    Occupation            Energy/Eh            Energy/eV
      -------------------------------------------------------------
         1        2.0000           -0.9907840             -26.9606
       ...           ...                  ...                  ...
        15        2.0000           -0.6351344             -17.2829
        16        2.0000           -0.6345147             -17.2660
        17        2.0000           -0.6266500             -17.0520
        18        2.0000           -0.5976338             -16.2624
        19        2.0000           -0.5901126             -16.0578
        20        2.0000           -0.5770773             -15.7031
        21        2.0000           -0.5710193             -15.5382
        22        2.0000           -0.5629154             -15.3177
        23        2.0000           -0.5532478             -15.0546
        24        2.0000           -0.5305913             -14.4381
        25        2.0000           -0.5284059             -14.3787
        26        2.0000           -0.5206281             -14.1670
        27        2.0000           -0.5122923             -13.9402 (HOMO)
        28                         -0.4021242             -10.9424 (LUMO)
        29                         -0.3327048              -9.0534
        30                         -0.2971095              -8.0848
        31                         -0.2448999              -6.6641
        32                         -0.1756522              -4.7797
        33                         -0.1704286              -4.6376
        34                         -0.1186841              -3.2296
        35                         -0.1157991              -3.1511
        36                         -0.1154773              -3.1423
        37                         -0.1109835              -3.0200
        38                         -0.1049614              -2.8561
       ...                                ...                  ...
        57                          0.6930526              18.8589
      -------------------------------------------------------------
                  HL-Gap            0.1101681 Eh            2.9978 eV

Wiberg/Mayer (AO) data.
largest (>0.10) Wiberg bond orders for each atom

     #   Z sym  total        # sym  WBO       # sym  WBO       # sym  WBO
 ---------------------------------------------------------------------------
     1   6 C    3.966 --     2 C    1.047    13 H    0.976    12 H    0.946
                            11 H    0.944
     2   6 C    3.834 --     3 N    1.538    10 O    1.085     1 C    1.047
     3   7 N    2.971 --     2 C    1.538     4 N    1.186
     4   7 N    3.675 --     6 C    1.436     3 N    1.186     5 C    0.908
     5   6 C    3.872 --    15 H    0.977    14 H    0.963    16 H    0.954
                             4 N    0.908
     6   6 C    3.856 --     4 N    1.436    10 O    1.126     7 C    0.986
     7   6 C    3.908 --     8 O    1.755     9 Cl   1.118     6 C    0.986
     8   8 O    2.054 --     7 C    1.755     9 Cl   0.177
     9  17 Cl   1.361 --     7 C    1.118     8 O    0.177
    10   8 O    2.379 --     6 C    1.126     2 C    1.085
    11   1 H    0.986 --     1 C    0.944
    12   1 H    0.986 --     1 C    0.946
    13   1 H    0.989 --     1 C    0.976
    14   1 H    0.996 --     5 C    0.963
    15   1 H    0.991 --     5 C    0.977
    16   1 H    0.989 --     5 C    0.954
 ---------------------------------------------------------------------------

           -------------------------------------------------
          | TOTAL ENERGY              -33.441298889004 Eh   |
          | GRADIENT NORM               0.000887008135 Eh/α |
          | HOMO-LUMO GAP               2.997825320223 eV   |
           -------------------------------------------------

 * finished run on 2023/06/20 at 14:54:31.966
