   * xtb version 6.5.1 (579679a) compiled by 'ehlert@majestix' on 2022-07-11
          program call               : /lustre/hpc/kemi/ree/PhD/git/ReactivityQM/dep/xtb-6.5.1/bin/xtb --gfn 1 /lustre/hpc/kemi/ree/PhD/git/ReactivityQM/calculations/RaltegravirCLI/reac02prodE04/conf08/RaltegravirCLI_reac02prodE04_conf08_gfn1.xyz --opt --vfukui --chrg -1 --uhf 0 --alpb DMSO

   ID    Z sym.   atoms
    1    6 C      1, 3, 5, 7-9, 12-16, 18, 19, 21-24
    2    7 N      2, 11, 20, 25
    3    8 O      4, 6, 10
    4    9 F      17
    5    1 H      26-47

      * Solvation model:               ALPB
        Solvent                        DMSO
        Solvent mass                       7.8130E+01 g/mol
          :  Hamiltonian                  GFN1-xTB          :
 * total energy  :   -80.1893173 Eh     change       -0.1998046E-10 Eh
 * total energy  :   -80.2046439 Eh     change       -0.1532666E-01 Eh
 * total energy  :   -80.2085557 Eh     change       -0.3911754E-02 Eh
 * total energy  :   -80.2091995 Eh     change       -0.6438329E-03 Eh
 * total energy  :   -80.2097207 Eh     change       -0.5211663E-03 Eh
 * total energy  :   -80.2098885 Eh     change       -0.1678629E-03 Eh
 * total energy  :   -80.2100366 Eh     change       -0.1480516E-03 Eh
 * total energy  :   -80.2101397 Eh     change       -0.1031492E-03 Eh
 * total energy  :   -80.2102302 Eh     change       -0.9042222E-04 Eh
 * total energy  :   -80.2103142 Eh     change       -0.8406355E-04 Eh
 * total energy  :   -80.2103769 Eh     change       -0.6267434E-04 Eh
 * total energy  :   -80.2104203 Eh     change       -0.4335669E-04 Eh
 * total energy  :   -80.2104514 Eh     change       -0.3117277E-04 Eh
 * total energy  :   -80.2104779 Eh     change       -0.2649179E-04 Eh
 * total energy  :   -80.2104963 Eh     change       -0.1835255E-04 Eh
 * total energy  :   -80.2105081 Eh     change       -0.1182751E-04 Eh
 * total energy  :   -80.2105179 Eh     change       -0.9792720E-05 Eh
 * total energy  :   -80.2105224 Eh     change       -0.4451566E-05 Eh
   *** GEOMETRY OPTIMIZATION CONVERGED AFTER 18 ITERATIONS ***

 final structure:
================
47
 xtb: 6.5.1 (579679a)
C           -3.64575077063867       -2.30138952310474       -0.45646885007986
N           -2.52064419113537       -1.47230034145008       -0.04206461867984
C           -1.53719612442352       -2.19783115004492        0.76750183997486
O           -1.77809816617294       -3.41792018226733        1.03152341467878
C           -0.48116706121173       -1.45280373746155        1.17042566213718
O            0.54841690816508       -2.05007842403124        1.96340169610217
C           -0.24444677256441       -0.03533258952204        0.76178115126543
C            0.32924154032665        0.81246124032872        1.92061809715575
C            0.79010384014791        0.07946426426297       -0.39633311640367
O            0.70237701462905        0.89136214010523       -1.31287372618129
N            1.80661402286602       -0.80810158527839       -0.32424497055953
C            2.90201827503184       -0.78710425573979       -1.27887600206230
C            4.09102088062110       -0.02075053136513       -0.73817665349264
C            5.31661821805416       -0.65507685052354       -0.55301729812652
C            6.40801456530806        0.04287876503560       -0.05229285652495
C            6.24317421016032        1.37990541655055        0.25732000680266
F            7.29404519312165        2.06412853130977        0.74454769684475
C            5.04176779813150        2.04373323316775        0.08289126654515
C            3.96352981291385        1.33094270084974       -0.41982426380753
N           -1.48170755981092        0.59248025311624        0.31922115206731
C           -2.48837254576573       -0.11056768254382       -0.06830437412950
C           -3.69474900946358        0.71280224068387       -0.54712084056944
C           -3.29985900341290        2.19782267238726       -0.62943756619339
C           -4.85866026491992        0.56852725227944        0.44282022570917
N           -4.13822781440680        0.26472746452702       -1.87159676962328
H           -3.25618209320310       -3.25516367030558       -0.82298748363210
H           -4.31291147676627       -2.51078589479302        0.38684694075853
H           -4.20619111298211       -1.82244536932955       -1.25626685117079
H            0.25165171188879       -2.95446904756914        2.14576573983015
H            0.48482619098833        1.83872462055563        1.58834525808012
H            1.27680992333234        0.39581108661136        2.25907103914832
H           -0.37562507788877        0.81383264907365        2.75177410707106
H            1.91141407048859       -1.40526020312787        0.48426153194692
H            3.18975180716214       -1.81664059278585       -1.50985687060870
H            2.53895518300664       -0.30851463768540       -2.19626861171990
H            5.42720581972385       -1.70426225965272       -0.80213623199285
H            7.36537862709328       -0.43897794816662        0.09433959818579
H            4.95892252813624        3.09363177251834        0.33217221108204
H            3.01201427658801        1.83086929321845       -0.56838091647259
H           -4.13379877731331        2.77641850850989       -1.02464375514599
H           -3.04065850874753        2.57767732851803        0.35856571133106
H           -2.43861000824689        2.32311775430829       -1.28584318015022
H           -4.52248872802746        0.80851003547792        1.45153698698645
H           -5.66114235053675        1.25432216500465        0.17222471252146
H           -5.26084275802860       -0.44255994313355        0.43794363704942
H           -5.01179183962784        0.71998711868450       -2.09256454432056
H           -3.46474840258263        0.55419691278731       -2.57019333162110

          :  Hamiltonian                  GFN1-xTB          :
         :: total energy             -80.210522350303 Eh    ::
         :: gradient norm              0.000794028339 Eh/a0 ::
         :: HOMO-LUMO gap              0.886982032857 eV    ::
         :: SCC energy               -81.072539373024 Eh    ::
         :: -> Gsolv                  -0.109202155969 Eh    ::
         :: repulsion energy           0.893315373904 Eh    ::

    * Orbital Energies and Occupations

         #    Occupation            Energy/Eh            Energy/eV
      -------------------------------------------------------------
         1        2.0000           -0.8592763             -23.3821
       ...           ...                  ...                  ...
        56        2.0000           -0.4597921             -12.5116
        57        2.0000           -0.4538465             -12.3498
        58        2.0000           -0.4472324             -12.1698
        59        2.0000           -0.4458930             -12.1334
        60        2.0000           -0.4387398             -11.9387
        61        2.0000           -0.4318581             -11.7515
        62        2.0000           -0.4155425             -11.3075
        63        2.0000           -0.4135803             -11.2541
        64        2.0000           -0.3939361             -10.7195
        65        2.0000           -0.3757235             -10.2240
        66        2.0000           -0.3719015             -10.1200
        67        2.0000           -0.3600830              -9.7984
        68        2.0000           -0.3003204              -8.1721 (HOMO)
        69                         -0.2677244              -7.2852 (LUMO)
        70                         -0.2603944              -7.0857
        71                         -0.2168071              -5.8996
        72                         -0.2069552              -5.6315
        73                         -0.1396371              -3.7997
        74                         -0.1249205              -3.3993
        75                         -0.1139664              -3.1012
        76                         -0.1111017              -3.0232
        77                         -0.1027712              -2.7965
        78                         -0.0979528              -2.6654
        79                         -0.0968476              -2.6354
       ...                                ...                  ...
       144                          0.6979972              18.9935
      -------------------------------------------------------------
                  HL-Gap            0.0325960 Eh            0.8870 eV

Wiberg/Mayer (AO) data.
largest (>0.10) Wiberg bond orders for each atom

     #   Z sym  total        # sym  WBO       # sym  WBO       # sym  WBO
 ---------------------------------------------------------------------------
     1   6 C    3.961 --    26 H    0.981    27 H    0.980    28 H    0.977
                             2 N    0.958
     2   7 N    3.363 --    21 C    1.198     1 C    0.958     3 C    0.900
                            20 N    0.169
     3   6 C    3.920 --     5 C    1.554     4 O    1.335     2 N    0.900
     4   8 O    1.691 --     3 C    1.335     5 C    0.180
     5   6 C    3.776 --     3 C    1.554     7 C    0.992     6 O    0.923
                             4 O    0.180
     6   8 O    1.927 --     5 C    0.923    29 H    0.856
     7   6 C    3.967 --     5 C    0.992    20 N    0.977     8 C    0.966
                             9 C    0.906
     8   6 C    3.997 --    30 H    0.988    31 H    0.987    32 H    0.985
                             7 C    0.966
     9   6 C    3.864 --    10 O    1.584    11 N    1.255     7 C    0.906
    10   8 O    1.868 --     9 C    1.584    11 N    0.156
    11   7 N    3.322 --     9 C    1.255    12 C    0.952    33 H    0.893
                            10 O    0.156
    12   6 C    3.959 --    13 C    0.995    34 H    0.978    35 H    0.964
                            11 N    0.952
    13   6 C    3.988 --    14 C    1.423    19 C    1.411    12 C    0.995
    14   6 C    3.994 --    15 C    1.438    13 C    1.423    36 H    0.971
                            18 C    0.109
    15   6 C    3.991 --    14 C    1.438    16 C    1.405    37 H    0.970
                            19 C    0.111
    16   6 C    3.858 --    15 C    1.405    18 C    1.397    17 F    0.920
    17   9 F    1.046 --    16 C    0.920
    18   6 C    3.992 --    19 C    1.449    16 C    1.397    38 H    0.970
                            14 C    0.109
    19   6 C    3.993 --    18 C    1.449    13 C    1.411    39 H    0.970
                            15 C    0.111
    20   7 N    2.977 --    21 C    1.644     7 C    0.977     2 N    0.169
    21   6 C    3.946 --    20 N    1.644     2 N    1.198    22 C    0.963
    22   6 C    3.963 --    23 C    0.993    24 C    0.992    25 N    0.974
                            21 C    0.963
    23   6 C    3.997 --    22 C    0.993    40 H    0.987    41 H    0.984
                            42 H    0.984
    24   6 C    3.996 --    22 C    0.992    43 H    0.986    44 H    0.985
                            45 H    0.982
    25   7 N    2.991 --    22 C    0.974    46 H    0.949    47 H    0.947
    26   1 H    1.027 --     1 C    0.981
    27   1 H    1.016 --     1 C    0.980
    28   1 H    1.035 --     1 C    0.977
    29   1 H    0.893 --     6 O    0.856
    30   1 H    1.012 --     8 C    0.988
    31   1 H    1.013 --     8 C    0.987
    32   1 H    1.014 --     8 C    0.985
    33   1 H    0.961 --    11 N    0.893
    34   1 H    1.006 --    12 C    0.978
    35   1 H    1.015 --    12 C    0.964
    36   1 H    1.001 --    14 C    0.971
    37   1 H    0.999 --    15 C    0.970
    38   1 H    0.999 --    18 C    0.970
    39   1 H    1.008 --    19 C    0.970
    40   1 H    1.007 --    23 C    0.987
    41   1 H    1.021 --    23 C    0.984
    42   1 H    1.020 --    23 C    0.984
    43   1 H    1.006 --    24 C    0.986
    44   1 H    1.003 --    24 C    0.985
    45   1 H    1.008 --    24 C    0.982
    46   1 H    0.964 --    25 N    0.949
    47   1 H    0.965 --    25 N    0.947
 ---------------------------------------------------------------------------

           -------------------------------------------------
          | TOTAL ENERGY              -80.210522350303 Eh   |
          | GRADIENT NORM               0.000794028339 Eh/α |
          | HOMO-LUMO GAP               0.886982032857 eV   |
           -------------------------------------------------

 * finished run on 2023/06/20 at 15:00:10.944
