   * xtb version 6.5.1 (579679a) compiled by 'ehlert@majestix' on 2022-07-11
          program call               : /lustre/hpc/kemi/ree/PhD/git/ReactivityQM/dep/xtb-6.5.1/bin/xtb --gfn 1 /lustre/hpc/kemi/ree/PhD/git/ReactivityQM/calculations/RaltegravirCLI/reac01prodE02/conf01/RaltegravirCLI_reac01prodE02_conf01_gfn1.xyz --opt --vfukui --chrg -1 --uhf 0 --alpb DMSO

   ID    Z sym.   atoms
    1    6 C      1-3, 6, 7
    2    7 N      4, 5
    3    8 O      8, 10
    4   17 Cl     9
    5    1 H      11-16

      * Solvation model:               ALPB
        Solvent                        DMSO
        Solvent mass                       7.8130E+01 g/mol
          :  Hamiltonian                  GFN1-xTB          :
 * total energy  :   -34.1680348 Eh     change       -0.9947598E-13 Eh
 * total energy  :   -34.1708396 Eh     change       -0.2804807E-02 Eh
 * total energy  :   -34.1723525 Eh     change       -0.1512899E-02 Eh
 * total energy  :   -34.1726371 Eh     change       -0.2846151E-03 Eh
 * total energy  :   -34.1727666 Eh     change       -0.1294498E-03 Eh
 * total energy  :   -34.1727848 Eh     change       -0.1819585E-04 Eh
 * total energy  :   -34.1727936 Eh     change       -0.8844166E-05 Eh
 * total energy  :   -34.1727956 Eh     change       -0.2026806E-05 Eh
   *** GEOMETRY OPTIMIZATION CONVERGED AFTER 8 ITERATIONS ***

 final structure:
================
16
 xtb: 6.5.1 (579679a)
C           -1.37140129442510        1.17302515738230       -0.65847481340016
C           -0.62524458309824       -0.01864038575901       -0.04471130507760
C           -1.44339059748627       -0.67549209589221        1.07440926223101
N           -0.33928371686393       -1.01246038534637       -1.09417169488280
N            0.92706167519263       -1.14747863262778       -1.18851197831813
C            1.56369936460596       -0.34789137249191       -0.30889244133241
C            2.93272225049702       -0.27383274943772       -0.17463981169912
O            3.81504742037352       -0.86892013730112       -0.77877004131562
Cl           3.45275885372629        0.91284570085329        1.12751734579753
O            0.64355487500912        0.38936909344093        0.44332305257032
H           -1.56849947660007        1.92363993315910        0.10440969886067
H           -2.31371476748795        0.83621588888055       -1.08502089748364
H           -0.76136947757564        1.61594884529115       -1.44405361199988
H           -0.89033744295969       -1.52169389830481        1.47879387641926
H           -2.39328230716736       -1.02674004072389        0.67743863076702
H           -1.62832077574019        0.04210407887744        1.87135372886354

          :  Hamiltonian                  GFN1-xTB          :
         :: total energy             -34.172795636677 Eh    ::
         :: gradient norm              0.000785895364 Eh/a0 ::
         :: HOMO-LUMO gap              2.081486195641 eV    ::
         :: SCC energy               -34.430517239205 Eh    ::
         :: -> Gsolv                  -0.087518590592 Eh    ::
         :: repulsion energy           0.265361993185 Eh    ::

    * Orbital Energies and Occupations

         #    Occupation            Energy/Eh            Energy/eV
      -------------------------------------------------------------
         1        2.0000           -0.8671454             -23.5962
       ...           ...                  ...                  ...
        16        2.0000           -0.5172378             -14.0748
        17        2.0000           -0.5013912             -13.6435
        18        2.0000           -0.4936361             -13.4325
        19        2.0000           -0.4918187             -13.3831
        20        2.0000           -0.4830434             -13.1443
        21        2.0000           -0.4602760             -12.5247
        22        2.0000           -0.4560737             -12.4104
        23        2.0000           -0.4473586             -12.1732
        24        2.0000           -0.4451467             -12.1131
        25        2.0000           -0.4351732             -11.8417
        26        2.0000           -0.4255472             -11.5797
        27        2.0000           -0.3879572             -10.5569
        28        2.0000           -0.3399796              -9.2513 (HOMO)
        29                         -0.2634864              -7.1698 (LUMO)
        30                         -0.1692961              -4.6068
        31                         -0.1482669              -4.0345
        32                         -0.1101477              -2.9973
        33                         -0.1044050              -2.8410
        34                         -0.0630547              -1.7158
        35                         -0.0518566              -1.4111
        36                         -0.0338118              -0.9201
        37                         -0.0314853              -0.8568
        38                          0.0014137               0.0385
        39                          0.0016284               0.0443
       ...                                ...                  ...
        57                          0.7573495              20.6085
      -------------------------------------------------------------
                  HL-Gap            0.0764932 Eh            2.0815 eV

Wiberg/Mayer (AO) data.
largest (>0.10) Wiberg bond orders for each atom

     #   Z sym  total        # sym  WBO       # sym  WBO       # sym  WBO
 ---------------------------------------------------------------------------
     1   6 C    3.993 --    12 H    0.987    11 H    0.986    13 H    0.985
                             2 C    0.979
     2   6 C    3.897 --     3 C    0.980     1 C    0.979     4 N    0.972
                            10 O    0.924
     3   6 C    3.993 --    15 H    0.987    16 H    0.986    14 H    0.985
                             2 C    0.980
     4   7 N    2.947 --     5 N    1.582     2 C    0.972     7 C    0.119
                             6 C    0.117
     5   7 N    3.025 --     4 N    1.582     6 C    1.286
     6   6 C    3.856 --     7 C    1.358     5 N    1.286    10 O    0.945
                             4 N    0.117     8 O    0.109
     7   6 C    3.903 --     8 O    1.571     6 C    1.358     9 Cl   0.780
                             4 N    0.119
     8   8 O    1.914 --     7 C    1.571     9 Cl   0.113     6 C    0.109
     9  17 Cl   0.954 --     7 C    0.780     8 O    0.113
    10   8 O    2.060 --     6 C    0.945     2 C    0.924
    11   1 H    1.006 --     1 C    0.986
    12   1 H    1.008 --     1 C    0.987
    13   1 H    1.011 --     1 C    0.985
    14   1 H    1.011 --     3 C    0.985
    15   1 H    1.008 --     3 C    0.987
    16   1 H    1.007 --     3 C    0.986
 ---------------------------------------------------------------------------

           -------------------------------------------------
          | TOTAL ENERGY              -34.172795636677 Eh   |
          | GRADIENT NORM               0.000785895364 Eh/α |
          | HOMO-LUMO GAP               2.081486195641 eV   |
           -------------------------------------------------

 * finished run on 2023/06/20 at 14:52:32.111
