   * xtb version 6.5.1 (579679a) compiled by 'ehlert@majestix' on 2022-07-11
          program call               : /lustre/hpc/kemi/ree/PhD/git/ReactivityQM/dep/xtb-6.5.1/bin/xtb --gfn 1 /lustre/hpc/kemi/ree/PhD/git/ReactivityQM/calculations/R03/reac02prodN17/conf03/R03_reac02prodN17_conf03_gfn1.xyz --opt --vfukui --chrg 1 --uhf 0 --alpb DMSO

   ID    Z sym.   atoms
    1    6 C      1, 3, 5, 7-10, 12, 13, 15, 18, 19, 22, 23, 25
    2    8 O      2, 4, 14, 20, 24, 26
    3    7 N      6, 11, 16, 17, 21
    4    1 H      27-46

      * Solvation model:               ALPB
        Solvent                        DMSO
        Solvent mass                       7.8130E+01 g/mol
          :  Hamiltonian                  GFN1-xTB          :
 * total energy  :   -86.3071931 Eh     change       -0.2549427E-10 Eh
 * total energy  :   -86.3208853 Eh     change       -0.1369222E-01 Eh
 * total energy  :   -86.3263782 Eh     change       -0.5492902E-02 Eh
 * total energy  :   -86.3277029 Eh     change       -0.1324698E-02 Eh
 * total energy  :   -86.3285133 Eh     change       -0.8104133E-03 Eh
 * total energy  :   -86.3289427 Eh     change       -0.4293301E-03 Eh
 * total energy  :   -86.3293103 Eh     change       -0.3676932E-03 Eh
 * total energy  :   -86.3296548 Eh     change       -0.3444065E-03 Eh
 * total energy  :   -86.3299474 Eh     change       -0.2926799E-03 Eh
 * total energy  :   -86.3301892 Eh     change       -0.2417604E-03 Eh
 * total energy  :   -86.3337418 Eh     change       -0.5053758E-05 Eh
 * total energy  :   -86.3337480 Eh     change       -0.6235626E-05 Eh
 * total energy  :   -86.3337549 Eh     change       -0.6879310E-05 Eh
 * total energy  :   -86.3337617 Eh     change       -0.6777309E-05 Eh
 * total energy  :   -86.3337681 Eh     change       -0.6431048E-05 Eh
 * total energy  :   -86.3337740 Eh     change       -0.5863035E-05 Eh
 * total energy  :   -86.3337806 Eh     change       -0.6651691E-05 Eh
 * total energy  :   -86.3337858 Eh     change       -0.5215995E-05 Eh
 * total energy  :   -86.3337888 Eh     change       -0.2945602E-05 Eh
   *** GEOMETRY OPTIMIZATION CONVERGED AFTER 78 ITERATIONS ***

 final structure:
================
46
 xtb: 6.5.1 (579679a)
C           -2.08029930503723        1.24138106696264        3.73639451012021
O           -1.86554227548392        0.86287322350819        2.36878775514162
C           -2.94055253173619        0.52482594519915        1.67353850809527
O           -4.06580953273044        0.50678440392206        2.13435640728626
C           -2.65146302959393        0.17716894822053        0.26364582533488
N           -1.34712954911595        0.21835171136794       -0.14075682852768
C           -1.01602213247636       -0.05648459826829       -1.36348376340125
C            0.49345624035424       -0.01601816230602       -1.61765416798303
C            0.97017323174419        0.59809051449727       -2.92952806202278
C            1.05199750452287       -1.42830539469790       -1.41047227621751
N            1.01177918595816        0.83682200410493       -0.46372955474223
C            0.79579115148224        2.29814269955307       -0.62515555802007
C            2.45917532999868        0.59801151292355       -0.14297570937925
O            3.30918136107492        1.00444619338264       -0.86986016527519
C            2.57430794970429       -0.10767468662801        1.10789564804708
N            1.57267289253401       -0.51133766981445        1.85216474577575
N            2.09896665488129       -1.12849132011846        2.91470243854912
C            3.40515035698043       -1.07791548052202        2.77851527721002
C            4.42523411101252       -1.62538025537906        3.69070885909784
O            3.75288328476740       -0.44751960832274        1.65894541534551
N           -1.93490416532497       -0.43628142226389       -2.29421400053101
C           -1.58620640148634       -0.82857872130415       -3.66221341008932
C           -3.31142089178520       -0.47501799828082       -2.00616636100278
O           -4.12299411625750       -0.77193452347829       -2.86118498662329
C           -3.64726690347245       -0.14907652904655       -0.61860716179085
O           -4.93733285022405       -0.19884833436229       -0.30478688612999
H           -2.70794011778420        2.13416411467364        3.77751713151697
H           -2.56651690541720        0.42609216332020        4.27686716582855
H           -1.09798111362865        1.44660909119044        4.15565665064327
H            0.35207359399015        1.44473774154801       -3.22000868858205
H            2.00096570229836        0.93070548752150       -2.81884280694552
H            0.95382277884215       -0.14592855512437       -3.72152277430555
H            2.12815732984542       -1.43974383532266       -1.57354465764196
H            0.58777539614065       -2.11211230757138       -2.11833716066240
H            0.83350088507752       -1.77080328048544       -0.39988821151184
H            0.42076939533439        0.53967092427381        0.34405597953234
H            1.46633491283235        2.68004829093288       -1.38874833124284
H           -0.24410834174272        2.45364464597225       -0.89675678188589
H            1.01198842051066        2.76360853209100        0.33344077384778
H            3.94665855779276       -2.04286964875457        4.57323781426426
H            5.12236899932490       -0.83857700305263        3.98030406289247
H            4.99442908014025       -2.40267909946371        3.17879823695921
H           -0.71169701782490       -1.47011950387751       -3.65179110122044
H           -1.40362935774148        0.05885837180049       -4.26533260918442
H           -2.43068455847526       -1.37871206271263       -4.07720029039450
H           -5.07011420979299        0.03195041419000        0.64322709982874

          :  Hamiltonian                  GFN1-xTB          :
         :: total energy             -86.333788774679 Eh    ::
         :: gradient norm              0.000419201660 Eh/a0 ::
         :: HOMO-LUMO gap              1.652218488037 eV    ::
         :: SCC energy               -87.159793478116 Eh    ::
         :: -> Gsolv                  -0.110545275271 Eh    ::
         :: repulsion energy           0.857902904718 Eh    ::

    * Orbital Energies and Occupations

         #    Occupation            Energy/Eh            Energy/eV
      -------------------------------------------------------------
         1        2.0000           -0.9052782             -24.6339
       ...           ...                  ...                  ...
        58        2.0000           -0.5379037             -14.6371
        59        2.0000           -0.5314182             -14.4606
        60        2.0000           -0.5258044             -14.3079
        61        2.0000           -0.5242876             -14.2666
        62        2.0000           -0.5194529             -14.1350
        63        2.0000           -0.5098039             -13.8725
        64        2.0000           -0.5035541             -13.7024
        65        2.0000           -0.4946392             -13.4598
        66        2.0000           -0.4939839             -13.4420
        67        2.0000           -0.4924068             -13.3991
        68        2.0000           -0.4834051             -13.1541
        69        2.0000           -0.4655705             -12.6688
        70        2.0000           -0.4465597             -12.1515 (HOMO)
        71                         -0.3858418             -10.4993 (LUMO)
        72                         -0.3411070              -9.2820
        73                         -0.3098544              -8.4316
        74                         -0.2939954              -8.0000
        75                         -0.2609274              -7.1002
        76                         -0.2574583              -7.0058
        77                         -0.1766297              -4.8063
        78                         -0.1727013              -4.6994
        79                         -0.1661447              -4.5210
        80                         -0.1574375              -4.2841
        81                         -0.1500957              -4.0843
       ...                                ...                  ...
       144                          0.7218439              19.6424
      -------------------------------------------------------------
                  HL-Gap            0.0607179 Eh            1.6522 eV

Wiberg/Mayer (AO) data.
largest (>0.10) Wiberg bond orders for each atom

     #   Z sym  total        # sym  WBO       # sym  WBO       # sym  WBO
 ---------------------------------------------------------------------------
     1   6 C    3.860 --    29 H    0.986    28 H    0.979    27 H    0.978
                             2 O    0.885
     2   8 O    2.215 --     3 C    1.137     1 C    0.885     4 O    0.132
     3   6 C    3.852 --     4 O    1.618     2 O    1.137     5 C    1.015
     4   8 O    1.950 --     3 C    1.618     2 O    0.132
     5   6 C    3.957 --    25 C    1.479     6 N    1.173     3 C    1.015
     6   7 N    3.081 --     7 C    1.551     5 C    1.173
     7   6 C    3.942 --     6 N    1.551    21 N    1.205     8 C    0.973
     8   6 C    3.890 --     9 C    1.000    10 C    0.986     7 C    0.973
                            11 N    0.854
     9   6 C    3.980 --     8 C    1.000    30 H    0.981    32 H    0.974
                            31 H    0.972
    10   6 C    3.982 --     8 C    0.986    35 H    0.981    33 H    0.976
                            34 H    0.974
    11   7 N    3.590 --    12 C    0.899    13 C    0.864     8 C    0.854
                            36 H    0.832
    12   6 C    3.886 --    39 H    0.981    37 H    0.981    38 H    0.980
                            11 N    0.899
    13   6 C    3.881 --    14 O    1.789    15 C    1.084    11 N    0.864
    14   8 O    2.067 --    13 C    1.789
    15   6 C    3.889 --    16 N    1.512    13 C    1.084    20 O    1.059
    16   7 N    3.048 --    15 C    1.512    17 N    1.289
    17   7 N    2.991 --    18 C    1.508    16 N    1.289
    18   6 C    3.851 --    17 N    1.508    20 O    1.116    19 C    1.042
    19   6 C    3.976 --    18 C    1.042    40 H    0.979    41 H    0.954
                            42 H    0.950
    20   8 O    2.359 --    18 C    1.116    15 C    1.059
    21   7 N    3.506 --     7 C    1.205    23 C    1.084    22 C    0.924
                            24 O    0.134
    22   6 C    3.913 --    43 H    0.977    44 H    0.975    45 H    0.970
                            21 N    0.924
    23   6 C    3.908 --    24 O    1.617    21 N    1.084    25 C    1.059
    24   8 O    1.934 --    23 C    1.617    21 N    0.134
    25   6 C    3.924 --     5 C    1.479    26 O    1.139    23 C    1.059
    26   8 O    2.107 --    25 C    1.139    46 H    0.776
    27   1 H    1.004 --     1 C    0.978
    28   1 H    1.005 --     1 C    0.979
    29   1 H    1.010 --     1 C    0.986
    30   1 H    0.996 --     9 C    0.981
    31   1 H    0.999 --     9 C    0.972
    32   1 H    0.998 --     9 C    0.974
    33   1 H    0.993 --    10 C    0.976
    34   1 H    0.996 --    10 C    0.974
    35   1 H    1.002 --    10 C    0.981
    36   1 H    0.973 --    11 N    0.832
    37   1 H    0.995 --    12 C    0.981
    38   1 H    0.997 --    12 C    0.980
    39   1 H    0.990 --    12 C    0.981
    40   1 H    0.994 --    19 C    0.979
    41   1 H    0.990 --    19 C    0.954
    42   1 H    0.990 --    19 C    0.950
    43   1 H    1.002 --    22 C    0.977
    44   1 H    0.998 --    22 C    0.975
    45   1 H    1.003 --    22 C    0.970
    46   1 H    0.846 --    26 O    0.776
 ---------------------------------------------------------------------------

           -------------------------------------------------
          | TOTAL ENERGY              -86.333788774679 Eh   |
          | GRADIENT NORM               0.000419201660 Eh/α |
          | HOMO-LUMO GAP               1.652218488037 eV   |
           -------------------------------------------------

 * finished run on 2023/06/20 at 15:54:20.271
