   * xtb version 6.5.1 (579679a) compiled by 'ehlert@majestix' on 2022-07-11
          program call               : /lustre/hpc/kemi/ree/PhD/git/ReactivityQM/dep/xtb-6.5.1/bin/xtb --gfn 1 /lustre/hpc/kemi/ree/PhD/git/ReactivityQM/calculations/R02deprot/reac01prodN16/conf08/R02deprot_reac01prodN16_conf08_gfn1.xyz --opt --vfukui --chrg 0 --uhf 0 --alpb DMSO

   ID    Z sym.   atoms
    1    6 C      1, 3, 5, 7-10, 12, 14, 17, 18, 21, 23, 24
    2    8 O      2, 4, 13, 19, 22, 25
    3    7 N      6, 11, 15, 16, 20
    4    1 H      26-42

      * Solvation model:               ALPB
        Solvent                        DMSO
        Solvent mass                       7.8130E+01 g/mol
          :  Hamiltonian                  GFN1-xTB          :
 * total energy  :   -82.9351107 Eh     change       -0.1358558E-10 Eh
 * total energy  :   -82.9490204 Eh     change       -0.1390966E-01 Eh
 * total energy  :   -82.9547136 Eh     change       -0.5693214E-02 Eh
 * total energy  :   -82.9557706 Eh     change       -0.1056980E-02 Eh
 * total energy  :   -82.9561791 Eh     change       -0.4085536E-03 Eh
 * total energy  :   -82.9563776 Eh     change       -0.1984788E-03 Eh
 * total energy  :   -82.9565374 Eh     change       -0.1597273E-03 Eh
 * total energy  :   -82.9566613 Eh     change       -0.1239522E-03 Eh
 * total energy  :   -82.9567687 Eh     change       -0.1074369E-03 Eh
 * total energy  :   -82.9568651 Eh     change       -0.9637455E-04 Eh
 * total energy  :   -82.9578050 Eh     change       -0.8927426E-05 Eh
 * total energy  :   -82.9578145 Eh     change       -0.9498675E-05 Eh
 * total energy  :   -82.9578192 Eh     change       -0.4762823E-05 Eh
 * total energy  :   -82.9578265 Eh     change       -0.7260355E-05 Eh
 * total energy  :   -82.9578323 Eh     change       -0.5793482E-05 Eh
 * total energy  :   -82.9578439 Eh     change       -0.1157257E-04 Eh
 * total energy  :   -82.9578504 Eh     change       -0.6522083E-05 Eh
 * total energy  :   -82.9578583 Eh     change       -0.7933310E-05 Eh
 * total energy  :   -82.9578620 Eh     change       -0.3666144E-05 Eh
   *** GEOMETRY OPTIMIZATION CONVERGED AFTER 45 ITERATIONS ***

 final structure:
================
42
 xtb: 6.5.1 (579679a)
C           -5.76413136734315        1.84522539913945        0.77070244544425
O           -4.78140914428219        0.91168148040351        0.29935351706426
C           -3.51801364906740        1.28938698931041        0.37326366093398
O           -3.14643332457190        2.36210991011569        0.77639006825031
C           -2.55130952307075        0.21858182668667       -0.09344385791207
N           -1.38052451733009        0.29871227731449        0.41178001812317
C           -0.49799439152695       -0.76997162634569        0.21305570896696
C            0.67766618216542       -0.85256331820419        1.17032392997682
C            0.93510257120344       -2.31908443880829        1.53429666922817
C            0.43364179078411        0.00398122200977        2.41482515214261
N            1.81865967801354       -0.32121844864918        0.41128297341991
C            3.06567711310767       -0.22281684887946        0.91740719220607
O            3.40731457260440       -0.55711348467372        2.03700415372127
C            3.99120579929298        0.36554262858947       -0.08553649967163
N            3.67713052738519        0.74198920733762       -1.28867589101317
N            4.81506273451813        1.22954273238145       -1.85704060252929
C            5.75124918842516        1.11967523783336       -0.96346242526284
C            7.17152683734635        1.51241711894371       -1.09215723094892
O            5.29305292867960        0.58053491656290        0.17579233141074
N           -0.62941685832604       -1.64605413441252       -0.70471095848788
C           -1.68372114570054       -1.53862843879312       -1.61440628102491
O           -1.57345931838303       -1.89118646375817       -2.75861514771094
C           -2.97826342195315       -0.89554803397519       -1.05430323953819
C           -3.78108765079381       -0.35445109699490       -2.24196808393369
O           -3.78842278668274       -1.82096301081157       -0.37388981038612
H           -6.72678055141303        1.34633176940304        0.69080776745306
H           -5.55343638425791        2.10907681500644        1.80854483680986
H           -5.74536716999078        2.74576743045977        0.15397600443110
H            0.06772840482103       -2.71856940484972        2.05575641188483
H            1.80516104496288       -2.39538684000946        2.18315837114821
H            1.10549781112131       -2.90124254607828        0.62991178335186
H            1.26598316723248       -0.09996269985089        3.10808901803499
H            0.32775752079161        1.05043160925327        2.13372619600692
H           -0.48071274525404       -0.32416191939145        2.90525447297322
H            1.66618302570162       -0.02604259459975       -0.54160127258926
H            7.81104080573845        0.63537109052496       -1.00043218345982
H            7.33469086127394        1.98090345261258       -2.05892614234160
H            7.43866073123366        2.20805752618858       -0.29804820507815
H           -3.24612895013089        0.46395883881265       -2.71871152745807
H           -4.75265727362891       -0.00925550640309       -1.90000346637460
H           -3.92351873188297       -1.15815013522075       -2.96306188442516
H           -3.35720739081339       -2.19690648818197        0.40089902716643

          :  Hamiltonian                  GFN1-xTB          :
         :: total energy             -82.957861974425 Eh    ::
         :: gradient norm              0.000970910805 Eh/a0 ::
         :: HOMO-LUMO gap              1.550867402815 eV    ::
         :: SCC energy               -83.733435148813 Eh    ::
         :: -> Gsolv                  -0.051700407935 Eh    ::
         :: repulsion energy           0.801298702491 Eh    ::

    * Orbital Energies and Occupations

         #    Occupation            Energy/Eh            Energy/eV
      -------------------------------------------------------------
         1        2.0000           -0.8658634             -23.5613
       ...           ...                  ...                  ...
        55        2.0000           -0.5081204             -13.8267
        56        2.0000           -0.5079072             -13.8209
        57        2.0000           -0.5065070             -13.7828
        58        2.0000           -0.5011776             -13.6377
        59        2.0000           -0.4962242             -13.5029
        60        2.0000           -0.4922923             -13.3960
        61        2.0000           -0.4848654             -13.1939
        62        2.0000           -0.4711606             -12.8209
        63        2.0000           -0.4651592             -12.6576
        64        2.0000           -0.4630601             -12.6005
        65        2.0000           -0.4543521             -12.3635
        66        2.0000           -0.4499559             -12.2439
        67        2.0000           -0.4341766             -11.8145 (HOMO)
        68                         -0.3771832             -10.2637 (LUMO)
        69                         -0.3129524              -8.5159
        70                         -0.3118973              -8.4872
        71                         -0.2589391              -7.0461
        72                         -0.2575642              -7.0087
        73                         -0.2396428              -6.5210
        74                         -0.2008842              -5.4663
        75                         -0.1436019              -3.9076
        76                         -0.1435206              -3.9054
        77                         -0.1251033              -3.4042
        78                         -0.1240890              -3.3766
       ...                                ...                  ...
       134                          0.7250008              19.7283
      -------------------------------------------------------------
                  HL-Gap            0.0569933 Eh            1.5509 eV

Wiberg/Mayer (AO) data.
largest (>0.10) Wiberg bond orders for each atom

     #   Z sym  total        # sym  WBO       # sym  WBO       # sym  WBO
 ---------------------------------------------------------------------------
     1   6 C    3.855 --    26 H    0.985    27 H    0.978    28 H    0.978
                             2 O    0.881
     2   8 O    2.233 --     3 C    1.144     1 C    0.881     4 O    0.146
     3   6 C    3.853 --     4 O    1.686     2 O    1.144     5 C    0.945
     4   8 O    1.953 --     3 C    1.686     2 O    0.146
     5   6 C    3.929 --     6 N    1.774     3 C    0.945    23 C    0.945
     6   7 N    3.048 --     5 C    1.774     7 C    1.065
     7   6 C    3.921 --    20 N    1.715     6 N    1.065     8 C    0.971
     8   6 C    3.931 --    10 C    0.994     9 C    0.985     7 C    0.971
                            11 N    0.913
     9   6 C    3.988 --    29 H    0.985     8 C    0.985    31 H    0.983
                            30 H    0.980
    10   6 C    3.989 --     8 C    0.994    34 H    0.985    33 H    0.984
                            32 H    0.980
    11   7 N    3.342 --    12 C    1.248     8 C    0.913    35 H    0.893
                            13 O    0.178
    12   6 C    3.916 --    13 O    1.597    11 N    1.248    14 C    0.987
    13   8 O    1.914 --    12 C    1.597    11 N    0.178
    14   6 C    3.875 --    15 N    1.610    19 O    1.065    12 C    0.987
    15   7 N    3.017 --    14 C    1.610    16 N    1.200
    16   7 N    2.980 --    17 C    1.604    15 N    1.200
    17   6 C    3.870 --    16 N    1.604    19 O    1.083    18 C    1.032
    18   6 C    3.986 --    17 C    1.032    37 H    0.982    38 H    0.964
                            36 H    0.962
    19   8 O    2.331 --    17 C    1.083    14 C    1.065
    20   7 N    3.092 --     7 C    1.715    21 C    1.072
    21   6 C    3.853 --    22 O    1.763    20 N    1.072    23 C    0.906
    22   8 O    1.993 --    21 C    1.763
    23   6 C    3.919 --    24 C    0.974    25 O    0.961     5 C    0.945
                            21 C    0.906
    24   6 C    3.985 --    39 H    0.986    40 H    0.979    41 H    0.979
                            23 C    0.974
    25   8 O    1.924 --    23 C    0.961    42 H    0.844
    26   1 H    1.008 --     1 C    0.985
    27   1 H    1.004 --     1 C    0.978
    28   1 H    1.004 --     1 C    0.978
    29   1 H    1.000 --     9 C    0.985
    30   1 H    1.007 --     9 C    0.980
    31   1 H    1.009 --     9 C    0.983
    32   1 H    1.008 --    10 C    0.980
    33   1 H    1.010 --    10 C    0.984
    34   1 H    1.003 --    10 C    0.985
    35   1 H    0.952 --    11 N    0.893
    36   1 H    0.996 --    18 C    0.962
    37   1 H    0.998 --    18 C    0.982
    38   1 H    0.996 --    18 C    0.964
    39   1 H    1.000 --    24 C    0.986
    40   1 H    1.009 --    24 C    0.979
    41   1 H    1.005 --    24 C    0.979
    42   1 H    0.857 --    25 O    0.844
 ---------------------------------------------------------------------------

           -------------------------------------------------
          | TOTAL ENERGY              -82.957861974425 Eh   |
          | GRADIENT NORM               0.000970910805 Eh/α |
          | HOMO-LUMO GAP               1.550867402815 eV   |
           -------------------------------------------------

 * finished run on 2023/06/20 at 18:26:38.439
