   * xtb version 6.5.1 (579679a) compiled by 'ehlert@majestix' on 2022-07-11
          program call               : /lustre/hpc/kemi/ree/PhD/git/ReactivityQM/dep/xtb-6.5.1/bin/xtb --gfn 1 /lustre/hpc/kemi/ree/PhD/git/ReactivityQM/calculations/R02deprot/reac01prodN02/conf06/R02deprot_reac01prodN02_conf06_gfn1.xyz --opt --vfukui --chrg 0 --uhf 0 --alpb DMSO

   ID    Z sym.   atoms
    1    6 C      1, 3, 5, 7-10, 12, 14, 15, 18, 19, 22, 24
    2    8 O      2, 4, 13, 20, 23, 25
    3    7 N      6, 11, 16, 17, 21
    4    1 H      26-42

      * Solvation model:               ALPB
        Solvent                        DMSO
        Solvent mass                       7.8130E+01 g/mol
          :  Hamiltonian                  GFN1-xTB          :
 * total energy  :   -82.9390391 Eh     change       -0.7539995E-09 Eh
 * total energy  :   -82.9579071 Eh     change       -0.1886808E-01 Eh
 * total energy  :   -82.9652197 Eh     change       -0.7312524E-02 Eh
 * total energy  :   -82.9664911 Eh     change       -0.1271480E-02 Eh
 * total energy  :   -82.9673260 Eh     change       -0.8348295E-03 Eh
 * total energy  :   -82.9677026 Eh     change       -0.3765845E-03 Eh
 * total energy  :   -82.9680594 Eh     change       -0.3568188E-03 Eh
 * total energy  :   -82.9684052 Eh     change       -0.3458101E-03 Eh
 * total energy  :   -82.9687275 Eh     change       -0.3223022E-03 Eh
 * total energy  :   -82.9690155 Eh     change       -0.2880460E-03 Eh
 * total energy  :   -82.9716464 Eh     change       -0.9244628E-05 Eh
 * total energy  :   -82.9716550 Eh     change       -0.8684118E-05 Eh
 * total energy  :   -82.9716631 Eh     change       -0.8109818E-05 Eh
 * total energy  :   -82.9716705 Eh     change       -0.7355960E-05 Eh
 * total energy  :   -82.9716770 Eh     change       -0.6493993E-05 Eh
 * total energy  :   -82.9716828 Eh     change       -0.5849392E-05 Eh
 * total energy  :   -82.9716887 Eh     change       -0.5852606E-05 Eh
 * total energy  :   -82.9716944 Eh     change       -0.5656053E-05 Eh
 * total energy  :   -82.9716986 Eh     change       -0.4261625E-05 Eh
   *** GEOMETRY OPTIMIZATION CONVERGED AFTER 57 ITERATIONS ***

 final structure:
================
42
 xtb: 6.5.1 (579679a)
C           -1.92382901670809        2.82732231552059        2.55531355976963
O           -1.89297767216360        1.79770851416196        1.57014352374588
C           -3.08500401186121        1.42005607706102        1.06874821657626
O           -4.12462503859003        1.92998702531711        1.42985550614639
C           -2.94961354250928        0.34312038196098        0.06557435549624
N           -1.67210848441316       -0.09022041829067       -0.19958176875655
C           -1.53117912357153       -1.05180760308000       -1.08237444627366
C           -0.10438036347273       -1.51181927715278       -1.35948075106077
C            0.05428925721740       -2.98037999785511       -0.95435549376638
C            0.22754525328851       -1.29718664926736       -2.83900044938391
N            0.74752260584310       -0.65954190758299       -0.51928735904196
C            2.04006846623300       -0.66598608570849       -0.42705472946260
O            2.72388383417361       -1.52381571177266       -1.13818169685108
C            4.15475466787229       -1.60339636600191       -1.10512840021387
C            2.66827262040746        0.28907892675159        0.46353065370341
N            3.93384744148764        0.47559181655782        0.71824488826764
N            4.01042943858450        1.48798350537619        1.60580522449671
C            2.78819780776912        1.87172855543268        1.85213178439793
C            2.34963923616816        2.94882072500648        2.75999710640835
O            1.89851947938739        1.15047811328490        1.15910643132678
N           -2.47135752210412       -1.68210827956996       -1.77279698091365
C           -3.76330728534915       -1.31013555805391       -1.57159317675900
O           -4.73649740779504       -1.81571299790115       -2.15426959509094
C           -3.99934302057780       -0.23669432538004       -0.59571641334806
O           -5.29153994498067        0.10234516840217       -0.42438670729917
H           -2.37116493420696        3.73647678480323        2.14382633862295
H           -2.49937761886888        2.50390941753838        3.42723447313403
H           -0.89067201428175        3.01600520926554        2.83975246402581
H           -0.07769385645816       -3.08775244551951        0.12117537441897
H           -0.71388833446664       -3.55874694315981       -1.46771269379707
H            1.03471482314346       -3.35954203395195       -1.23295874483277
H            1.20264781334325       -1.70958532421643       -3.08650445470718
H           -0.53641157973929       -1.79931500933564       -3.43261375768681
H            0.21884459798626       -0.23379505817877       -3.07323714314784
H            0.18630773061229        0.00687170709776        0.03951288904124
H            4.59234314695718       -0.65353123913892       -1.41595592500722
H            4.41870533162904       -2.39344582936093       -1.80571756913220
H            4.49409669690641       -1.85296528590016       -0.09860878238770
H            1.74937703114644        2.52990100889333        3.56825274292001
H            3.21771822058391        3.45456301076425        3.17562006665246
H            1.73078376231512        3.66269902775199        2.21655047862138
H           -5.80753849094899       -0.47716294454877       -1.02385903883946

          :  Hamiltonian                  GFN1-xTB          :
         :: total energy             -82.971698616070 Eh    ::
         :: gradient norm              0.000440246332 Eh/a0 ::
         :: HOMO-LUMO gap              0.616220773035 eV    ::
         :: SCC energy               -83.740761515473 Eh    ::
         :: -> Gsolv                  -0.072043055441 Eh    ::
         :: repulsion energy           0.795215018755 Eh    ::

    * Orbital Energies and Occupations

         #    Occupation            Energy/Eh            Energy/eV
      -------------------------------------------------------------
         1        2.0000           -0.8946958             -24.3459
       ...           ...                  ...                  ...
        55        2.0000           -0.5019387             -13.6584
        56        2.0000           -0.5015311             -13.6474
        57        2.0000           -0.4887544             -13.2997
        58        2.0000           -0.4882358             -13.2856
        59        2.0000           -0.4830724             -13.1451
        60        2.0000           -0.4816213             -13.1056
        61        2.0000           -0.4748932             -12.9225
        62        2.0000           -0.4581530             -12.4670
        63        2.0000           -0.4525262             -12.3139
        64        2.0000           -0.4325592             -11.7705
        65        2.0000           -0.4206503             -11.4465
        66        2.0000           -0.3879246             -10.5560
        67        2.0000           -0.3844595             -10.4617 (HOMO)
        68        0.0000           -0.3618138              -9.8455 (LUMO)
        69                         -0.2862234              -7.7885
        70                         -0.2820789              -7.6758
        71                         -0.2455512              -6.6818
        72                         -0.2433278              -6.6213
        73                         -0.1998762              -5.4389
        74                         -0.1616241              -4.3980
        75                         -0.1562896              -4.2529
        76                         -0.1264581              -3.4411
        77                         -0.1261514              -3.4328
        78                         -0.1249852              -3.4010
       ...                                ...                  ...
       134                          0.7502742              20.4160
      -------------------------------------------------------------
                  HL-Gap            0.0226457 Eh            0.6162 eV

Wiberg/Mayer (AO) data.
largest (>0.10) Wiberg bond orders for each atom

     #   Z sym  total        # sym  WBO       # sym  WBO       # sym  WBO
 ---------------------------------------------------------------------------
     1   6 C    3.885 --    28 H    0.986    26 H    0.979    27 H    0.979
                             2 O    0.911
     2   8 O    2.178 --     3 C    1.078     1 C    0.911     4 O    0.125
     3   6 C    3.841 --     4 O    1.643     2 O    1.078     5 C    1.028
     4   8 O    1.907 --     3 C    1.643     2 O    0.125
     5   6 C    3.959 --    24 C    1.486     6 N    1.179     3 C    1.028
     6   7 N    3.051 --     7 C    1.463     5 C    1.179
     7   6 C    3.961 --     6 N    1.463    21 N    1.378     8 C    0.964
     8   6 C    3.892 --    10 C    0.980     9 C    0.979     7 C    0.964
                            11 N    0.891
     9   6 C    3.986 --    29 H    0.985    31 H    0.984    30 H    0.980
                             8 C    0.979
    10   6 C    3.986 --    34 H    0.985    32 H    0.984     8 C    0.980
                            33 H    0.980
    11   7 N    3.516 --    12 C    1.510     8 C    0.891    35 H    0.823
                            13 O    0.114
    12   6 C    3.902 --    11 N    1.510    13 O    1.171    15 C    1.073
    13   8 O    2.261 --    12 C    1.171    14 C    0.869    11 N    0.114
    14   6 C    3.837 --    37 H    0.980    38 H    0.975    36 H    0.975
                            13 O    0.869
    15   6 C    3.888 --    16 N    1.559    12 C    1.073    20 O    1.053
    16   7 N    3.028 --    15 C    1.559    17 N    1.239
    17   7 N    2.986 --    18 C    1.562    16 N    1.239
    18   6 C    3.855 --    17 N    1.562    20 O    1.087    19 C    1.037
    19   6 C    3.981 --    18 C    1.037    40 H    0.980    41 H    0.959
                            39 H    0.955
    20   8 O    2.336 --    18 C    1.087    15 C    1.053
    21   7 N    2.986 --     7 C    1.378    22 C    1.233    23 O    0.122
    22   6 C    3.927 --    23 O    1.494    21 N    1.233    24 C    1.063
    23   8 O    1.829 --    22 C    1.494    21 N    0.122
    24   6 C    3.908 --     5 C    1.486    25 O    1.085    22 C    1.063
    25   8 O    2.061 --    24 C    1.085    42 H    0.813
    26   1 H    1.009 --     1 C    0.979
    27   1 H    1.009 --     1 C    0.979
    28   1 H    1.016 --     1 C    0.986
    29   1 H    1.001 --     9 C    0.985
    30   1 H    1.010 --     9 C    0.980
    31   1 H    1.005 --     9 C    0.984
    32   1 H    1.005 --    10 C    0.984
    33   1 H    1.012 --    10 C    0.980
    34   1 H    1.001 --    10 C    0.985
    35   1 H    0.955 --    11 N    0.823
    36   1 H    1.010 --    14 C    0.975
    37   1 H    1.004 --    14 C    0.980
    38   1 H    1.010 --    14 C    0.975
    39   1 H    0.995 --    19 C    0.955
    40   1 H    0.995 --    19 C    0.980
    41   1 H    0.995 --    19 C    0.959
    42   1 H    0.870 --    25 O    0.813
 ---------------------------------------------------------------------------

           -------------------------------------------------
          | TOTAL ENERGY              -82.971698616070 Eh   |
          | GRADIENT NORM               0.000440246332 Eh/α |
          | HOMO-LUMO GAP               0.616220773035 eV   |
           -------------------------------------------------

 * finished run on 2023/06/20 at 18:07:05.621
