                         Program Version 5.0.1 -  RELEASE  -
|  1> # ORCA input file
|  2> ! SP r2SCAN-3c CPCM
|  3>
|  4> %maxcore 1875.0
|  5> %pal nprocs 4 end
|  6> %cpcm smd true SMDsolvent "DMSO" end
|  7>
|  8> *xyz -2 1
|  9> C       6.810974   -1.433195   -0.572663
| 10> O       5.712655   -0.806404    0.067142
| 11> C       4.577261   -0.694588   -0.680788
| 12> O       4.550226   -1.141752   -1.824721
| 13> C       3.475297   -0.021156   -0.020208
| 14> N       2.346222    0.077445   -0.822384
| 15> C       1.291856    0.657167   -0.381318
| 16> C       0.068068    0.867163   -1.251281
| 17> C       0.198388    2.251566   -1.908881
| 18> C      -0.002662   -0.216663   -2.337565
| 19> N      -1.117930    0.902651   -0.399312
| 20> C      -1.505926   -0.358521    0.217768
| 21> O      -0.612044   -1.211471    0.491755
| 22> C      -2.863121   -0.541167    0.325941
| 23> O      -3.787429    0.547854    0.197398
| 24> C      -4.793217    0.234352    1.018342
| 25> C      -5.922121    1.199218    1.148018
| 26> N      -4.720610   -0.879087    1.641450
| 27> N      -3.489267   -1.514488    1.226445
| 28> C      -3.871740   -2.750532    0.521600
| 29> N       1.244186    1.226133    0.872312
| 30> C       2.272371    1.202514    1.764448
| 31> O       2.148000    1.740790    2.868806
| 32> C       3.528948    0.502889    1.297308
| 33> O       4.503763    0.445246    2.077923
| 34> H       6.564618   -2.460995   -0.859412
| 35> H       7.636683   -1.440241    0.138155
| 36> H       7.105594   -0.881542   -1.471458
| 37> H      -0.652196    2.438554   -2.562276
| 38> H       0.227144    3.026515   -1.143519
| 39> H       1.112515    2.304213   -2.499679
| 40> H      -0.882238   -0.064663   -2.960912
| 41> H      -0.051764   -1.206436   -1.883227
| 42> H       0.889233   -0.162912   -2.962209
| 43> H      -1.899471    1.317123   -0.891411
| 44> H      -6.362455    1.385227    0.169133
| 45> H      -6.680568    0.794474    1.813774
| 46> H      -5.563600    2.150153    1.541912
| 47> H      -4.434950   -3.383569    1.206614
| 48> H      -2.957102   -3.259686    0.219086
| 49> H      -4.481953   -2.536424   -0.361434
| 50> H       0.388364    1.694242    1.140017
| 51> **                         ****END OF INPUT****

CARTESIAN COORDINATES (ANGSTROEM)
---------------------------------
  C      6.810974   -1.433195   -0.572663
  O      5.712655   -0.806404    0.067142
  C      4.577261   -0.694588   -0.680788
  O      4.550226   -1.141752   -1.824721
  C      3.475297   -0.021156   -0.020208
  N      2.346222    0.077445   -0.822384
  C      1.291856    0.657167   -0.381318
  C      0.068068    0.867163   -1.251281
  C      0.198388    2.251566   -1.908881
  C     -0.002662   -0.216663   -2.337565
  N     -1.117930    0.902651   -0.399312
  C     -1.505926   -0.358521    0.217768
  O     -0.612044   -1.211471    0.491755
  C     -2.863121   -0.541167    0.325941
  O     -3.787429    0.547854    0.197398
  C     -4.793217    0.234352    1.018342
  C     -5.922121    1.199218    1.148018
  N     -4.720610   -0.879087    1.641450
  N     -3.489267   -1.514488    1.226445
  C     -3.871740   -2.750532    0.521600
  N      1.244186    1.226133    0.872312
  C      2.272371    1.202514    1.764448
  O      2.148000    1.740790    2.868806
  C      3.528948    0.502889    1.297308
  O      4.503763    0.445246    2.077923
  H      6.564618   -2.460995   -0.859412
  H      7.636683   -1.440241    0.138155
  H      7.105594   -0.881542   -1.471458
  H     -0.652196    2.438554   -2.562276
  H      0.227144    3.026515   -1.143519
  H      1.112515    2.304213   -2.499679
  H     -0.882238   -0.064663   -2.960912
  H     -0.051764   -1.206436   -1.883227
  H      0.889233   -0.162912   -2.962209
  H     -1.899471    1.317123   -0.891411
  H     -6.362455    1.385227    0.169133
  H     -6.680568    0.794474    1.813774
  H     -5.563600    2.150153    1.541912
  H     -4.434950   -3.383569    1.206614
  H     -2.957102   -3.259686    0.219086
  H     -4.481953   -2.536424   -0.361434
  H      0.388364    1.694242    1.140017

 Total Charge           Charge          ....   -2
 Multiplicity           Mult            ....    1
 Number of Electrons    NEL             ....  186
 Basis Dimension        Dim             ....  615

ORBITAL ENERGIES
----------------

  NO   OCC          E(Eh)            E(eV)
   0   2.0000     -18.982655      -516.5443
   1   2.0000     -18.960958      -515.9539
   2   2.0000     -18.894656      -514.1497
   3   2.0000     -18.893350      -514.1142
   4   2.0000     -18.865629      -513.3599
   5   2.0000     -18.852792      -513.0106
   6   2.0000     -14.179761      -385.8509
   7   2.0000     -14.171481      -385.6256
   8   2.0000     -14.150071      -385.0430
   9   2.0000     -14.131667      -384.5422
  10   2.0000     -14.120204      -384.2303
  11   2.0000     -10.116178      -275.2752
  12   2.0000     -10.105072      -274.9730
  13   2.0000     -10.100875      -274.8588
  14   2.0000     -10.072324      -274.0819
  15   2.0000     -10.061356      -273.7834
  16   2.0000     -10.061213      -273.7795
  17   2.0000     -10.060819      -273.7688
  18   2.0000     -10.057156      -273.6691
  19   2.0000     -10.035114      -273.0693
  20   2.0000     -10.027464      -272.8612
  21   2.0000     -10.026217      -272.8272
  22   2.0000     -10.024655      -272.7847
  23   2.0000     -10.008978      -272.3581
  24   2.0000      -9.996696      -272.0239
  25   2.0000      -1.056988       -28.7621
  26   2.0000      -1.031078       -28.0570
  27   2.0000      -0.982509       -26.7354
  28   2.0000      -0.937910       -25.5218
  29   2.0000      -0.928723       -25.2718
  30   2.0000      -0.923703       -25.1352
  31   2.0000      -0.912858       -24.8401
  32   2.0000      -0.909945       -24.7609
  33   2.0000      -0.840784       -22.8789
  34   2.0000      -0.830525       -22.5997
  35   2.0000      -0.787509       -21.4292
  36   2.0000      -0.730645       -19.8819
  37   2.0000      -0.694749       -18.9051
  38   2.0000      -0.692166       -18.8348
  39   2.0000      -0.658752       -17.9256
  40   2.0000      -0.647591       -17.6218
  41   2.0000      -0.640560       -17.4305
  42   2.0000      -0.604957       -16.4617
  43   2.0000      -0.593881       -16.1603
  44   2.0000      -0.580517       -15.7967
  45   2.0000      -0.533751       -14.5241
  46   2.0000      -0.525774       -14.3070
  47   2.0000      -0.513951       -13.9853
  48   2.0000      -0.500073       -13.6077
  49   2.0000      -0.476015       -12.9530
  50   2.0000      -0.460681       -12.5358
  51   2.0000      -0.455143       -12.3851
  52   2.0000      -0.444001       -12.0819
  53   2.0000      -0.437241       -11.8979
  54   2.0000      -0.423331       -11.5194
  55   2.0000      -0.420005       -11.4289
  56   2.0000      -0.407800       -11.0968
  57   2.0000      -0.400649       -10.9022
  58   2.0000      -0.397262       -10.8101
  59   2.0000      -0.390673       -10.6308
  60   2.0000      -0.379912       -10.3379
  61   2.0000      -0.373444       -10.1619
  62   2.0000      -0.370196       -10.0736
  63   2.0000      -0.369038       -10.0420
  64   2.0000      -0.365959        -9.9583
  65   2.0000      -0.360734        -9.8161
  66   2.0000      -0.356191        -9.6925
  67   2.0000      -0.346058        -9.4167
  68   2.0000      -0.341600        -9.2954
  69   2.0000      -0.340608        -9.2684
  70   2.0000      -0.338174        -9.2022
  71   2.0000      -0.332766        -9.0550
  72   2.0000      -0.326254        -8.8778
  73   2.0000      -0.319090        -8.6829
  74   2.0000      -0.309587        -8.4243
  75   2.0000      -0.305300        -8.3076
  76   2.0000      -0.296692        -8.0734
  77   2.0000      -0.293939        -7.9985
  78   2.0000      -0.292471        -7.9585
  79   2.0000      -0.286880        -7.8064
  80   2.0000      -0.262861        -7.1528
  81   2.0000      -0.249124        -6.7790
  82   2.0000      -0.241735        -6.5779
  83   2.0000      -0.229448        -6.2436
  84   2.0000      -0.228328        -6.2131
  85   2.0000      -0.215786        -5.8718
  86   2.0000      -0.205248        -5.5851
  87   2.0000      -0.201266        -5.4767
  88   2.0000      -0.195642        -5.3237
  89   2.0000      -0.173821        -4.7299
  90   2.0000      -0.160342        -4.3631
  91   2.0000      -0.142583        -3.8799
  92   2.0000      -0.098493        -2.6801
  93   0.0000      -0.041310        -1.1241
  94   0.0000       0.011534         0.3139
  95   0.0000       0.012799         0.3483
  96   0.0000       0.052082         1.4172
  97   0.0000       0.054644         1.4869

MULLIKEN ATOMIC CHARGES
-----------------------
   0 C :   -0.333983
   1 O :   -0.149748
   2 C :    0.119857
   3 O :   -0.440089
   4 C :   -0.053706
   5 N :   -0.169679
   6 C :    0.184407
   7 C :    0.212585
   8 C :   -0.584053
   9 C :   -0.691747
  10 N :   -0.386733
  11 C :    0.059492
  12 O :   -0.520021
  13 C :   -0.209013
  14 O :   -0.120706
  15 C :    0.383017
  16 C :   -0.652673
  17 N :   -0.345718
  18 N :   -0.170362
  19 C :   -0.400031
  20 N :    0.020359
  21 C :   -0.027027
  22 O :   -0.405165
  23 C :   -0.112908
  24 O :   -0.377942
  25 H :    0.159928
  26 H :    0.160744
  27 H :    0.160036
  28 H :    0.173597
  29 H :    0.177583
  30 H :    0.181905
  31 H :    0.173728
  32 H :    0.194936
  33 H :    0.170066
  34 H :    0.295480
  35 H :    0.184369
  36 H :    0.189800
  37 H :    0.184196
  38 H :    0.158883
  39 H :    0.170449
  40 H :    0.153710
  41 H :    0.282177
Sum of atomic charges:   -2.0000000

LOEWDIN ATOMIC CHARGES
----------------------
   0 C :   -0.059545
   1 O :   -0.610472
   2 C :    0.384278
   3 O :   -0.492361
   4 C :    0.106997
   5 N :   -0.613130
   6 C :    0.321258
   7 C :    0.085349
   8 C :   -0.359592
   9 C :   -0.377193
  10 N :   -0.706761
  11 C :    0.292436
  12 O :   -0.622548
  13 C :    0.240756
  14 O :   -0.514653
  15 C :    0.339036
  16 C :   -0.331495
  17 N :   -0.441894
  18 N :   -0.661366
  19 C :   -0.127738
  20 N :   -0.488288
  21 C :    0.349471
  22 O :   -0.498198
  23 C :    0.220845
  24 O :   -0.585776
  25 H :    0.171157
  26 H :    0.175266
  27 H :    0.171563
  28 H :    0.163821
  29 H :    0.167290
  30 H :    0.167269
  31 H :    0.158408
  32 H :    0.178434
  33 H :    0.166304
  34 H :    0.277895
  35 H :    0.180599
  36 H :    0.179947
  37 H :    0.179246
  38 H :    0.173842
  39 H :    0.178418
  40 H :    0.160895
  41 H :    0.300229

  Mayer bond orders larger than 0.100000
B(  0-C ,  1-O ) :   0.8522 B(  0-C , 25-H ) :   0.9631 B(  0-C , 26-H ) :   0.9705
B(  0-C , 27-H ) :   0.9633 B(  1-O ,  2-C ) :   1.1131 B(  2-C ,  3-O ) :   1.8921
B(  2-C ,  4-C ) :   1.1680 B(  4-C ,  5-N ) :   0.8678 B(  4-C , 23-C ) :   0.9781
B(  4-C , 24-O ) :  -0.1027 B(  5-N ,  6-C ) :   1.8394 B(  6-C ,  7-C ) :   0.7737
B(  6-C , 12-O ) :   0.1098 B(  6-C , 20-N ) :   1.0211 B(  7-C ,  8-C ) :   0.9006
B(  7-C ,  9-C ) :   0.8374 B(  7-C , 10-N ) :   0.8437 B(  8-C , 28-H ) :   0.9666
B(  8-C , 29-H ) :   0.9717 B(  8-C , 30-H ) :   0.9810 B(  9-C , 31-H ) :   0.9830
B(  9-C , 32-H ) :   0.9845 B(  9-C , 33-H ) :   0.9630 B( 10-N , 11-C ) :   0.9702
B( 10-N , 34-H ) :   0.8954 B( 11-C , 12-O ) :   1.7320 B( 11-C , 13-C ) :   1.3370
B( 13-C , 14-O ) :   0.8420 B( 13-C , 18-N ) :   0.8559 B( 14-O , 15-C ) :   1.1276
B( 15-C , 16-C ) :   0.8364 B( 15-C , 17-N ) :   1.7620 B( 16-C , 35-H ) :   0.9540
B( 16-C , 36-H ) :   0.9987 B( 16-C , 37-H ) :   0.9479 B( 17-N , 18-N ) :   1.1468
B( 18-N , 19-C ) :   0.9004 B( 19-C , 38-H ) :   0.9715 B( 19-C , 39-H ) :   0.9700
B( 19-C , 40-H ) :   0.9594 B( 20-N , 21-C ) :   1.0297 B( 20-N , 41-H ) :   0.8721
B( 21-C , 22-O ) :   2.0808 B( 21-C , 23-C ) :   0.8851 B( 23-C , 24-O ) :   1.9647

Dispersion correction           -0.019114858
FINAL SINGLE POINT ENERGY     -1268.845861041678

DIPOLE MOMENT
-------------
                                X             Y             Z
Electronic contribution:     12.23231       2.36783      10.69715
Nuclear contribution   :    -16.07917      -0.32476     -14.04753
                        -----------------------------------------
Total Dipole Moment    :     -3.84686       2.04307      -3.35038
                        -----------------------------------------
Magnitude (a.u.)       :      5.49523
Magnitude (Debye)      :     13.96775

Rotational constants in cm-1:     0.015672     0.003352     0.003259
Rotational constants in MHz :   469.839039   100.495185    97.693553

                             ****ORCA TERMINATED NORMALLY****
TOTAL RUN TIME: 0 days 0 hours 3 minutes 6 seconds 429 msec
