   * xtb version 6.5.1 (579679a) compiled by 'ehlert@majestix' on 2022-07-11
          program call               : /lustre/hpc/kemi/ree/PhD/git/ReactivityQM/dep/xtb-6.5.1/bin/xtb --gfn 1 /lustre/hpc/kemi/ree/PhD/git/ReactivityQM/calculations/R02methylcation/reac01prodE09/conf19/R02methylcation_reac01prodE09_conf19_gfn1.xyz --opt --vfukui --chrg -2 --uhf 0 --alpb DMSO

   ID    Z sym.   atoms
    1    6 C      1, 3, 5, 7-10, 12, 14, 16, 17, 20, 22, 24
    2    8 O      2, 4, 13, 15, 23, 25
    3    7 N      6, 11, 18, 19, 21
    4    1 H      26-42

      * Solvation model:               ALPB
        Solvent                        DMSO
        Solvent mass                       7.8130E+01 g/mol
          :  Hamiltonian                  GFN1-xTB          :
 * total energy  :   -83.5960777 Eh     change       -0.2273737E-11 Eh
 * total energy  :   -83.6112384 Eh     change       -0.1516069E-01 Eh
 * total energy  :   -83.6168748 Eh     change       -0.5636324E-02 Eh
 * total energy  :   -83.6187361 Eh     change       -0.1861297E-02 Eh
 * total energy  :   -83.6217867 Eh     change       -0.3050599E-02 Eh
 * total energy  :   -83.6249516 Eh     change       -0.3164953E-02 Eh
 * total energy  :   -83.6283552 Eh     change       -0.3403617E-02 Eh
 * total energy  :   -83.6310820 Eh     change       -0.2726811E-02 Eh
 * total energy  :   -83.6325191 Eh     change       -0.1437046E-02 Eh
 * total energy  :   -83.6344121 Eh     change       -0.1893034E-02 Eh
 * total energy  :   -83.6391896 Eh     change       -0.7959503E-05 Eh
 * total energy  :   -83.6391983 Eh     change       -0.8685780E-05 Eh
 * total energy  :   -83.6392083 Eh     change       -0.9969198E-05 Eh
 * total energy  :   -83.6392163 Eh     change       -0.8021591E-05 Eh
 * total energy  :   -83.6392236 Eh     change       -0.7343807E-05 Eh
 * total energy  :   -83.6392337 Eh     change       -0.1006316E-04 Eh
 * total energy  :   -83.6392425 Eh     change       -0.8755081E-05 Eh
 * total energy  :   -83.6392482 Eh     change       -0.5787266E-05 Eh
 * total energy  :   -83.6392524 Eh     change       -0.4148384E-05 Eh
   *** GEOMETRY OPTIMIZATION CONVERGED AFTER 54 ITERATIONS ***

 final structure:
================
42
 xtb: 6.5.1 (579679a)
C            6.81097399217018       -1.43319491845670       -0.57266264473447
O            5.71265532074766       -0.80640353921486        0.06714219053946
C            4.57726118224157       -0.69458764471578       -0.68078777134723
O            4.55022626984041       -1.14175241500205       -1.82472089201299
C            3.47529661267119       -0.02115640492744       -0.02020757510650
N            2.34622246728800        0.07744469343204       -0.82238446035679
C            1.29185555923656        0.65716694942973       -0.38131817056296
C            0.06806798046451        0.86716349146571       -1.25128131723213
C            0.19838758246272        2.25156561038581       -1.90888127574476
C           -0.00266179902595       -0.21666341567828       -2.33756472851493
N           -1.11792970889992        0.90265141564317       -0.39931238424847
C           -1.50592583428230       -0.35852100000663        0.21776776508155
O           -0.61204387064953       -1.21147115481835        0.49175515670162
C           -2.86312094829862       -0.54116749155171        0.32594096607165
O           -3.78742900708960        0.54785447641191        0.19739825410396
C           -4.79321740341852        0.23435226214072        1.01834210532305
C           -5.92212090865213        1.19921776313260        1.14801762632245
N           -4.72060996262059       -0.87908738310658        1.64145039499044
N           -3.48926685501351       -1.51448836832152        1.22644469538264
C           -3.87174008383939       -2.75053247134625        0.52160017256246
N            1.24418581678948        1.22613327466579        0.87231192731489
C            2.27237065507976        1.20251433447270        1.76444815323519
O            2.14800007071553        1.74079026845933        2.86880553262791
C            3.52894759271885        0.50288924135087        1.29730778358301
O            4.50376306520200        0.44524582972169        2.07792291811547
H            6.56461774573178       -2.46099479680423       -0.85941152088153
H            7.63668265205669       -1.44024074201475        0.13815451559124
H            7.10559395906185       -0.88154195027725       -1.47145811533285
H           -0.65219619809066        2.43855403063105       -2.56227600565715
H            0.22714414778902        3.02651506789855       -1.14351870741012
H            1.11251457435966        2.30421332257807       -2.49967862543313
H           -0.88223768027351       -0.06466346843764       -2.96091163815092
H           -0.05176355251612       -1.20643573866625       -1.88322716751030
H            0.88923278404452       -0.16291210933351       -2.96220908993223
H           -1.89947064247450        1.31712259679282       -0.89141121145617
H           -6.36245461602915        1.38522672322020        0.16913348121729
H           -6.68056803531527        0.79447372399032        1.81377424905004
H           -5.56360001110627        2.15015252532408        1.54191217274480
H           -4.43494988992392       -3.38356899588838        1.20661410351334
H           -2.95710201610576       -3.25968647675331        0.21908601427932
H           -4.48195268415247       -2.53642449448261       -0.36143378599667
H            0.38836367709838        1.69424237865776        1.14001690927410

          :  Hamiltonian                  GFN1-xTB          :
         :: total energy             -83.639252396453 Eh    ::
         :: gradient norm              0.000432627966 Eh/a0 ::
         :: HOMO-LUMO gap              0.925352026468 eV    ::
         :: SCC energy               -84.381485261374 Eh    ::
         :: -> Gsolv                  -0.284892242037 Eh    ::
         :: repulsion energy           0.768016417403 Eh    ::

    * Orbital Energies and Occupations

         #    Occupation            Energy/Eh            Energy/eV
      -------------------------------------------------------------
         1        2.0000           -0.7891838             -21.4748
       ...           ...                  ...                  ...
        56        2.0000           -0.4489234             -12.2158
        57        2.0000           -0.4396675             -11.9640
        58        2.0000           -0.4254772             -11.5778
        59        2.0000           -0.4202975             -11.4369
        60        2.0000           -0.4159170             -11.3177
        61        2.0000           -0.4081908             -11.1074
        62        2.0000           -0.3975530             -10.8180
        63        2.0000           -0.3813314             -10.3766
        64        2.0000           -0.3791288             -10.3166
        65        2.0000           -0.3646053              -9.9214
        66        2.0000           -0.3598949              -9.7932
        67        2.0000           -0.3478204              -9.4647
        68        2.0000           -0.2909867              -7.9182 (HOMO)
        69                         -0.2569806              -6.9928 (LUMO)
        70                         -0.2159661              -5.8767
        71                         -0.2035100              -5.5378
        72                         -0.1838846              -5.0038
        73                         -0.1354273              -3.6852
        74                         -0.1193873              -3.2487
        75                         -0.1182992              -3.2191
        76                         -0.1044521              -2.8423
        77                         -0.0941628              -2.5623
        78                         -0.0913333              -2.4853
        79                         -0.0897727              -2.4428
       ...                                ...                  ...
       134                          0.7568815              20.5958
      -------------------------------------------------------------
                  HL-Gap            0.0340061 Eh            0.9254 eV

Wiberg/Mayer (AO) data.
largest (>0.10) Wiberg bond orders for each atom

     #   Z sym  total        # sym  WBO       # sym  WBO       # sym  WBO
 ---------------------------------------------------------------------------
     1   6 C    3.904 --    27 H    0.987    28 H    0.980    26 H    0.980
                             2 O    0.931
     2   8 O    2.150 --     3 C    1.032     1 C    0.931     4 O    0.105
     3   6 C    3.848 --     4 O    1.563     5 C    1.131     2 O    1.032
     4   8 O    1.842 --     3 C    1.563     2 O    0.105
     5   6 C    3.920 --    24 C    1.281     6 N    1.141     3 C    1.131
                            25 O    0.130
     6   7 N    3.018 --     7 C    1.633     5 C    1.141
     7   6 C    3.927 --     6 N    1.633    21 N    1.098     8 C    0.977
     8   6 C    3.967 --    10 C    0.988     9 C    0.980     7 C    0.977
                            11 N    0.968
     9   6 C    3.993 --    31 H    0.987    30 H    0.986    29 H    0.985
                             8 C    0.980
    10   6 C    3.996 --    32 H    0.988     8 C    0.988    34 H    0.986
                            33 H    0.981
    11   7 N    3.089 --     8 C    0.968    12 C    0.954    35 H    0.936
    12   6 C    3.927 --    14 C    1.484    13 O    1.367    11 N    0.954
    13   8 O    1.698 --    12 C    1.367    14 C    0.170
    14   6 C    3.621 --    12 C    1.484    19 N    0.948    15 O    0.866
                            13 O    0.170
    15   8 O    2.186 --    16 C    1.092    14 C    0.866    18 N    0.135
    16   6 C    3.908 --    18 N    1.709    15 O    1.092    17 C    1.013
    17   6 C    3.995 --    16 C    1.013    37 H    0.987    36 H    0.973
                            38 H    0.973
    18   7 N    2.945 --    16 C    1.709    19 N    0.982    15 O    0.135
    19   7 N    3.053 --    18 N    0.982    20 C    0.971    14 C    0.948
    20   6 C    3.983 --    39 H    0.989    40 H    0.988    41 H    0.983
                            19 N    0.971
    21   7 N    3.450 --    22 C    1.189     7 C    1.098    42 H    0.893
                            23 O    0.137
    22   6 C    3.885 --    23 O    1.548    21 N    1.189    24 C    0.974
    23   8 O    1.829 --    22 C    1.548    21 N    0.137
    24   6 C    3.944 --    25 O    1.498     5 C    1.281    22 C    0.974
    25   8 O    1.802 --    24 C    1.498     5 C    0.130
    26   1 H    1.016 --     1 C    0.980
    27   1 H    1.017 --     1 C    0.987
    28   1 H    1.015 --     1 C    0.980
    29   1 H    1.003 --     9 C    0.985
    30   1 H    1.008 --     9 C    0.986
    31   1 H    1.008 --     9 C    0.987
    32   1 H    1.006 --    10 C    0.988
    33   1 H    1.023 --    10 C    0.981
    34   1 H    1.017 --    10 C    0.986
    35   1 H    0.977 --    11 N    0.936
    36   1 H    1.004 --    17 C    0.973
    37   1 H    1.006 --    17 C    0.987
    38   1 H    1.004 --    17 C    0.973
    39   1 H    1.026 --    20 C    0.989
    40   1 H    1.030 --    20 C    0.988
    41   1 H    1.021 --    20 C    0.983
    42   1 H    0.970 --    21 N    0.893
 ---------------------------------------------------------------------------

           -------------------------------------------------
          | TOTAL ENERGY              -83.639252396453 Eh   |
          | GRADIENT NORM               0.000432627966 Eh/α |
          | HOMO-LUMO GAP               0.925352026468 eV   |
           -------------------------------------------------

 * finished run on 2023/06/21 at 17:18:51.374
