   * xtb version 6.5.1 (579679a) compiled by 'ehlert@majestix' on 2022-07-11
          program call               : /lustre/hpc/kemi/ree/PhD/git/ReactivityQM/dep/xtb-6.5.1/bin/xtb --gfn 1 /lustre/hpc/kemi/ree/PhD/git/ReactivityQM/calculations/R03/reac02prodN12/conf10/R03_reac02prodN12_conf10_gfn1.xyz --opt --vfukui --chrg 1 --uhf 0 --alpb DMSO

   ID    Z sym.   atoms
    1    6 C      1, 3, 5, 7-10, 12, 14, 15, 18, 19, 22, 23, 25
    2    8 O      2, 4, 13, 20, 24, 26
    3    7 N      6, 11, 16, 17, 21
    4    1 H      27-46

      * Solvation model:               ALPB
        Solvent                        DMSO
        Solvent mass                       7.8130E+01 g/mol
          :  Hamiltonian                  GFN1-xTB          :
 * total energy  :   -86.2888316 Eh     change       -0.3097966E-11 Eh
 * total energy  :   -86.3030188 Eh     change       -0.1418723E-01 Eh
 * total energy  :   -86.3087677 Eh     change       -0.5748922E-02 Eh
 * total energy  :   -86.3102086 Eh     change       -0.1440884E-02 Eh
 * total energy  :   -86.3113814 Eh     change       -0.1172771E-02 Eh
 * total energy  :   -86.3121268 Eh     change       -0.7454004E-03 Eh
 * total energy  :   -86.3127949 Eh     change       -0.6681223E-03 Eh
 * total energy  :   -86.3134401 Eh     change       -0.6451956E-03 Eh
 * total energy  :   -86.3139282 Eh     change       -0.4880852E-03 Eh
 * total energy  :   -86.3142329 Eh     change       -0.3046525E-03 Eh
 * total energy  :   -86.3174555 Eh     change       -0.1808697E-04 Eh
 * total energy  :   -86.3174855 Eh     change       -0.2998902E-04 Eh
 * total energy  :   -86.3175092 Eh     change       -0.2376511E-04 Eh
 * total energy  :   -86.3175269 Eh     change       -0.1763200E-04 Eh
 * total energy  :   -86.3175374 Eh     change       -0.1051639E-04 Eh
 * total energy  :   -86.3175460 Eh     change       -0.8563630E-05 Eh
 * total energy  :   -86.3175578 Eh     change       -0.1180680E-04 Eh
 * total energy  :   -86.3175630 Eh     change       -0.5244827E-05 Eh
 * total energy  :   -86.3175663 Eh     change       -0.3301630E-05 Eh
   *** GEOMETRY OPTIMIZATION CONVERGED AFTER 71 ITERATIONS ***

 final structure:
================
46
 xtb: 6.5.1 (579679a)
C            5.16769337260063        1.51352998368562        2.58725653824558
O            4.14566893166478        0.99813850333018        1.72720857175700
C            4.33937111416293        1.15205820881017        0.41725870127418
O            5.31686910715068        1.68462576337464       -0.05183762942871
C            3.21348718150364        0.58746733608641       -0.38449994397509
N            2.17567588947150        0.04293425313309        0.32007475110324
C            1.15296365346204       -0.48126028433749       -0.27040074652539
C            0.09569226458613       -1.06740145220489        0.65315913877689
C            0.17456070176861       -2.59839018143870        0.64810502722748
C            0.30195969663114       -0.53435587383991        2.07549536411417
N           -1.23137500906931       -0.59339182130012        0.18283949246169
C           -2.36159032567183       -1.02327519561893        0.70946081455315
O           -2.55496643515185       -1.83567794257153        1.56994588165512
C           -3.65977225148013       -0.37041701471971        0.00790276422469
C           -4.44030461307922       -1.53071186698417       -0.60799166370759
N           -4.33785698287152        0.35437659207429        1.00188006138004
N           -4.35959088638819        1.58562549029732        0.70040535630651
C           -3.73152980612303        1.73152550874807       -0.50317083788621
C           -3.54465518460049        2.98956343502797       -1.21646578659880
O           -3.30394526911385        0.59887244712948       -0.94481961034157
N            1.05464399844804       -0.54218636374743       -1.63706706627101
C           -0.04543288595596       -1.13157420586011       -2.40178741250691
C            2.03171589926755        0.01891252511567       -2.44632583339234
O            1.94362201034589        0.00928020945148       -3.66700822325724
C            3.17034058334392        0.60419614540297       -1.75203288132387
O            4.11526771204893        1.12916477900192       -2.53186678641296
H            6.13715559419994        1.08599047603330        2.31901690378064
H            5.21429079742430        2.60182267207791        2.50014721206586
H            4.89398202644842        1.22737304774920        3.60070839365789
H           -0.49881500153348       -3.01250219181346        1.39592170533382
H            1.19453109211466       -2.89322932918885        0.89184795465811
H           -0.08635104201577       -3.00885506279784       -0.32368405282754
H            0.26212870640297        0.55322485177552        2.07525759119707
H           -0.47522999872765       -0.92498825688702        2.72964176805526
H            1.27527418881774       -0.85234539321326        2.44541761022835
H           -1.25342476832497        0.14628089581378       -0.49740264968190
H           -5.35009585828429       -1.14077226967170       -1.05912765148461
H           -4.68100416891096       -2.24270371765423        0.17945588421225
H           -3.82810284158381       -2.00785042250703       -1.36927211736867
H           -2.90627240628031        2.85096745850762       -2.08559417610930
H           -3.12812483195370        3.73868581468130       -0.54036902728526
H           -4.52387139015261        3.36090678201587       -1.53329359068125
H           -0.68700061135572       -1.72894673067939       -1.76839133252036
H            0.38661551276923       -1.75225241237191       -3.18710102244270
H           -0.61914465186107       -0.32733507384063       -2.86047508356021
H            3.84494718585049        1.03490088394947       -3.46393436066878

          :  Hamiltonian                  GFN1-xTB          :
         :: total energy             -86.317566306304 Eh    ::
         :: gradient norm              0.000628073082 Eh/a0 ::
         :: HOMO-LUMO gap              0.293956954157 eV    ::
         :: SCC energy               -87.148748330848 Eh    ::
         :: -> Gsolv                  -0.125204325654 Eh    ::
         :: repulsion energy           0.861315426058 Eh    ::

    * Orbital Energies and Occupations

         #    Occupation            Energy/Eh            Energy/eV
      -------------------------------------------------------------
         1        2.0000           -0.9376755             -25.5154
       ...           ...                  ...                  ...
        58        2.0000           -0.5319397             -14.4748
        59        2.0000           -0.5253452             -14.2954
        60        2.0000           -0.5217624             -14.1979
        61        2.0000           -0.5182237             -14.1016
        62        2.0000           -0.5159952             -14.0409
        63        2.0000           -0.5039514             -13.7132
        64        2.0000           -0.5007106             -13.6250
        65        2.0000           -0.4943613             -13.4523
        66        2.0000           -0.4908923             -13.3579
        67        2.0000           -0.4851002             -13.2002
        68        2.0000           -0.4707979             -12.8111
        69        2.0000           -0.4570816             -12.4378
        70        1.9932           -0.4393668             -11.9558 (HOMO)
        71        0.0068           -0.4285640             -11.6618 (LUMO)
        72                         -0.3320479              -9.0355
        73                         -0.3316376              -9.0243
        74                         -0.3027137              -8.2373
        75                         -0.2975302              -8.0962
        76                         -0.2474625              -6.7338
        77                         -0.1780851              -4.8459
        78                         -0.1668288              -4.5396
        79                         -0.1619916              -4.4080
        80                         -0.1512534              -4.1158
        81                         -0.1422347              -3.8704
       ...                                ...                  ...
       144                          0.7374751              20.0677
      -------------------------------------------------------------
                  HL-Gap            0.0108027 Eh            0.2940 eV

Wiberg/Mayer (AO) data.
largest (>0.10) Wiberg bond orders for each atom

     #   Z sym  total        # sym  WBO       # sym  WBO       # sym  WBO
 ---------------------------------------------------------------------------
     1   6 C    3.869 --    29 H    0.986    27 H    0.979    28 H    0.979
                             2 O    0.895
     2   8 O    2.200 --     3 C    1.114     1 C    0.895     4 O    0.136
     3   6 C    3.853 --     4 O    1.664     2 O    1.114     5 C    0.996
     4   8 O    1.929 --     3 C    1.664     2 O    0.136
     5   6 C    3.956 --    25 C    1.485     6 N    1.188     3 C    0.996
     6   7 N    3.030 --     7 C    1.575     5 C    1.188
     7   6 C    3.930 --     6 N    1.575    21 N    1.169     8 C    0.975
     8   6 C    3.906 --    10 C    0.992     9 C    0.984     7 C    0.975
                            11 N    0.877
     9   6 C    3.982 --     8 C    0.984    31 H    0.981    32 H    0.978
                            30 H    0.976
    10   6 C    3.986 --     8 C    0.992    33 H    0.984    34 H    0.982
                            35 H    0.980
    11   7 N    3.382 --    12 C    1.351    36 H    0.883     8 C    0.877
                            13 O    0.179
    12   6 C    3.907 --    13 O    1.666    11 N    1.351    14 C    0.739
    13   8 O    2.059 --    12 C    1.666    11 N    0.179
    14   6 C    3.838 --    16 N    1.110    15 C    0.915    20 O    0.908
                            12 C    0.739
    15   6 C    3.947 --    39 H    0.979    38 H    0.975    37 H    0.974
                            14 C    0.915
    16   7 N    2.994 --    17 N    1.623    14 C    1.110
    17   7 N    3.015 --    16 N    1.623    18 C    1.223
    18   6 C    3.800 --    20 O    1.264    17 N    1.223    19 C    1.079
    19   6 C    3.963 --    18 C    1.079    40 H    0.972    41 H    0.932
                            42 H    0.912
    20   8 O    2.368 --    18 C    1.264    14 C    0.908
    21   7 N    3.504 --     7 C    1.169    23 C    1.121    22 C    0.926
                            24 O    0.134
    22   6 C    3.917 --    43 H    0.980    45 H    0.974    44 H    0.971
                            21 N    0.926
    23   6 C    3.910 --    24 O    1.571    21 N    1.121    25 C    1.070
    24   8 O    1.910 --    23 C    1.571    21 N    0.134
    25   6 C    3.915 --     5 C    1.485    26 O    1.121    23 C    1.070
    26   8 O    2.095 --    25 C    1.121    46 H    0.803
    27   1 H    1.007 --     1 C    0.979
    28   1 H    1.006 --     1 C    0.979
    29   1 H    1.011 --     1 C    0.986
    30   1 H    1.002 --     9 C    0.976
    31   1 H    0.998 --     9 C    0.981
    32   1 H    0.999 --     9 C    0.978
    33   1 H    1.005 --    10 C    0.984
    34   1 H    1.001 --    10 C    0.982
    35   1 H    1.009 --    10 C    0.980
    36   1 H    0.929 --    11 N    0.883
    37   1 H    0.990 --    15 C    0.974
    38   1 H    0.995 --    15 C    0.975
    39   1 H    0.991 --    15 C    0.979
    40   1 H    0.986 --    19 C    0.972
    41   1 H    0.980 --    19 C    0.932
    42   1 H    0.974 --    19 C    0.912
    43   1 H    1.006 --    22 C    0.980
    44   1 H    1.001 --    22 C    0.971
    45   1 H    1.000 --    22 C    0.974
    46   1 H    0.842 --    26 O    0.803
 ---------------------------------------------------------------------------

           -------------------------------------------------
          | TOTAL ENERGY              -86.317566306304 Eh   |
          | GRADIENT NORM               0.000628073082 Eh/α |
          | HOMO-LUMO GAP               0.293956954157 eV   |
           -------------------------------------------------

 * finished run on 2023/06/20 at 15:47:49.027
