   * xtb version 6.5.1 (579679a) compiled by 'ehlert@majestix' on 2022-07-11
          program call               : /lustre/hpc/kemi/ree/PhD/git/ReactivityQM/dep/xtb-6.5.1/bin/xtb --gfn 1 /lustre/hpc/kemi/ree/PhD/git/ReactivityQM/calculations/R03/reac02prodE08/conf05/R03_reac02prodE08_conf05_gfn1.xyz --opt --vfukui --chrg -1 --uhf 0 --alpb DMSO

   ID    Z sym.   atoms
    1    6 C      1, 3, 5, 7-10, 12, 14, 15, 18, 19, 22, 23, 25
    2    8 O      2, 4, 13, 20, 24, 26
    3    7 N      6, 11, 16, 17, 21
    4    1 H      27-46

      * Solvation model:               ALPB
        Solvent                        DMSO
        Solvent mass                       7.8130E+01 g/mol
          :  Hamiltonian                  GFN1-xTB          :
 * total energy  :   -87.0256253 Eh     change       -0.6821210E-12 Eh
 * total energy  :   -87.0377971 Eh     change       -0.1217177E-01 Eh
 * total energy  :   -87.0426419 Eh     change       -0.4844834E-02 Eh
 * total energy  :   -87.0434660 Eh     change       -0.8240462E-03 Eh
 * total energy  :   -87.0439377 Eh     change       -0.4716985E-03 Eh
 * total energy  :   -87.0441557 Eh     change       -0.2180327E-03 Eh
 * total energy  :   -87.0443566 Eh     change       -0.2009268E-03 Eh
 * total energy  :   -87.0445308 Eh     change       -0.1741634E-03 Eh
 * total energy  :   -87.0446668 Eh     change       -0.1360255E-03 Eh
 * total energy  :   -87.0447564 Eh     change       -0.8955832E-04 Eh
 * total energy  :   -87.0466527 Eh     change       -0.3283922E-04 Eh
 * total energy  :   -87.0466741 Eh     change       -0.2137005E-04 Eh
 * total energy  :   -87.0466848 Eh     change       -0.1073973E-04 Eh
 * total energy  :   -87.0466929 Eh     change       -0.8095939E-05 Eh
 * total energy  :   -87.0467028 Eh     change       -0.9922433E-05 Eh
 * total energy  :   -87.0467111 Eh     change       -0.8212433E-05 Eh
 * total energy  :   -87.0467186 Eh     change       -0.7567756E-05 Eh
 * total energy  :   -87.0467256 Eh     change       -0.7003955E-05 Eh
 * total energy  :   -87.0467275 Eh     change       -0.1830874E-05 Eh
   *** GEOMETRY OPTIMIZATION CONVERGED AFTER 68 ITERATIONS ***

 final structure:
================
46
 xtb: 6.5.1 (579679a)
C           -5.77110515184889        0.87100636700198        3.25170099775002
O           -4.90912953125586        1.04290404838260        2.13123630773890
C           -3.88899923666241        0.16416290285043        2.02820593788551
O           -3.71687101374266       -0.72305756770772        2.84937679165323
C           -3.03359178090989        0.38746518910379        0.85678923998972
N           -1.98256688482991       -0.48871134411008        0.74587966586909
C           -1.13162788584326       -0.42142596131184       -0.22313678969280
C           -0.02623411739357       -1.47397784144815       -0.22536719021429
C           -0.18410005418651       -2.41151932925585       -1.43215413806124
C           -0.10914845777963       -2.30277480624281        1.06672411235031
N            1.25724890475172       -0.77996738633651       -0.25431549073271
C            2.46124644267632       -1.36884991224250       -0.34244790189354
O            2.67010778443509       -2.54660827431123       -0.59441901471580
C            3.59863336654871       -0.31206120485809       -0.11351144549613
C            4.72400699278453       -0.95448004880909        0.70531777388445
N            3.03274193457252        0.86484035836908        0.52487590124037
N            3.16901804290070        1.88536080571358       -0.37232652298842
C            3.75247162721155        1.45256889097407       -1.43189178766054
C            4.10122577330874        2.23030861533909       -2.64970942044906
O            4.07936513865226        0.11144526556325       -1.38740973926485
N           -1.21729290772142        0.54173334188841       -1.20520742830047
C           -0.30718140832549        0.67119685108886       -2.34214695231043
C           -2.26645897822742        1.46038486294506       -1.20488704868150
O           -2.38418061272565        2.31006009554575       -2.09756112451072
C           -3.18974570208312        1.36470859814147       -0.11074732921577
O           -4.19405629097626        2.27212007765571       -0.11604033823881
H           -6.53407386373849        1.64464683496904        3.18450734356714
H           -6.23851871298070       -0.11764052543929        3.22779253524073
H           -5.21203887962046        0.97751608208451        4.18592481348199
H           -1.20851409679611       -2.77954694778339       -1.46737357200872
H            0.49053537472072       -3.26046668171862       -1.33413511899515
H            0.03837036810483       -1.90271311704776       -2.36651310686802
H           -1.06601318713485       -2.81955287393510        1.11549915450931
H            0.69436569679720       -3.03756324289340        1.07625898950778
H           -0.01376915922527       -1.65615167650343        1.93788126518282
H            1.32464864772207        0.15639656611972        0.17169543682715
H            5.05181120587866       -1.87552387647385        0.22529008033394
H            4.35890166990536       -1.17713844042144        1.70589439803617
H            5.56152069671754       -0.26354426341397        0.77359271783940
H            3.72421187061959        3.24615552876933       -2.54985817630041
H            3.66397046422572        1.77045422084152       -3.53710076159090
H            5.18335979048570        2.26375081592923       -2.78899612196974
H           -0.20136413897713        1.73220700532171       -2.57147196204113
H            0.66826922843233        0.25447524668574       -2.10956110653231
H           -0.73300988396776        0.16750746402091       -3.21089480107539
H           -4.08643908451092        2.82989928696899       -0.90801807309614

          :  Hamiltonian                  GFN1-xTB          :
         :: total energy             -87.046727454087 Eh    ::
         :: gradient norm              0.000276391595 Eh/a0 ::
         :: HOMO-LUMO gap              0.087022160083 eV    ::
         :: SCC energy               -87.836667546419 Eh    ::
         :: -> Gsolv                  -0.103310647624 Eh    ::
         :: repulsion energy           0.820300801832 Eh    ::

    * Orbital Energies and Occupations

         #    Occupation            Energy/Eh            Energy/eV
      -------------------------------------------------------------
         1        2.0000           -0.8171526             -22.2359
       ...           ...                  ...                  ...
        59        2.0000           -0.4775384             -12.9945
        60        2.0000           -0.4728610             -12.8672
        61        2.0000           -0.4618225             -12.5668
        62        2.0000           -0.4523956             -12.3103
        63        2.0000           -0.4395345             -11.9603
        64        2.0000           -0.4316164             -11.7449
        65        2.0000           -0.4277192             -11.6388
        66        2.0000           -0.4265270             -11.6064
        67        2.0000           -0.4199553             -11.4276
        68        2.0000           -0.4099351             -11.1549
        69        2.0000           -0.4070811             -11.0772
        70        2.0000           -0.3837011             -10.4410
        71        1.6866           -0.3097021              -8.4274 (HOMO)
        72        0.3134           -0.3065041              -8.3404 (LUMO)
        73                         -0.2623080              -7.1378
        74                         -0.2304532              -6.2709
        75                         -0.2183621              -5.9419
        76                         -0.1928589              -5.2480
        77                         -0.1352579              -3.6806
        78                         -0.1304371              -3.5494
        79                         -0.1301781              -3.5423
        80                         -0.1183199              -3.2196
        81                         -0.1120884              -3.0501
        82                         -0.1078078              -2.9336
       ...                                ...                  ...
       144                          0.7113554              19.3570
      -------------------------------------------------------------
                  HL-Gap            0.0031980 Eh            0.0870 eV

Wiberg/Mayer (AO) data.
largest (>0.10) Wiberg bond orders for each atom

     #   Z sym  total        # sym  WBO       # sym  WBO       # sym  WBO
 ---------------------------------------------------------------------------
     1   6 C    3.887 --    27 H    0.987    29 H    0.980    28 H    0.980
                             2 O    0.914
     2   8 O    2.154 --     3 C    1.064     1 C    0.914     4 O    0.118
     3   6 C    3.785 --     4 O    1.596     2 O    1.064     5 C    1.059
     4   8 O    1.832 --     3 C    1.596     2 O    0.118
     5   6 C    3.871 --    25 C    1.397     6 N    1.171     3 C    1.059
     6   7 N    3.022 --     7 C    1.589     5 C    1.171
     7   6 C    3.908 --     6 N    1.589    21 N    1.148     8 C    0.974
     8   6 C    3.946 --    10 C    0.990     9 C    0.985     7 C    0.974
                            11 N    0.930
     9   6 C    3.990 --    30 H    0.987     8 C    0.985    32 H    0.981
                            31 H    0.979
    10   6 C    3.994 --     8 C    0.990    33 H    0.985    35 H    0.985
                            34 H    0.984
    11   7 N    3.336 --    12 C    1.274     8 C    0.930    36 H    0.855
                            13 O    0.163
    12   6 C    3.850 --    13 O    1.602    11 N    1.274    14 C    0.880
    13   8 O    1.893 --    12 C    1.602    11 N    0.163
    14   6 C    3.891 --    16 N    1.017    15 C    0.974    20 O    0.910
                            12 C    0.880
    15   6 C    3.976 --    38 H    0.987    39 H    0.985    37 H    0.985
                            14 C    0.974
    16   7 N    2.503 --    17 N    1.184    14 C    1.017    18 C    0.109
    17   7 N    2.988 --    18 C    1.638    16 N    1.184
    18   6 C    3.776 --    17 N    1.638    19 C    1.021    20 O    0.980
                            16 N    0.109
    19   6 C    3.994 --    18 C    1.021    40 H    0.986    41 H    0.974
                            42 H    0.972
    20   8 O    2.079 --    18 C    0.980    14 C    0.910
    21   7 N    3.427 --     7 C    1.148    23 C    1.092    22 C    0.935
                            24 O    0.117
    22   6 C    3.930 --    45 H    0.977    44 H    0.976    43 H    0.976
                            21 N    0.935
    23   6 C    3.866 --    24 O    1.500    25 C    1.141    21 N    1.092
    24   8 O    1.823 --    23 C    1.500    21 N    0.117
    25   6 C    3.808 --     5 C    1.397    23 C    1.141    26 O    1.067
    26   8 O    2.026 --    25 C    1.067    46 H    0.819
    27   1 H    1.014 --     1 C    0.987
    28   1 H    1.010 --     1 C    0.980
    29   1 H    1.010 --     1 C    0.980
    30   1 H    1.004 --     9 C    0.987
    31   1 H    1.016 --     9 C    0.979
    32   1 H    1.004 --     9 C    0.981
    33   1 H    1.013 --    10 C    0.985
    34   1 H    1.008 --    10 C    0.984
    35   1 H    1.012 --    10 C    0.985
    36   1 H    0.974 --    11 N    0.855
    37   1 H    1.010 --    15 C    0.985
    38   1 H    1.009 --    15 C    0.987
    39   1 H    1.011 --    15 C    0.985
    40   1 H    1.006 --    19 C    0.986
    41   1 H    1.002 --    19 C    0.974
    42   1 H    1.001 --    19 C    0.972
    43   1 H    1.010 --    22 C    0.976
    44   1 H    1.014 --    22 C    0.976
    45   1 H    1.003 --    22 C    0.977
    46   1 H    0.863 --    26 O    0.819
 ---------------------------------------------------------------------------

           -------------------------------------------------
          | TOTAL ENERGY              -87.046727454087 Eh   |
          | GRADIENT NORM               0.000276391595 Eh/α |
          | HOMO-LUMO GAP               0.087022160083 eV   |
           -------------------------------------------------

 * finished run on 2023/06/20 at 15:22:50.026
