   * xtb version 6.5.1 (579679a) compiled by 'ehlert@majestix' on 2022-07-11
          program call               : /lustre/hpc/kemi/ree/PhD/git/ReactivityQM/dep/xtb-6.5.1/bin/xtb --gfn 1 /lustre/hpc/kemi/ree/PhD/git/ReactivityQM/calculations/R02methylcation/reac01prodN19/conf13/R02methylcation_reac01prodN19_conf13_gfn1.xyz --opt --vfukui --chrg 0 --uhf 0 --alpb DMSO

   ID    Z sym.   atoms
    1    6 C      1, 3, 5, 7-10, 12, 14, 17, 18, 21, 23, 24
    2    8 O      2, 4, 13, 19, 22, 25
    3    7 N      6, 11, 15, 16, 20
    4    1 H      26-42

      * Solvation model:               ALPB
        Solvent                        DMSO
        Solvent mass                       7.8130E+01 g/mol
          :  Hamiltonian                  GFN1-xTB          :
 * total energy  :   -82.9812544 Eh     change       -0.4752110E-10 Eh
 * total energy  :   -82.9933417 Eh     change       -0.1208731E-01 Eh
 * total energy  :   -82.9981997 Eh     change       -0.4857920E-02 Eh
 * total energy  :   -82.9991994 Eh     change       -0.9997236E-03 Eh
 * total energy  :   -83.0000002 Eh     change       -0.8008500E-03 Eh
 * total energy  :   -83.0004053 Eh     change       -0.4050539E-03 Eh
 * total energy  :   -83.0007848 Eh     change       -0.3794812E-03 Eh
 * total energy  :   -83.0011473 Eh     change       -0.3625201E-03 Eh
 * total energy  :   -83.0014192 Eh     change       -0.2719303E-03 Eh
 * total energy  :   -83.0015953 Eh     change       -0.1760312E-03 Eh
 * total energy  :   -83.0029315 Eh     change       -0.1738544E-04 Eh
 * total energy  :   -83.0029622 Eh     change       -0.3065558E-04 Eh
 * total energy  :   -83.0029849 Eh     change       -0.2265147E-04 Eh
 * total energy  :   -83.0029983 Eh     change       -0.1345549E-04 Eh
 * total energy  :   -83.0030096 Eh     change       -0.1127009E-04 Eh
 * total energy  :   -83.0030221 Eh     change       -0.1250477E-04 Eh
 * total energy  :   -83.0030258 Eh     change       -0.3736426E-05 Eh
 * total energy  :   -83.0030287 Eh     change       -0.2891599E-05 Eh
 * total energy  :   -83.0030321 Eh     change       -0.3431508E-05 Eh
   *** GEOMETRY OPTIMIZATION CONVERGED AFTER 43 ITERATIONS ***

 final structure:
================
42
 xtb: 6.5.1 (579679a)
C           -4.57184577790508        3.77425004368388       -0.55129016779770
O           -3.66908835918631        2.69920780064311       -0.29526712612367
C           -4.09066133674206        1.47204328937882       -0.65959044958708
O           -5.17075118213388        1.29271713038262       -1.18054688243662
C           -3.09486867216401        0.42664047516494       -0.34546512756426
N           -1.95778814316166        0.86087343916221        0.25069111479321
C           -1.01456533797315        0.03973744500470        0.57614127571686
C            0.22949339130326        0.51438941340207        1.29925885409773
C            0.28416216114572       -0.08691334983187        2.71097421400033
C            0.21183018402978        2.04136308196996        1.36927116669474
N            1.44758669666787        0.13536408372563        0.55726968104723
C            1.94153888769359       -1.10571989341969        0.41940445306622
O            1.36467466174122       -2.14736319263683        0.72722728177244
C            3.29066962043585       -1.12689912064161       -0.18486367085965
N            4.00800496780683       -2.16270665762902       -0.49390086726584
N            5.18012091202118       -1.69270867833272       -0.99951958495600
C            5.11031496344497       -0.39721673898772       -0.96699147683849
C            6.13402187445422        0.57765257704000       -1.39992691229371
O            3.93878267115296        0.02519752311122       -0.46433086283279
N           -1.14969075511285       -1.30594083951307        0.33349876474779
C           -2.21650931865640       -1.82136409442102       -0.25458304247218
O           -2.29580926473152       -3.11414893765116       -0.49561121086008
C           -1.24127274788341       -4.00427314314202       -0.12779767585211
C           -3.34250725023735       -0.94962131195637       -0.65512679305474
O           -4.34671866468752       -1.42372919234161       -1.19393515771609
H           -4.80973333665850        3.82643858588759       -1.61749694517033
H           -5.49624247776767        3.63750442404108        0.01691955635913
H           -4.06986462177355        4.68660690811979       -0.23472260948148
H            1.18875694043472        0.24909567867040        3.21440114955373
H           -0.58401163305497        0.24492799575369        3.27814899961762
H            0.28554523593190       -1.17422249509173        2.67151798340438
H           -0.67622359152012        2.37076616148763        1.90653082855405
H            1.09691462491162        2.40119725708537        1.88910925996867
H            0.18685646464452        2.46314345483043        0.36562934808136
H            2.05146751539586        0.89814046271643        0.29185863806280
H            6.39648537318334        1.23195004120355       -0.56884853914549
H            5.73979409147614        1.19888796782257       -2.20424134189474
H            7.02014628084472        0.05017492581217       -1.74560599453590
H           -0.34611564762863       -1.89268360910330        0.58267943082490
H           -1.55985159270604       -4.99467192202937       -0.44859090302670
H           -0.31180980193411       -3.72730962226130       -0.63044485921657
H           -1.09123600510451       -3.99077936710722        0.95390520061744

          :  Hamiltonian                  GFN1-xTB          :
         :: total energy             -83.003032144279 Eh    ::
         :: gradient norm              0.000455822386 Eh/a0 ::
         :: HOMO-LUMO gap              2.304799650005 eV    ::
         :: SCC energy               -83.778575662001 Eh    ::
         :: -> Gsolv                  -0.069330558273 Eh    ::
         :: repulsion energy           0.801221328760 Eh    ::

    * Orbital Energies and Occupations

         #    Occupation            Energy/Eh            Energy/eV
      -------------------------------------------------------------
         1        2.0000           -0.8699207             -23.6717
       ...           ...                  ...                  ...
        55        2.0000           -0.5049610             -13.7407
        56        2.0000           -0.5046893             -13.7333
        57        2.0000           -0.4910824             -13.3630
        58        2.0000           -0.4851669             -13.2021
        59        2.0000           -0.4845759             -13.1860
        60        2.0000           -0.4754038             -12.9364
        61        2.0000           -0.4720945             -12.8463
        62        2.0000           -0.4682179             -12.7409
        63        2.0000           -0.4639141             -12.6237
        64        2.0000           -0.4570931             -12.4381
        65        2.0000           -0.4536216             -12.3437
        66        2.0000           -0.4188006             -11.3961
        67        2.0000           -0.4093680             -11.1395 (HOMO)
        68                         -0.3246682              -8.8347 (LUMO)
        69                         -0.3199734              -8.7069
        70                         -0.2786750              -7.5831
        71                         -0.2604070              -7.0860
        72                         -0.2369074              -6.4466
        73                         -0.2078430              -5.6557
        74                         -0.1492425              -4.0611
        75                         -0.1461116              -3.9759
        76                         -0.1431879              -3.8963
        77                         -0.1324045              -3.6029
        78                         -0.1305507              -3.5525
       ...                                ...                  ...
       134                          0.7319576              19.9176
      -------------------------------------------------------------
                  HL-Gap            0.0846998 Eh            2.3048 eV

Wiberg/Mayer (AO) data.
largest (>0.10) Wiberg bond orders for each atom

     #   Z sym  total        # sym  WBO       # sym  WBO       # sym  WBO
 ---------------------------------------------------------------------------
     1   6 C    3.882 --    28 H    0.986    27 H    0.980    26 H    0.980
                             2 O    0.908
     2   8 O    2.174 --     3 C    1.077     1 C    0.908     4 O    0.125
     3   6 C    3.852 --     4 O    1.640     2 O    1.077     5 C    1.043
     4   8 O    1.908 --     3 C    1.640     2 O    0.125
     5   6 C    3.944 --     6 N    1.271    24 C    1.213     3 C    1.043
                            25 O    0.129
     6   7 N    3.044 --     7 C    1.552     5 C    1.271
     7   6 C    3.917 --     6 N    1.552    20 N    1.118     8 C    0.977
     8   6 C    3.931 --    10 C    1.002     9 C    0.981     7 C    0.977
                            11 N    0.910
     9   6 C    3.986 --    30 H    0.984    29 H    0.983     8 C    0.981
                            31 H    0.980
    10   6 C    3.990 --     8 C    1.002    33 H    0.985    34 H    0.983
                            32 H    0.982
    11   7 N    3.361 --    12 C    1.290     8 C    0.910    35 H    0.890
                            13 O    0.171
    12   6 C    3.914 --    13 O    1.528    11 N    1.290    14 C    1.005
    13   8 O    1.923 --    12 C    1.528    11 N    0.171
    14   6 C    3.875 --    15 N    1.616    19 O    1.046    12 C    1.005
    15   7 N    3.002 --    14 C    1.616    16 N    1.205
    16   7 N    2.982 --    17 C    1.604    15 N    1.205
    17   6 C    3.866 --    16 N    1.604    19 O    1.074    18 C    1.033
    18   6 C    3.985 --    17 C    1.033    38 H    0.982    36 H    0.962
                            37 H    0.961
    19   8 O    2.318 --    17 C    1.074    14 C    1.046
    20   7 N    3.523 --    21 C    1.350     7 C    1.118    39 H    0.814
    21   6 C    3.860 --    20 N    1.350    22 O    1.149    24 C    1.042
    22   8 O    2.232 --    21 C    1.149    23 C    0.890
    23   6 C    3.864 --    40 H    0.981    42 H    0.977    41 H    0.975
                            22 O    0.890
    24   6 C    3.948 --    25 O    1.539     5 C    1.213    21 C    1.042
    25   8 O    1.852 --    24 C    1.539     5 C    0.129
    26   1 H    1.010 --     1 C    0.980
    27   1 H    1.009 --     1 C    0.980
    28   1 H    1.013 --     1 C    0.986
    29   1 H    0.999 --     9 C    0.983
    30   1 H    1.000 --     9 C    0.984
    31   1 H    1.005 --     9 C    0.980
    32   1 H    1.007 --    10 C    0.982
    33   1 H    0.998 --    10 C    0.985
    34   1 H    1.003 --    10 C    0.983
    35   1 H    0.934 --    11 N    0.890
    36   1 H    0.996 --    18 C    0.962
    37   1 H    0.996 --    18 C    0.961
    38   1 H    0.998 --    18 C    0.982
    39   1 H    0.923 --    20 N    0.814
    40   1 H    1.008 --    23 C    0.981
    41   1 H    1.006 --    23 C    0.975
    42   1 H    1.000 --    23 C    0.977
 ---------------------------------------------------------------------------

           -------------------------------------------------
          | TOTAL ENERGY              -83.003032144279 Eh   |
          | GRADIENT NORM               0.000455822386 Eh/α |
          | HOMO-LUMO GAP               2.304799650005 eV   |
           -------------------------------------------------

 * finished run on 2023/06/21 at 18:02:53.096
