   * xtb version 6.5.1 (579679a) compiled by 'ehlert@majestix' on 2022-07-11
          program call               : /lustre/hpc/kemi/ree/PhD/git/ReactivityQM/dep/xtb-6.5.1/bin/xtb --gfn 1 /lustre/hpc/kemi/ree/PhD/git/ReactivityQM/calculations/R02deprot/reac01prodN17/conf03/R02deprot_reac01prodN17_conf03_gfn1.xyz --opt --vfukui --chrg 0 --uhf 0 --alpb DMSO

   ID    Z sym.   atoms
    1    6 C      1, 2, 5, 6, 9-12, 14, 15, 18-20, 22
    2    7 N      3, 4, 8, 13, 24
    3    8 O      7, 16, 17, 21, 23, 25
    4    1 H      26-42

      * Solvation model:               ALPB
        Solvent                        DMSO
        Solvent mass                       7.8130E+01 g/mol
          :  Hamiltonian                  GFN1-xTB          :
 * total energy  :   -82.9113626 Eh     change       -0.2340528E-10 Eh
 * total energy  :   -82.9243717 Eh     change       -0.1300913E-01 Eh
 * total energy  :   -82.9289845 Eh     change       -0.4612742E-02 Eh
 * total energy  :   -82.9299003 Eh     change       -0.9158113E-03 Eh
 * total energy  :   -82.9308782 Eh     change       -0.9779701E-03 Eh
 * total energy  :   -82.9315516 Eh     change       -0.6733846E-03 Eh
 * total energy  :   -82.9321885 Eh     change       -0.6369143E-03 Eh
 * total energy  :   -82.9327541 Eh     change       -0.5655106E-03 Eh
 * total energy  :   -82.9331936 Eh     change       -0.4395316E-03 Eh
 * total energy  :   -82.9335077 Eh     change       -0.3140943E-03 Eh
 * total energy  :   -82.9343996 Eh     change       -0.1522471E-04 Eh
 * total energy  :   -82.9344090 Eh     change       -0.9467308E-05 Eh
 * total energy  :   -82.9344224 Eh     change       -0.1339077E-04 Eh
 * total energy  :   -82.9344329 Eh     change       -0.1047649E-04 Eh
 * total energy  :   -82.9344395 Eh     change       -0.6641706E-05 Eh
 * total energy  :   -82.9344465 Eh     change       -0.6925880E-05 Eh
 * total energy  :   -82.9344520 Eh     change       -0.5588576E-05 Eh
 * total energy  :   -82.9344578 Eh     change       -0.5762765E-05 Eh
 * total energy  :   -82.9344599 Eh     change       -0.2115791E-05 Eh
   *** GEOMETRY OPTIMIZATION CONVERGED AFTER 40 ITERATIONS ***

 final structure:
================
42
 xtb: 6.5.1 (579679a)
C           -6.48024190286479        1.18905339116325       -0.66927967184529
C           -5.77407580391112       -0.03346141175958       -0.22623788919233
N           -6.29770293308866       -1.15382823817803        0.16239588126490
N           -5.26020810022463       -1.98310287161896        0.47595237247696
C           -4.16880119036402       -1.31713014504847        0.25765231042339
C           -2.76788526685546       -1.78597251036596        0.44806698970225
O           -2.52381683002746       -2.90675150512090        0.87612437983038
N           -1.85929352344677       -0.86271049703289        0.11084987417053
C           -0.41637260713353       -1.06694334561993        0.17680974034439
C           -0.00574851692073       -2.21076809723405       -0.76206953649521
C            0.01439549550222       -1.36385174907217        1.61899101448911
C            0.25249107715033        0.21665935464141       -0.29446039130905
N            1.56388084838058        0.24931775777015       -0.15765833026735
C            2.19442660683082        1.39442291920543       -0.56623199210748
C            3.59552493132963        1.52363841724103       -0.39317904469308
O            4.34256467708397        2.42440313888848       -0.63088785738227
O            4.24378588740787        0.31214367679977        0.28950293926960
C            5.55575994118058        0.63410939092352        0.81789723486020
C            4.21363893916052       -0.91420172559687       -0.49098602483703
C            1.47668510882462        2.45647215249171       -1.11153359229654
O            2.02222865194179        3.59783674739361       -1.51680197715847
C            0.00214921467228        2.33359366770337       -1.25058052318869
O           -0.67590310436157        3.23674434951978       -1.73818259612363
N           -0.52397172182389        1.16348213877828       -0.79976069467524
O           -4.43196101729931       -0.07016646617305       -0.19048198120685
H           -6.19397288957138        1.43616485665147       -1.69173207470476
H           -6.20842703702463        2.02871686187964       -0.02938669845326
H           -7.55392066643604        1.02686070543794       -0.62137118594898
H           -2.15280045875242        0.03490262828763       -0.26522907712441
H            1.07967354639656       -2.29004893751442       -0.76970544290443
H           -0.42893478535739       -3.15455394794198       -0.42152879790136
H           -0.35200496936673       -2.00545688647487       -1.77421249326382
H           -0.32733471862799       -0.56956951348720        2.28179494052916
H            1.10109812601246       -1.41129663779131        1.65840436842582
H           -0.39747440670800       -2.31439570743916        1.95442909370407
H            5.43800879042772        1.52087006614598        1.43644722340197
H            6.24968190676921        0.82071624229791       -0.00157021416188
H            5.87079303952035       -0.21730259543276        1.41502805822757
H            4.62236377316906       -1.69873648667259        0.14152825984750
H            3.16639569456450       -1.11039577076791       -0.71711830743402
H            4.80765816785213       -0.79039229085319       -1.39609158852144
H            2.98765102596679        3.63092887396566       -1.39812069777685

          :  Hamiltonian                  GFN1-xTB          :
         :: total energy             -82.934459921285 Eh    ::
         :: gradient norm              0.000556004030 Eh/a0 ::
         :: HOMO-LUMO gap              1.612282228062 eV    ::
         :: SCC energy               -83.712690972109 Eh    ::
         :: -> Gsolv                  -0.077372853349 Eh    ::
         :: repulsion energy           0.804314609689 Eh    ::

    * Orbital Energies and Occupations

         #    Occupation            Energy/Eh            Energy/eV
      -------------------------------------------------------------
         1        2.0000           -0.9048892             -24.6233
       ...           ...                  ...                  ...
        55        2.0000           -0.4999220             -13.6036
        56        2.0000           -0.4911031             -13.3636
        57        2.0000           -0.4891109             -13.3094
        58        2.0000           -0.4746911             -12.9170
        59        2.0000           -0.4630926             -12.6014
        60        2.0000           -0.4579422             -12.4612
        61        2.0000           -0.4567340             -12.4284
        62        2.0000           -0.4526138             -12.3162
        63        2.0000           -0.4453826             -12.1195
        64        2.0000           -0.4356784             -11.8554
        65        2.0000           -0.4307651             -11.7217
        66        2.0000           -0.4020809             -10.9412
        67        2.0000           -0.4017552             -10.9323 (HOMO)
        68                         -0.3425049              -9.3200 (LUMO)
        69                         -0.3019394              -8.2162
        70                         -0.2576849              -7.0120
        71                         -0.2527521              -6.8777
        72                         -0.2332146              -6.3461
        73                         -0.1901322              -5.1738
        74                         -0.1686709              -4.5898
        75                         -0.1591124              -4.3297
        76                         -0.1414030              -3.8478
        77                         -0.1410827              -3.8391
        78                         -0.1286531              -3.5008
       ...                                ...                  ...
       134                          0.7466311              20.3169
      -------------------------------------------------------------
                  HL-Gap            0.0592503 Eh            1.6123 eV

Wiberg/Mayer (AO) data.
largest (>0.10) Wiberg bond orders for each atom

     #   Z sym  total        # sym  WBO       # sym  WBO       # sym  WBO
 ---------------------------------------------------------------------------
     1   6 C    3.987 --     2 C    1.031    28 H    0.983    27 H    0.964
                            26 H    0.964
     2   6 C    3.871 --     3 N    1.616    25 O    1.073     1 C    1.031
     3   7 N    2.980 --     2 C    1.616     4 N    1.193
     4   7 N    2.996 --     5 C    1.626     3 N    1.193
     5   6 C    3.869 --     4 N    1.626    25 O    1.049     6 C    0.986
     6   6 C    3.923 --     7 O    1.561     8 N    1.295     5 C    0.986
     7   8 O    1.882 --     6 C    1.561     8 N    0.184
     8   7 N    3.380 --     6 C    1.295     9 C    0.929    29 H    0.872
                             7 O    0.184
     9   6 C    3.935 --    11 C    0.985    10 C    0.979    12 C    0.975
                             8 N    0.929
    10   6 C    3.991 --    32 H    0.986    30 H    0.983    31 H    0.981
                             9 C    0.979
    11   6 C    3.991 --    33 H    0.986     9 C    0.985    34 H    0.984
                            35 H    0.982
    12   6 C    3.952 --    13 N    1.442    24 N    1.380     9 C    0.975
    13   7 N    3.011 --    12 C    1.442    14 C    1.175
    14   6 C    3.957 --    20 C    1.354    15 C    1.185    13 N    1.175
    15   6 C    3.797 --    16 O    1.727    14 C    1.185    17 O    0.702
    16   8 O    2.064 --    15 C    1.727
    17   8 O    2.481 --    18 C    0.834    19 C    0.822    15 C    0.702
    18   6 C    3.806 --    37 H    0.980    38 H    0.978    36 H    0.976
                            17 O    0.834
    19   6 C    3.796 --    41 H    0.983    39 H    0.978    40 H    0.962
                            17 O    0.822
    20   6 C    3.887 --    14 C    1.354    21 O    1.144    22 C    1.026
    21   8 O    2.128 --    20 C    1.144    42 H    0.800
    22   6 C    3.929 --    23 O    1.548    24 N    1.224    20 C    1.026
    23   8 O    1.847 --    22 C    1.548    24 N    0.132
    24   7 N    3.021 --    12 C    1.380    22 C    1.224    23 O    0.132
    25   8 O    2.316 --     2 C    1.073     5 C    1.049
    26   1 H    0.997 --     1 C    0.964
    27   1 H    0.997 --     1 C    0.964
    28   1 H    0.999 --     1 C    0.983
    29   1 H    0.964 --     8 N    0.872
    30   1 H    1.010 --    10 C    0.983
    31   1 H    1.010 --    10 C    0.981
    32   1 H    1.003 --    10 C    0.986
    33   1 H    1.004 --    11 C    0.986
    34   1 H    1.014 --    11 C    0.984
    35   1 H    1.011 --    11 C    0.982
    36   1 H    0.999 --    18 C    0.976
    37   1 H    0.999 --    18 C    0.980
    38   1 H    0.997 --    18 C    0.978
    39   1 H    0.997 --    19 C    0.978
    40   1 H    1.031 --    19 C    0.962
    41   1 H    0.994 --    19 C    0.983
    42   1 H    0.850 --    21 O    0.800
 ---------------------------------------------------------------------------

           -------------------------------------------------
          | TOTAL ENERGY              -82.934459921285 Eh   |
          | GRADIENT NORM               0.000556004030 Eh/α |
          | HOMO-LUMO GAP               1.612282228062 eV   |
           -------------------------------------------------

 * finished run on 2023/06/20 at 18:28:26.946
