   * xtb version 6.5.1 (579679a) compiled by 'ehlert@majestix' on 2022-07-11
          program call               : /lustre/hpc/kemi/ree/PhD/git/ReactivityQM/dep/xtb-6.5.1/bin/xtb --gfn 1 /lustre/hpc/kemi/ree/PhD/git/ReactivityQM/calculations/R01/reac02prodN11/conf14/R01_reac02prodN11_conf14_gfn1.xyz --opt --vfukui --chrg 1 --uhf 0 --alpb DMSO

   ID    Z sym.   atoms
    1    6 C      1, 3, 5, 6, 8, 11-15
    2    8 O      2, 4, 7, 9
    3    7 N      10, 16, 17
    4    1 H      18-33

      * Solvation model:               ALPB
        Solvent                        DMSO
        Solvent mass                       7.8130E+01 g/mol
          :  Hamiltonian                  GFN1-xTB          :
 * total energy  :   -57.7882118 Eh     change       -0.2441425E-10 Eh
 * total energy  :   -57.8010595 Eh     change       -0.1284769E-01 Eh
 * total energy  :   -57.8054380 Eh     change       -0.4378559E-02 Eh
 * total energy  :   -57.8061180 Eh     change       -0.6799277E-03 Eh
 * total energy  :   -57.8064366 Eh     change       -0.3186735E-03 Eh
 * total energy  :   -57.8065778 Eh     change       -0.1411934E-03 Eh
 * total energy  :   -57.8067076 Eh     change       -0.1297169E-03 Eh
 * total energy  :   -57.8067935 Eh     change       -0.8590489E-04 Eh
 * total energy  :   -57.8068327 Eh     change       -0.3927559E-04 Eh
 * total energy  :   -57.8068532 Eh     change       -0.2049339E-04 Eh
 * total energy  :   -57.8670751 Eh     change        0.7453680E-04 Eh
 * total energy  :   -57.8672318 Eh     change       -0.1567264E-03 Eh
 * total energy  :   -57.8672587 Eh     change       -0.2689281E-04 Eh
 * total energy  :   -57.8673150 Eh     change       -0.5630026E-04 Eh
 * total energy  :   -57.8673353 Eh     change       -0.2023610E-04 Eh
 * total energy  :   -57.8673592 Eh     change       -0.2396160E-04 Eh
 * total energy  :   -57.8673667 Eh     change       -0.7489704E-05 Eh
 * total energy  :   -57.8673757 Eh     change       -0.8923938E-05 Eh
 * total energy  :   -57.8673796 Eh     change       -0.3938616E-05 Eh
   *** GEOMETRY OPTIMIZATION CONVERGED AFTER 111 ITERATIONS ***

 final structure:
================
33
 xtb: 6.5.1 (579679a)
C            5.23977724537049        0.35542151325522       -0.34852029197862
O            3.96626849821154       -0.30125105781290       -0.35630753545826
C            2.90322782479589        0.45987794019807       -0.12807828690549
O            2.96247430252705        1.64808653932181        0.08836919138135
C            1.61589207167401       -0.29940182851883       -0.16803854790870
C            1.45457448153357       -1.62845764677890       -0.43853933486035
O            2.44562550954064       -2.47909110353073       -0.69932640813266
C            0.11607246117119       -2.20944878321150       -0.45503244710059
O           -0.06136762997751       -3.39736212168716       -0.68257431747092
N           -0.93262589218457       -1.32903768616264       -0.21250178666087
C           -2.26147297837175       -1.93674837465063       -0.25558826194048
C           -0.68177457963954       -0.00999661549719        0.08327769879431
C           -1.76523681297548        1.02936387823714        0.34536541450579
C           -1.13888896486626        2.25651414474687        1.01392558399118
C           -2.48690691766028        1.43946535971896       -0.93908340997933
N           -2.79951630398480        0.52016687640983        1.32556435547646
N            0.51518473706716        0.47008100929717        0.09552350359077
H            5.98664680489552       -0.41449721874207       -0.53197756610162
H            5.41069178165027        0.83001915808914        0.62081058726998
H            5.27209841123076        1.11420970037617       -1.13398308944016
H            2.06961357395930       -3.36776514551569       -0.85057435705053
H           -2.36481631324998        0.05556994876804        2.11591720140353
H           -2.96075076955692       -1.28218489871804       -0.76394791905318
H           -2.60002246840508       -2.14938983030429        0.75639907692777
H           -2.17961010277099       -2.87316694181943       -0.80789663005298
H           -0.64184188531251        1.96992735561940        1.93901238243666
H           -0.40319047455195        2.69938300093872        0.34406403582097
H           -1.91093206619874        2.99249621366094        1.22979480718779
H           -3.23294358078247        2.19942657709520       -0.71378808580822
H           -1.75888667624105        1.85479157763350       -1.63537254264016
H           -2.98032114841064        0.59440669615276       -1.41275602269952
H           -3.46002900722985       -0.11641171056977        0.89522188491027
H           -3.33701013126213        1.30500247399457        1.68064211754875

          :  Hamiltonian                  GFN1-xTB          :
         :: total energy             -57.867379589288 Eh    ::
         :: gradient norm              0.000681877353 Eh/a0 ::
         :: HOMO-LUMO gap              2.958956474631 eV    ::
         :: SCC energy               -58.446726111043 Eh    ::
         :: -> Gsolv                  -0.134497444903 Eh    ::
         :: repulsion energy           0.598598241777 Eh    ::

    * Orbital Energies and Occupations

         #    Occupation            Energy/Eh            Energy/eV
      -------------------------------------------------------------
         1        2.0000           -0.8977822             -24.4299
       ...           ...                  ...                  ...
        35        2.0000           -0.5522159             -15.0266
        36        2.0000           -0.5483109             -14.9203
        37        2.0000           -0.5457797             -14.8514
        38        2.0000           -0.5441576             -14.8073
        39        2.0000           -0.5333821             -14.5141
        40        2.0000           -0.5284078             -14.3787
        41        2.0000           -0.5197491             -14.1431
        42        2.0000           -0.5030342             -13.6883
        43        2.0000           -0.4968208             -13.5192
        44        2.0000           -0.4927928             -13.4096
        45        2.0000           -0.4776226             -12.9968
        46        2.0000           -0.4641906             -12.6313
        47        2.0000           -0.4465551             -12.1514 (HOMO)
        48                         -0.3378154              -9.1924 (LUMO)
        49                         -0.3068443              -8.3497
        50                         -0.2530176              -6.8850
        51                         -0.2083388              -5.6692
        52                         -0.1751972              -4.7674
        53                         -0.1715119              -4.6671
        54                         -0.1596277              -4.3437
        55                         -0.1463271              -3.9818
        56                         -0.1418106              -3.8589
        57                         -0.1364582              -3.7132
        58                         -0.1190001              -3.2382
       ...                                ...                  ...
       100                          0.7254129              19.7395
      -------------------------------------------------------------
                  HL-Gap            0.1087396 Eh            2.9590 eV

Wiberg/Mayer (AO) data.
largest (>0.10) Wiberg bond orders for each atom

     #   Z sym  total        # sym  WBO       # sym  WBO       # sym  WBO
 ---------------------------------------------------------------------------
     1   6 C    3.867 --    18 H    0.986    19 H    0.979    20 H    0.979
                             2 O    0.892
     2   8 O    2.210 --     3 C    1.126     1 C    0.892     4 O    0.137
     3   6 C    3.855 --     4 O    1.660     2 O    1.126     5 C    0.992
     4   8 O    1.923 --     3 C    1.660     2 O    0.137
     5   6 C    3.959 --     6 C    1.494    17 N    1.181     3 C    0.992
     6   6 C    3.922 --     5 C    1.494     7 O    1.123     8 C    1.065
     7   8 O    2.099 --     6 C    1.123    21 H    0.799
     8   6 C    3.910 --     9 O    1.577    10 N    1.118     6 C    1.065
     9   8 O    1.923 --     8 C    1.577    10 N    0.135
    10   7 N    3.499 --    12 C    1.161     8 C    1.118    11 C    0.928
                             9 O    0.135
    11   6 C    3.917 --    23 H    0.974    24 H    0.973    25 H    0.966
                            10 N    0.928
    12   6 C    3.941 --    17 N    1.589    10 N    1.161    13 C    0.980
    13   6 C    3.884 --    14 C    0.999    15 C    0.991    12 C    0.980
                            16 N    0.873
    14   6 C    3.981 --    13 C    0.999    26 H    0.982    28 H    0.981
                            27 H    0.975
    15   6 C    3.981 --    13 C    0.991    29 H    0.979    30 H    0.976
                            31 H    0.975
    16   7 N    3.564 --    22 H    0.887    32 H    0.887    33 H    0.883
                            13 C    0.873
    17   7 N    3.041 --    12 C    1.589     5 C    1.181
    18   1 H    1.010 --     1 C    0.986
    19   1 H    1.006 --     1 C    0.979
    20   1 H    1.006 --     1 C    0.979
    21   1 H    0.840 --     7 O    0.799
    22   1 H    0.905 --    16 N    0.887
    23   1 H    1.000 --    11 C    0.974
    24   1 H    0.995 --    11 C    0.973
    25   1 H    1.000 --    11 C    0.966
    26   1 H    1.000 --    14 C    0.982
    27   1 H    1.009 --    14 C    0.975
    28   1 H    0.995 --    14 C    0.981
    29   1 H    0.992 --    15 C    0.979
    30   1 H    0.995 --    15 C    0.976
    31   1 H    0.997 --    15 C    0.975
    32   1 H    0.919 --    16 N    0.887
    33   1 H    0.904 --    16 N    0.883
 ---------------------------------------------------------------------------

           -------------------------------------------------
          | TOTAL ENERGY              -57.867379589288 Eh   |
          | GRADIENT NORM               0.000681877353 Eh/α |
          | HOMO-LUMO GAP               2.958956474631 eV   |
           -------------------------------------------------

 * finished run on 2023/06/20 at 15:11:28.711
