   * xtb version 6.5.1 (579679a) compiled by 'ehlert@majestix' on 2022-07-11
          program call               : /lustre/hpc/kemi/ree/PhD/git/ReactivityQM/dep/xtb-6.5.1/bin/xtb --gfn 1 /lustre/hpc/kemi/ree/PhD/git/ReactivityQM/calculations/R02deprot/reac01prodN05/conf16/R02deprot_reac01prodN05_conf16_gfn1.xyz --opt --vfukui --chrg 0 --uhf 0 --alpb DMSO

   ID    Z sym.   atoms
    1    6 C      1, 3, 5, 7-10, 12, 14, 17, 18, 21, 23, 25
    2    8 O      2, 4, 13, 19, 22, 24
    3    7 N      6, 11, 15, 16, 20
    4    1 H      26-42

      * Solvation model:               ALPB
        Solvent                        DMSO
        Solvent mass                       7.8130E+01 g/mol
          :  Hamiltonian                  GFN1-xTB          :
 * total energy  :   -82.9264417 Eh     change       -0.2148681E-10 Eh
 * total energy  :   -82.9425252 Eh     change       -0.1608354E-01 Eh
 * total energy  :   -82.9499723 Eh     change       -0.7447079E-02 Eh
 * total energy  :   -82.9524559 Eh     change       -0.2483613E-02 Eh
 * total energy  :   -82.9546250 Eh     change       -0.2169021E-02 Eh
 * total energy  :   -82.9561098 Eh     change       -0.1484816E-02 Eh
 * total energy  :   -82.9573311 Eh     change       -0.1221358E-02 Eh
 * total energy  :   -82.9593525 Eh     change       -0.2021394E-02 Eh
 * total energy  :   -82.9603478 Eh     change       -0.9952469E-03 Eh
 * total energy  :   -82.9618178 Eh     change       -0.1470041E-02 Eh
 * total energy  :   -82.9731541 Eh     change       -0.1105197E-04 Eh
 * total energy  :   -82.9731629 Eh     change       -0.8840512E-05 Eh
 * total energy  :   -82.9731705 Eh     change       -0.7605589E-05 Eh
 * total energy  :   -82.9731771 Eh     change       -0.6527182E-05 Eh
 * total energy  :   -82.9731828 Eh     change       -0.5774978E-05 Eh
 * total energy  :   -82.9731882 Eh     change       -0.5357319E-05 Eh
 * total energy  :   -82.9731937 Eh     change       -0.5539674E-05 Eh
 * total energy  :   -82.9731996 Eh     change       -0.5852458E-05 Eh
 * total energy  :   -82.9732021 Eh     change       -0.2476489E-05 Eh
   *** GEOMETRY OPTIMIZATION CONVERGED AFTER 94 ITERATIONS ***

 final structure:
================
42
 xtb: 6.5.1 (579679a)
C           -5.18727199457687        1.13635988853654        2.75242657083921
O           -3.97430954123432        0.75833042201901        2.08541063400270
C           -4.03074980249462        0.28263407885875        0.88522860417351
O           -5.20797488382996        0.16676295165777        0.34789025011636
C           -2.80811612005573       -0.07152947394066        0.23055964495159
N           -1.67538661882475        0.12755290461736        0.96673329629564
C           -0.53317624162351       -0.15137004065460        0.37482420281819
C            0.71709797148666        0.05390061969693        1.21714907395765
C            0.64807875945826        1.40880213739734        1.93148229230990
C            0.81231853983532       -1.09599390669217        2.23197738538054
N            1.86262143321612        0.01828038650562        0.31368170816191
C            3.13513285084555        0.18983692518819        0.69621648928235
O            3.51905726549065        0.38516185893417        1.83991758179738
C            4.05969618280506        0.12782175149039       -0.47067996093213
N            3.72509948079870       -0.07438130986465       -1.70890275986378
N            4.87628984203943       -0.03536198093584       -2.43955867863464
C            5.83900987384974        0.18958559630835       -1.59920689818691
C            7.28252787857220        0.32397541084565       -1.89537703140925
O            5.38882273421619        0.30144256744525       -0.34039151093660
N           -0.37038400362164       -0.61361872408082       -0.85747735242293
C           -1.43289070019755       -0.86595207286368       -1.66307972588122
O           -1.29975590763701       -1.30697372017154       -2.80935175413866
C           -2.75501363989283       -0.57092470018270       -1.06947168541673
O           -3.91988824670527       -0.74623286707732       -1.71931278629366
C           -3.97694947780831       -1.25964109041840       -3.06004166192888
H           -5.84396022886190        0.27005786186359        2.84183143446656
H           -5.68938766962356        1.92068063191875        2.18450081766336
H           -4.89190718386935        1.49975540295044        3.73404424349701
H            1.49309194032448        1.52919908156942        2.60718934373930
H           -0.27727716939458        1.46108522473983        2.50292649677237
H            0.65729893713224        2.21528562261917        1.19943672428518
H            0.90512636523166       -2.04695285501324        1.70873569459185
H            1.67650863386466       -0.95795543143473        2.88004701162357
H           -0.09155228858622       -1.11102152126211        2.83887158120429
H            1.64908636170878       -0.18109111248127       -0.66029167781038
H            7.44427737607840        0.24336739505320       -2.96738018686548
H            7.64708662940781        1.28792980522858       -1.54143378020571
H            7.84336915431580       -0.45729188839796       -1.38248729873416
H           -5.17950482647190       -0.19818033918405       -0.56661202374431
H           -3.54980378119698       -2.26301274025324       -3.10544532848487
H           -5.03545993768659       -1.29413025014861       -3.31351256102758
H           -3.45087894649056       -0.59619250039343       -3.74875041901067

          :  Hamiltonian                  GFN1-xTB          :
         :: total energy             -82.973202057715 Eh    ::
         :: gradient norm              0.000187530604 Eh/a0 ::
         :: HOMO-LUMO gap              1.527252189995 eV    ::
         :: SCC energy               -83.740972095686 Eh    ::
         :: -> Gsolv                  -0.061663318287 Eh    ::
         :: repulsion energy           0.792602874049 Eh    ::

    * Orbital Energies and Occupations

         #    Occupation            Energy/Eh            Energy/eV
      -------------------------------------------------------------
         1        2.0000           -0.8855487             -24.0970
       ...           ...                  ...                  ...
        55        2.0000           -0.5001332             -13.6093
        56        2.0000           -0.4915338             -13.3753
        57        2.0000           -0.4905956             -13.3498
        58        2.0000           -0.4777185             -12.9994
        59        2.0000           -0.4659450             -12.6790
        60        2.0000           -0.4601746             -12.5220
        61        2.0000           -0.4574708             -12.4484
        62        2.0000           -0.4538883             -12.3509
        63        2.0000           -0.4460106             -12.1366
        64        2.0000           -0.4365133             -11.8781
        65        2.0000           -0.4321581             -11.7596
        66        2.0000           -0.4057068             -11.0398
        67        2.0000           -0.4051122             -11.0237 (HOMO)
        68                         -0.3489867              -9.4964 (LUMO)
        69                         -0.3027922              -8.2394
        70                         -0.2613006              -7.1104
        71                         -0.2532434              -6.8911
        72                         -0.2390020              -6.5036
        73                         -0.1910925              -5.1999
        74                         -0.1554263              -4.2294
        75                         -0.1469249              -3.9980
        76                         -0.1413382              -3.8460
        77                         -0.1304970              -3.5510
        78                         -0.1162244              -3.1626
       ...                                ...                  ...
       134                          0.7253833              19.7387
      -------------------------------------------------------------
                  HL-Gap            0.0561255 Eh            1.5273 eV

Wiberg/Mayer (AO) data.
largest (>0.10) Wiberg bond orders for each atom

     #   Z sym  total        # sym  WBO       # sym  WBO       # sym  WBO
 ---------------------------------------------------------------------------
     1   6 C    3.841 --    28 H    0.983    26 H    0.975    27 H    0.975
                             2 O    0.869
     2   8 O    2.292 --     3 C    1.240     1 C    0.869
     3   6 C    3.806 --     2 O    1.240     4 O    1.221     5 C    1.166
     4   8 O    2.170 --     3 C    1.221    39 H    0.748
     5   6 C    3.957 --    23 C    1.362     6 N    1.194     3 C    1.166
     6   7 N    2.991 --     7 C    1.450     5 C    1.194
     7   6 C    3.951 --     6 N    1.450    20 N    1.372     8 C    0.976
     8   6 C    3.935 --     9 C    0.987    10 C    0.977     7 C    0.976
                            11 N    0.928
     9   6 C    3.992 --     8 C    0.987    31 H    0.986    30 H    0.984
                            29 H    0.982
    10   6 C    3.992 --    32 H    0.986    34 H    0.986    33 H    0.982
                             8 C    0.977
    11   7 N    3.373 --    12 C    1.286     8 C    0.928    35 H    0.876
                            13 O    0.184
    12   6 C    3.922 --    13 O    1.572    11 N    1.286    14 C    0.983
    13   8 O    1.892 --    12 C    1.572    11 N    0.184
    14   6 C    3.872 --    15 N    1.617    19 O    1.062    12 C    0.983
    15   7 N    3.011 --    14 C    1.617    16 N    1.194
    16   7 N    2.980 --    17 C    1.611    15 N    1.194
    17   6 C    3.873 --    16 N    1.611    19 O    1.081    18 C    1.030
    18   6 C    3.987 --    17 C    1.030    36 H    0.983    37 H    0.965
                            38 H    0.963
    19   8 O    2.326 --    17 C    1.081    14 C    1.062
    20   7 N    3.022 --     7 C    1.372    21 C    1.234    22 O    0.131
    21   6 C    3.930 --    22 O    1.516    20 N    1.234    23 C    1.050
    22   8 O    1.851 --    21 C    1.516    20 N    0.131
    23   6 C    3.883 --     5 C    1.362    24 O    1.087    21 C    1.050
    24   8 O    2.222 --    23 C    1.087    25 C    0.874
    25   6 C    3.853 --    41 H    0.985    40 H    0.977    42 H    0.977
                            24 O    0.874
    26   1 H    1.000 --     1 C    0.975
    27   1 H    1.000 --     1 C    0.975
    28   1 H    1.005 --     1 C    0.983
    29   1 H    1.011 --     9 C    0.982
    30   1 H    1.016 --     9 C    0.984
    31   1 H    1.004 --     9 C    0.986
    32   1 H    1.004 --    10 C    0.986
    33   1 H    1.010 --    10 C    0.982
    34   1 H    1.007 --    10 C    0.986
    35   1 H    0.974 --    11 N    0.876
    36   1 H    0.999 --    18 C    0.983
    37   1 H    0.997 --    18 C    0.965
    38   1 H    0.997 --    18 C    0.963
    39   1 H    0.821 --     4 O    0.748
    40   1 H    1.017 --    25 C    0.977
    41   1 H    1.010 --    25 C    0.985
    42   1 H    1.017 --    25 C    0.977
 ---------------------------------------------------------------------------

           -------------------------------------------------
          | TOTAL ENERGY              -82.973202057715 Eh   |
          | GRADIENT NORM               0.000187530604 Eh/α |
          | HOMO-LUMO GAP               1.527252189995 eV   |
           -------------------------------------------------

 * finished run on 2023/06/20 at 18:10:30.633
