   * xtb version 6.5.1 (579679a) compiled by 'ehlert@majestix' on 2022-07-11
          program call               : /lustre/hpc/kemi/ree/PhD/git/ReactivityQM/dep/xtb-6.5.1/bin/xtb --gfn 1 /lustre/hpc/kemi/ree/PhD/git/ReactivityQM/calculations/R03/reac02prodN12/conf12/R03_reac02prodN12_conf12_gfn1.xyz --opt --vfukui --chrg 1 --uhf 0 --alpb DMSO

   ID    Z sym.   atoms
    1    6 C      1, 3, 5, 7-10, 12, 14, 15, 18, 19, 22, 23, 25
    2    8 O      2, 4, 13, 20, 24, 26
    3    7 N      6, 11, 16, 17, 21
    4    1 H      27-46

      * Solvation model:               ALPB
        Solvent                        DMSO
        Solvent mass                       7.8130E+01 g/mol
          :  Hamiltonian                  GFN1-xTB          :
 * total energy  :   -86.2949649 Eh     change       -0.1367937E-09 Eh
 * total energy  :   -86.3095465 Eh     change       -0.1458167E-01 Eh
 * total energy  :   -86.3151398 Eh     change       -0.5593286E-02 Eh
 * total energy  :   -86.3160887 Eh     change       -0.9489016E-03 Eh
 * total energy  :   -86.3166284 Eh     change       -0.5396986E-03 Eh
 * total energy  :   -86.3168375 Eh     change       -0.2090397E-03 Eh
 * total energy  :   -86.3170467 Eh     change       -0.2091843E-03 Eh
 * total energy  :   -86.3172196 Eh     change       -0.1729821E-03 Eh
 * total energy  :   -86.3173607 Eh     change       -0.1410534E-03 Eh
 * total energy  :   -86.3174639 Eh     change       -0.1032124E-03 Eh
 * total energy  :   -86.3177954 Eh     change       -0.1715146E-04 Eh
 * total energy  :   -86.3178094 Eh     change       -0.1393255E-04 Eh
 * total energy  :   -86.3178215 Eh     change       -0.1211766E-04 Eh
 * total energy  :   -86.3178291 Eh     change       -0.7601743E-05 Eh
 * total energy  :   -86.3178393 Eh     change       -0.1016560E-04 Eh
 * total energy  :   -86.3178451 Eh     change       -0.5826196E-05 Eh
 * total energy  :   -86.3178512 Eh     change       -0.6085425E-05 Eh
 * total energy  :   -86.3178564 Eh     change       -0.5180539E-05 Eh
 * total energy  :   -86.3178608 Eh     change       -0.4445147E-05 Eh
   *** GEOMETRY OPTIMIZATION CONVERGED AFTER 27 ITERATIONS ***

 final structure:
================
46
 xtb: 6.5.1 (579679a)
C           -5.83412775430864       -3.28444272850975       -0.14897114087633
O           -4.91516407017186       -2.23327860872519       -0.46787243431075
C           -3.90878937643630       -2.04518294474345        0.37938811625991
O           -3.74408778432113       -2.70589913262455        1.37888185959875
C           -2.99975893297482       -0.93050884882525       -0.02638479896353
N           -1.95251021643882       -0.73208397438141        0.83125534791455
C           -1.07963109895079        0.19988744934190        0.64116042286232
C            0.00769897654779        0.30002194520419        1.70065230329442
C           -0.26485320478298        1.48608261598318        2.63294799560296
C            0.06333786283278       -1.00403690853644        2.50486863614417
N            1.30965147342206        0.45180193582334        1.00254240502258
C            2.43493311726807        0.68382611589826        1.64894639653099
O            2.63754503020321        0.84539616118863        2.81945046244655
C            3.70089783322116        0.82409417398773        0.65529582222246
C            4.24754174095433        2.23534778632659        0.86220597176231
N            4.57696794376772       -0.22579976497716        0.97530387756306
N            4.69542893459658       -1.00705563600130       -0.01692249620059
C            3.94306367136516       -0.50239079031915       -1.03741954637643
C            3.81475802488422       -1.08201480004736       -2.36948734493107
O            3.34034609674994        0.57984205842505       -0.67961120872965
N           -1.15923894711668        1.06429687753944       -0.42207689292555
C           -0.23744843750217        2.16439628672654       -0.70952772980208
C           -2.15300459754582        0.92113457817703       -1.37779879335153
O           -2.22108945304450        1.65087515733667       -2.35822103089978
C           -3.12149277184384       -0.14090794107681       -1.13598586359998
O           -4.08137572136489       -0.25619560399077       -2.05491050665891
H           -6.31318255217708       -3.08372911541098        0.81223483408301
H           -5.30641822012503       -4.23976485431450       -0.09921609661958
H           -6.57476778435116       -3.30090500246918       -0.94606731709544
H           -0.16605491190803        2.43389304991260        2.11052789596138
H            0.42928900631792        1.47431145466640        3.47116407294824
H           -1.28102199085964        1.39993719833721        3.01630246923889
H           -0.88444102029734       -1.15631538386165        3.01878261051436
H            0.24343256597194       -1.84449156476763        1.83717366750898
H            0.86464187883217       -0.94802021170729        3.23916826012431
H            1.33474511241030        0.28354744164402        0.01213800199570
H            5.13842761838216        2.36162300925419        0.25094878251878
H            3.49105198859359        2.95637216938042        0.56204728936089
H            4.48796937491712        2.36244494865328        1.91614549505112
H            3.73904734551288       -2.16795629528208       -2.30365637768294
H            4.72795110204776       -0.85547583344982       -2.93021867252400
H            2.96404354313720       -0.65500909297546       -2.89578681811486
H           -0.82942177282364        3.01889389836779       -1.03800254890805
H            0.42898984487880        1.86306441848675       -1.51658582303096
H            0.33853557125350        2.42889263515674        0.16733823019523
H           -3.93241503872094        0.41148067117829       -2.75076378512294

          :  Hamiltonian                  GFN1-xTB          :
         :: total energy             -86.317860802570 Eh    ::
         :: gradient norm              0.000733610650 Eh/a0 ::
         :: HOMO-LUMO gap              0.299379688094 eV    ::
         :: SCC energy               -87.148969153598 Eh    ::
         :: -> Gsolv                  -0.123380204534 Eh    ::
         :: repulsion energy           0.861239015008 Eh    ::

    * Orbital Energies and Occupations

         #    Occupation            Energy/Eh            Energy/eV
      -------------------------------------------------------------
         1        2.0000           -0.9374859             -25.5103
       ...           ...                  ...                  ...
        58        2.0000           -0.5310738             -14.4513
        59        2.0000           -0.5249525             -14.2847
        60        2.0000           -0.5212194             -14.1831
        61        2.0000           -0.5172090             -14.0740
        62        2.0000           -0.5158185             -14.0361
        63        2.0000           -0.5037459             -13.7076
        64        2.0000           -0.5003714             -13.6158
        65        2.0000           -0.4944977             -13.4560
        66        2.0000           -0.4916988             -13.3798
        67        2.0000           -0.4850887             -13.1999
        68        2.0000           -0.4697878             -12.7836
        69        2.0000           -0.4581050             -12.4657
        70        1.9939           -0.4394999             -11.9594 (HOMO)
        71        0.0061           -0.4284979             -11.6600 (LUMO)
        72                         -0.3318411              -9.0299
        73                         -0.3314383              -9.0189
        74                         -0.3024997              -8.2314
        75                         -0.2968672              -8.0782
        76                         -0.2476705              -6.7395
        77                         -0.1780266              -4.8443
        78                         -0.1668830              -4.5411
        79                         -0.1618267              -4.4035
        80                         -0.1515411              -4.1236
        81                         -0.1424499              -3.8763
       ...                                ...                  ...
       144                          0.7275053              19.7964
      -------------------------------------------------------------
                  HL-Gap            0.0110020 Eh            0.2994 eV

Wiberg/Mayer (AO) data.
largest (>0.10) Wiberg bond orders for each atom

     #   Z sym  total        # sym  WBO       # sym  WBO       # sym  WBO
 ---------------------------------------------------------------------------
     1   6 C    3.869 --    29 H    0.986    28 H    0.980    27 H    0.979
                             2 O    0.894
     2   8 O    2.208 --     3 C    1.122     1 C    0.894     4 O    0.136
     3   6 C    3.853 --     4 O    1.659     2 O    1.122     5 C    0.994
     4   8 O    1.921 --     3 C    1.659     2 O    0.136
     5   6 C    3.956 --    25 C    1.490     6 N    1.186     3 C    0.994
     6   7 N    3.032 --     7 C    1.579     5 C    1.186
     7   6 C    3.930 --     6 N    1.579    21 N    1.166     8 C    0.975
     8   6 C    3.905 --    10 C    0.991     9 C    0.984     7 C    0.975
                            11 N    0.877
     9   6 C    3.983 --     8 C    0.984    32 H    0.981    30 H    0.978
                            31 H    0.976
    10   6 C    3.986 --     8 C    0.991    34 H    0.984    35 H    0.982
                            33 H    0.980
    11   7 N    3.382 --    12 C    1.353    36 H    0.883     8 C    0.877
                            13 O    0.179
    12   6 C    3.907 --    13 O    1.667    11 N    1.353    14 C    0.735
    13   8 O    2.061 --    12 C    1.667    11 N    0.179
    14   6 C    3.838 --    16 N    1.112    15 C    0.916    20 O    0.909
                            12 C    0.735
    15   6 C    3.948 --    38 H    0.979    39 H    0.974    37 H    0.974
                            14 C    0.916
    16   7 N    2.995 --    17 N    1.620    14 C    1.112
    17   7 N    3.015 --    16 N    1.620    18 C    1.226
    18   6 C    3.802 --    20 O    1.262    17 N    1.226    19 C    1.079
    19   6 C    3.963 --    18 C    1.079    42 H    0.968    40 H    0.944
                            41 H    0.905
    20   8 O    2.367 --    18 C    1.262    14 C    0.909
    21   7 N    3.503 --     7 C    1.166    23 C    1.123    22 C    0.926
                            24 O    0.134
    22   6 C    3.918 --    45 H    0.980    44 H    0.973    43 H    0.971
                            21 N    0.926
    23   6 C    3.911 --    24 O    1.570    21 N    1.123    25 C    1.069
    24   8 O    1.908 --    23 C    1.570    21 N    0.134
    25   6 C    3.916 --     5 C    1.490    26 O    1.118    23 C    1.069
    26   8 O    2.092 --    25 C    1.118    46 H    0.801
    27   1 H    1.006 --     1 C    0.979
    28   1 H    1.007 --     1 C    0.980
    29   1 H    1.010 --     1 C    0.986
    30   1 H    1.000 --     9 C    0.978
    31   1 H    1.002 --     9 C    0.976
    32   1 H    0.998 --     9 C    0.981
    33   1 H    1.009 --    10 C    0.980
    34   1 H    1.005 --    10 C    0.984
    35   1 H    1.001 --    10 C    0.982
    36   1 H    0.930 --    11 N    0.883
    37   1 H    0.990 --    15 C    0.974
    38   1 H    0.991 --    15 C    0.979
    39   1 H    0.995 --    15 C    0.974
    40   1 H    0.983 --    19 C    0.944
    41   1 H    0.972 --    19 C    0.905
    42   1 H    0.986 --    19 C    0.968
    43   1 H    1.001 --    22 C    0.971
    44   1 H    0.999 --    22 C    0.973
    45   1 H    1.006 --    22 C    0.980
    46   1 H    0.842 --    26 O    0.801
 ---------------------------------------------------------------------------

           -------------------------------------------------
          | TOTAL ENERGY              -86.317860802570 Eh   |
          | GRADIENT NORM               0.000733610650 Eh/α |
          | HOMO-LUMO GAP               0.299379688094 eV   |
           -------------------------------------------------

 * finished run on 2023/06/20 at 15:47:43.397
