   * xtb version 6.5.1 (579679a) compiled by 'ehlert@majestix' on 2022-07-11
          program call               : /lustre/hpc/kemi/ree/PhD/git/ReactivityQM/dep/xtb-6.5.1/bin/xtb --gfn 1 /lustre/hpc/kemi/ree/PhD/git/ReactivityQM/calculations/R01/reac02prodN03/conf12/R01_reac02prodN03_conf12_gfn1.xyz --opt --vfukui --chrg 1 --uhf 0 --alpb DMSO

   ID    Z sym.   atoms
    1    6 C      1, 3, 5, 7-10, 13, 15, 17
    2    8 O      2, 4, 14, 16
    3    7 N      6, 11, 12
    4    1 H      18-33

      * Solvation model:               ALPB
        Solvent                        DMSO
        Solvent mass                       7.8130E+01 g/mol
          :  Hamiltonian                  GFN1-xTB          :
 * total energy  :   -57.8039686 Eh     change       -0.2728484E-11 Eh
 * total energy  :   -57.8176801 Eh     change       -0.1371151E-01 Eh
 * total energy  :   -57.8236605 Eh     change       -0.5980381E-02 Eh
 * total energy  :   -57.8258156 Eh     change       -0.2155061E-02 Eh
 * total energy  :   -57.8287066 Eh     change       -0.2891038E-02 Eh
 * total energy  :   -57.8301914 Eh     change       -0.1484798E-02 Eh
 * total energy  :   -57.8326103 Eh     change       -0.2418868E-02 Eh
 * total energy  :   -57.8364478 Eh     change       -0.3837460E-02 Eh
 * total energy  :   -57.8395988 Eh     change       -0.3151085E-02 Eh
 * total energy  :   -57.8402248 Eh     change       -0.6259648E-03 Eh
 * total energy  :   -57.8504242 Eh     change       -0.3830989E-04 Eh
 * total energy  :   -57.8504397 Eh     change       -0.1554035E-04 Eh
 * total energy  :   -57.8504634 Eh     change       -0.2363097E-04 Eh
 * total energy  :   -57.8504708 Eh     change       -0.7384646E-05 Eh
 * total energy  :   -57.8504850 Eh     change       -0.1427943E-04 Eh
 * total energy  :   -57.8504914 Eh     change       -0.6378616E-05 Eh
 * total energy  :   -57.8505000 Eh     change       -0.8590161E-05 Eh
 * total energy  :   -57.8505054 Eh     change       -0.5349569E-05 Eh
 * total energy  :   -57.8505101 Eh     change       -0.4702906E-05 Eh
   *** GEOMETRY OPTIMIZATION CONVERGED AFTER 51 ITERATIONS ***

 final structure:
================
33
 xtb: 6.5.1 (579679a)
C           -2.83889533212615        3.11888631803906       -1.15623315497094
O           -1.82019466888959        2.17493204750249       -0.77600879668880
C           -2.12685704384693        0.94506552574105       -0.58867677613791
O           -3.35862064137104        0.59569311863616       -0.75807413485335
C           -1.07541314289398        0.03580613252518       -0.19445587577383
N            0.16347248393938        0.61365962861219       -0.08035817800717
C            1.16490549770247       -0.11376442432539        0.29097794254544
C            2.54988262541312        0.49145470925175        0.43033805130963
C            2.44556269814205        2.01929393301342        0.43022656550699
C            3.41961094605497        0.00372473306626       -0.73615693670981
N            3.16052837320319        0.06016627448774        1.67970520872874
N            1.01668601537706       -1.44071525993722        0.56938807360610
C           -0.15822624757335       -2.14792960882706        0.48298420778914
O           -0.20014541765040       -3.33385152811705        0.74519020680785
C           -1.29503801241086       -1.31055064573774        0.05710133262020
O           -2.52241107610361       -1.79756501513203       -0.08228851768674
C           -2.84970275877825       -3.18086162682036        0.16365727621827
H           -3.24945191642889        2.83568177138314       -2.12605219075010
H           -2.34538810267919        4.08668743725111       -1.20781207073875
H           -3.62940705470052        3.12055413886792       -0.40526605701639
H            1.78425219054462        2.34838456065820        1.23083893160531
H            3.43489863725048        2.44717020567100        0.58705093015067
H            2.04529940016541        2.36972768323956       -0.52029773044861
H            3.46660809822203       -1.08391943945053       -0.74018002729133
H            4.42826297876899        0.39942349250673       -0.62388621629200
H            3.00332877429811        0.34196488768409       -1.68400828096670
H            3.44063121842743       -0.90756234231358        1.62606018779783
H            2.50588205358933        0.16356100648293        2.44158628759301
H            1.81674511205383       -1.97258535418284        0.88500401840529
H           -3.53774802078504       -0.35648277186271       -0.59513842292655
H           -2.63716012309691       -3.43795708037479        1.20174123347489
H           -2.28553689331431       -3.82635905722032       -0.51013694555880
H           -3.91636065050406       -3.26173445031577       -0.03682114133930

          :  Hamiltonian                  GFN1-xTB          :
         :: total energy             -57.850510062933 Eh    ::
         :: gradient norm              0.000534794002 Eh/a0 ::
         :: HOMO-LUMO gap              1.216003389725 eV    ::
         :: SCC energy               -58.424290095201 Eh    ::
         :: -> Gsolv                  -0.096018315000 Eh    ::
         :: repulsion energy           0.592026996723 Eh    ::

    * Orbital Energies and Occupations

         #    Occupation            Energy/Eh            Energy/eV
      -------------------------------------------------------------
         1        2.0000           -0.9104702             -24.7752
       ...           ...                  ...                  ...
        35        2.0000           -0.5487839             -14.9332
        36        2.0000           -0.5422687             -14.7559
        37        2.0000           -0.5400338             -14.6951
        38        2.0000           -0.5236118             -14.2482
        39        2.0000           -0.5201429             -14.1538
        40        2.0000           -0.5150091             -14.0141
        41        2.0000           -0.5116616             -13.9230
        42        2.0000           -0.5053585             -13.7515
        43        2.0000           -0.4950414             -13.4708
        44        2.0000           -0.4831577             -13.1474
        45        2.0000           -0.4785583             -13.0222
        46        2.0000           -0.4581630             -12.4672
        47        2.0000           -0.4271361             -11.6230 (HOMO)
        48                         -0.3824488             -10.4070 (LUMO)
        49                         -0.3099619              -8.4345
        50                         -0.2880222              -7.8375
        51                         -0.1970009              -5.3607
        52                         -0.1656342              -4.5071
        53                         -0.1466238              -3.9898
        54                         -0.1422239              -3.8701
        55                         -0.1349843              -3.6731
        56                         -0.1320431              -3.5931
        57                         -0.1227912              -3.3413
        58                         -0.1014919              -2.7617
       ...                                ...                  ...
       100                          0.6865998              18.6833
      -------------------------------------------------------------
                  HL-Gap            0.0446873 Eh            1.2160 eV

Wiberg/Mayer (AO) data.
largest (>0.10) Wiberg bond orders for each atom

     #   Z sym  total        # sym  WBO       # sym  WBO       # sym  WBO
 ---------------------------------------------------------------------------
     1   6 C    3.822 --    19 H    0.982    20 H    0.973    18 H    0.972
                             2 O    0.853
     2   8 O    2.317 --     3 C    1.283     1 C    0.853
     3   6 C    3.811 --     2 O    1.283     4 O    1.249     5 C    1.122
     4   8 O    2.194 --     3 C    1.249    30 H    0.745
     5   6 C    3.960 --    15 C    1.410     6 N    1.170     3 C    1.122
     6   7 N    3.019 --     7 C    1.572     5 C    1.170
     7   6 C    3.906 --     6 N    1.572    12 N    1.170     8 C    0.969
     8   6 C    3.964 --     9 C    0.997    11 N    0.986    10 C    0.979
                             7 C    0.969
     9   6 C    3.993 --     8 C    0.997    23 H    0.986    22 H    0.985
                            21 H    0.985
    10   6 C    3.991 --    26 H    0.985    24 H    0.984    25 H    0.982
                             8 C    0.979
    11   7 N    2.963 --     8 C    0.986    28 H    0.939    27 H    0.938
    12   7 N    3.481 --     7 C    1.170    13 C    1.146    29 H    0.874
                            14 O    0.142
    13   6 C    3.915 --    14 O    1.609    12 N    1.146    15 C    1.037
    14   8 O    1.938 --    13 C    1.609    12 N    0.142
    15   6 C    3.905 --     5 C    1.410    16 O    1.136    13 C    1.037
    16   8 O    2.249 --    15 C    1.136    17 C    0.855
    17   6 C    3.829 --    33 H    0.983    32 H    0.974    31 H    0.974
                            16 O    0.855
    18   1 H    0.997 --     1 C    0.972
    19   1 H    1.002 --     1 C    0.982
    20   1 H    0.997 --     1 C    0.973
    21   1 H    1.004 --     9 C    0.985
    22   1 H    1.005 --     9 C    0.985
    23   1 H    1.008 --     9 C    0.986
    24   1 H    0.999 --    10 C    0.984
    25   1 H    1.000 --    10 C    0.982
    26   1 H    1.001 --    10 C    0.985
    27   1 H    0.952 --    11 N    0.938
    28   1 H    0.952 --    11 N    0.939
    29   1 H    0.921 --    12 N    0.874
    30   1 H    0.808 --     4 O    0.745
    31   1 H    1.007 --    17 C    0.974
    32   1 H    1.007 --    17 C    0.974
    33   1 H    1.005 --    17 C    0.983
 ---------------------------------------------------------------------------

           -------------------------------------------------
          | TOTAL ENERGY              -57.850510062933 Eh   |
          | GRADIENT NORM               0.000534794002 Eh/α |
          | HOMO-LUMO GAP               1.216003389725 eV   |
           -------------------------------------------------

 * finished run on 2023/06/20 at 15:05:03.644
