                         Program Version 5.0.1 -  RELEASE  -
|  1> # ORCA input file
|  2> ! SP r2SCAN-3c CPCM
|  3>
|  4> %maxcore 1875.0
|  5> %pal nprocs 4 end
|  6> %cpcm smd true SMDsolvent "DMSO" end
|  7>
|  8> *xyz -2 1
|  9> C       3.885999    1.702518    3.056788
| 10> O       3.299750    1.035728    1.947011
| 11> C       4.051160    0.984824    0.823975
| 12> O       5.157495    1.491768    0.782636
| 13> C       3.384988    0.262149   -0.276733
| 14> N       2.114165   -0.187153   -0.046839
| 15> C       1.509337   -0.851016   -1.013211
| 16> C       0.081791   -1.310507   -0.733105
| 17> C      -0.045537   -1.715533    0.746371
| 18> C      -0.288267   -2.488414   -1.640717
| 19> N      -0.805736   -0.161446   -1.052719
| 20> C      -2.183472   -0.349729   -0.635427
| 21> O      -3.051338   -0.854207   -1.623688
| 22> C      -3.490533    0.091275   -2.589049
| 23> C      -2.636473    0.382784    0.432680
| 24> N      -1.850122    0.978329    1.362150
| 25> N      -2.710904    1.498695    2.309950
| 26> C      -3.911990    1.214101    1.954241
| 27> C      -5.173005    1.561080    2.664048
| 28> O      -3.976258    0.505657    0.775724
| 29> N       2.009959   -1.133120   -2.221140
| 30> C       3.257333   -0.717156   -2.524970
| 31> O       3.824869   -0.925923   -3.622647
| 32> C       3.979281    0.023815   -1.491341
| 33> O       5.230633    0.421416   -1.832744
| 34> H       4.059034    2.757695    2.825749
| 35> H       4.840765    1.239711    3.322338
| 36> H       3.189585    1.615180    3.889444
| 37> H       0.125539   -0.848966    1.387422
| 38> H       0.689304   -2.484101    0.987536
| 39> H      -1.043841   -2.107411    0.944828
| 40> H      -0.203577   -2.191619   -2.686958
| 41> H      -1.312466   -2.808654   -1.448944
| 42> H       0.383160   -3.328813   -1.461477
| 43> H      -0.436545    0.648397   -0.544202
| 44> H      -2.643029    0.531272   -3.134712
| 45> H      -4.133872   -0.434900   -3.298657
| 46> H      -4.066188    0.902325   -2.121702
| 47> H      -5.730129    0.660485    2.927791
| 48> H      -5.815118    2.180105    2.034950
| 49> H      -4.934177    2.109664    3.573321
| 50> H       5.368431    0.099698   -2.747969
| 51> **                         ****END OF INPUT****

CARTESIAN COORDINATES (ANGSTROEM)
---------------------------------
  C      3.885999    1.702518    3.056788
  O      3.299750    1.035728    1.947011
  C      4.051160    0.984824    0.823975
  O      5.157495    1.491768    0.782636
  C      3.384988    0.262149   -0.276733
  N      2.114165   -0.187153   -0.046839
  C      1.509337   -0.851016   -1.013211
  C      0.081791   -1.310507   -0.733105
  C     -0.045537   -1.715533    0.746371
  C     -0.288267   -2.488414   -1.640717
  N     -0.805736   -0.161446   -1.052719
  C     -2.183472   -0.349729   -0.635427
  O     -3.051338   -0.854207   -1.623688
  C     -3.490533    0.091275   -2.589049
  C     -2.636473    0.382784    0.432680
  N     -1.850122    0.978329    1.362150
  N     -2.710904    1.498695    2.309950
  C     -3.911990    1.214101    1.954241
  C     -5.173005    1.561080    2.664048
  O     -3.976258    0.505657    0.775724
  N      2.009959   -1.133120   -2.221140
  C      3.257333   -0.717156   -2.524970
  O      3.824869   -0.925923   -3.622647
  C      3.979281    0.023815   -1.491341
  O      5.230633    0.421416   -1.832744
  H      4.059034    2.757695    2.825749
  H      4.840765    1.239711    3.322338
  H      3.189585    1.615180    3.889444
  H      0.125539   -0.848966    1.387422
  H      0.689304   -2.484101    0.987536
  H     -1.043841   -2.107411    0.944828
  H     -0.203577   -2.191619   -2.686958
  H     -1.312466   -2.808654   -1.448944
  H      0.383160   -3.328813   -1.461477
  H     -0.436545    0.648397   -0.544202
  H     -2.643029    0.531272   -3.134712
  H     -4.133872   -0.434900   -3.298657
  H     -4.066188    0.902325   -2.121702
  H     -5.730129    0.660485    2.927791
  H     -5.815118    2.180105    2.034950
  H     -4.934177    2.109664    3.573321
  H      5.368431    0.099698   -2.747969

 Total Charge           Charge          ....   -2
 Multiplicity           Mult            ....    1
 Number of Electrons    NEL             ....  186
 Basis Dimension        Dim             ....  615

ORBITAL ENERGIES
----------------

  NO   OCC          E(Eh)            E(eV)
   0   2.0000     -18.984970      -516.6073
   1   2.0000     -18.982302      -516.5347
   2   2.0000     -18.968162      -516.1499
   3   2.0000     -18.930752      -515.1319
   4   2.0000     -18.921036      -514.8676
   5   2.0000     -18.887336      -513.9505
   6   2.0000     -14.146275      -384.9397
   7   2.0000     -14.126575      -384.4036
   8   2.0000     -14.122486      -384.2924
   9   2.0000     -14.117215      -384.1489
  10   2.0000     -14.111336      -383.9890
  11   2.0000     -10.143139      -276.0089
  12   2.0000     -10.090614      -274.5796
  13   2.0000     -10.080671      -274.3090
  14   2.0000     -10.079811      -274.2856
  15   2.0000     -10.067159      -273.9413
  16   2.0000     -10.066003      -273.9099
  17   2.0000     -10.065527      -273.8969
  18   2.0000     -10.057611      -273.6815
  19   2.0000     -10.045796      -273.3600
  20   2.0000     -10.044306      -273.3195
  21   2.0000     -10.031244      -272.9640
  22   2.0000     -10.022849      -272.7356
  23   2.0000      -9.993251      -271.9302
  24   2.0000      -9.990044      -271.8429
  25   2.0000      -1.059499       -28.8304
  26   2.0000      -1.055593       -28.7242
  27   2.0000      -1.017165       -27.6785
  28   2.0000      -0.968028       -26.3414
  29   2.0000      -0.963635       -26.2218
  30   2.0000      -0.953699       -25.9515
  31   2.0000      -0.907375       -24.6909
  32   2.0000      -0.895531       -24.3686
  33   2.0000      -0.841953       -22.9107
  34   2.0000      -0.810802       -22.0631
  35   2.0000      -0.765000       -20.8167
  36   2.0000      -0.730777       -19.8855
  37   2.0000      -0.700283       -19.0557
  38   2.0000      -0.680055       -18.5052
  39   2.0000      -0.669800       -18.2262
  40   2.0000      -0.644051       -17.5255
  41   2.0000      -0.630516       -17.1572
  42   2.0000      -0.599682       -16.3182
  43   2.0000      -0.596409       -16.2291
  44   2.0000      -0.588202       -16.0058
  45   2.0000      -0.541495       -14.7348
  46   2.0000      -0.523372       -14.2417
  47   2.0000      -0.509736       -13.8706
  48   2.0000      -0.504751       -13.7350
  49   2.0000      -0.489560       -13.3216
  50   2.0000      -0.470274       -12.7968
  51   2.0000      -0.461837       -12.5672
  52   2.0000      -0.452929       -12.3248
  53   2.0000      -0.436902       -11.8887
  54   2.0000      -0.429530       -11.6881
  55   2.0000      -0.421695       -11.4749
  56   2.0000      -0.418308       -11.3827
  57   2.0000      -0.414643       -11.2830
  58   2.0000      -0.398863       -10.8536
  59   2.0000      -0.394790       -10.7428
  60   2.0000      -0.386865       -10.5271
  61   2.0000      -0.383108       -10.4249
  62   2.0000      -0.374524       -10.1913
  63   2.0000      -0.369961       -10.0671
  64   2.0000      -0.364726        -9.9247
  65   2.0000      -0.361729        -9.8431
  66   2.0000      -0.357215        -9.7203
  67   2.0000      -0.352569        -9.5939
  68   2.0000      -0.348843        -9.4925
  69   2.0000      -0.347381        -9.4527
  70   2.0000      -0.337956        -9.1963
  71   2.0000      -0.329308        -8.9609
  72   2.0000      -0.324916        -8.8414
  73   2.0000      -0.313168        -8.5217
  74   2.0000      -0.308408        -8.3922
  75   2.0000      -0.305286        -8.3073
  76   2.0000      -0.295954        -8.0533
  77   2.0000      -0.291970        -7.9449
  78   2.0000      -0.281549        -7.6613
  79   2.0000      -0.276497        -7.5239
  80   2.0000      -0.259984        -7.0745
  81   2.0000      -0.258047        -7.0218
  82   2.0000      -0.250293        -6.8108
  83   2.0000      -0.232813        -6.3352
  84   2.0000      -0.230899        -6.2831
  85   2.0000      -0.222393        -6.0516
  86   2.0000      -0.213261        -5.8031
  87   2.0000      -0.207434        -5.6446
  88   2.0000      -0.204314        -5.5597
  89   2.0000      -0.192913        -5.2494
  90   2.0000      -0.188272        -5.1231
  91   2.0000      -0.171289        -4.6610
  92   2.0000      -0.094269        -2.5652
  93   0.0000      -0.058190        -1.5834
  94   0.0000      -0.001304        -0.0355
  95   0.0000       0.023026         0.6266
  96   0.0000       0.049655         1.3512
  97   0.0000       0.056314         1.5324

MULLIKEN ATOMIC CHARGES
-----------------------
   0 C :   -0.318185
   1 O :   -0.180074
   2 C :    0.085939
   3 O :   -0.408474
   4 C :    0.086138
   5 N :   -0.204534
   6 C :    0.190621
   7 C :    0.149878
   8 C :   -0.650989
   9 C :   -0.650889
  10 N :   -0.232052
  11 C :   -0.401142
  12 O :   -0.202005
  13 C :   -0.355218
  14 C :    0.124553
  15 N :   -0.274667
  16 N :   -0.364019
  17 C :    0.293836
  18 C :   -0.665162
  19 O :   -0.107631
  20 N :   -0.156418
  21 C :   -0.060264
  22 O :   -0.477683
  23 C :    0.027146
  24 O :   -0.358005
  25 H :    0.169041
  26 H :    0.168863
  27 H :    0.169710
  28 H :    0.178502
  29 H :    0.160095
  30 H :    0.163731
  31 H :    0.171312
  32 H :    0.168785
  33 H :    0.168405
  34 H :    0.277886
  35 H :    0.145927
  36 H :    0.150556
  37 H :    0.145619
  38 H :    0.172949
  39 H :    0.172598
  40 H :    0.185993
  41 H :    0.339328
Sum of atomic charges:   -2.0000000

LOEWDIN ATOMIC CHARGES
----------------------
   0 C :   -0.047058
   1 O :   -0.592585
   2 C :    0.399342
   3 O :   -0.438847
   4 C :    0.169836
   5 N :   -0.624603
   6 C :    0.300822
   7 C :    0.076097
   8 C :   -0.382824
   9 C :   -0.375417
  10 N :   -0.712164
  11 C :    0.201352
  12 O :   -0.710735
  13 C :   -0.085758
  14 C :    0.347566
  15 N :   -0.538851
  16 N :   -0.488153
  17 C :    0.295575
  18 C :   -0.343629
  19 O :   -0.459936
  20 N :   -0.581887
  21 C :    0.295263
  22 O :   -0.573449
  23 C :    0.253825
  24 O :   -0.482020
  25 H :    0.176771
  26 H :    0.177776
  27 H :    0.181339
  28 H :    0.173551
  29 H :    0.156354
  30 H :    0.159501
  31 H :    0.169345
  32 H :    0.164598
  33 H :    0.159081
  34 H :    0.273491
  35 H :    0.157014
  36 H :    0.167863
  37 H :    0.157539
  38 H :    0.170935
  39 H :    0.170862
  40 H :    0.178550
  41 H :    0.303665

  Mayer bond orders larger than 0.100000
B(  0-C ,  1-O ) :   0.8452 B(  0-C , 25-H ) :   0.9592 B(  0-C , 26-H ) :   0.9604
B(  0-C , 27-H ) :   0.9655 B(  1-O ,  2-C ) :   1.0967 B(  2-C ,  3-O ) :   1.8994
B(  2-C ,  4-C ) :   1.0190 B(  4-C ,  5-N ) :   1.0895 B(  4-C , 23-C ) :   1.4009
B(  5-N ,  6-C ) :   1.4712 B(  6-C ,  7-C ) :   0.9769 B(  6-C , 20-N ) :   1.3121
B(  7-C ,  8-C ) :   0.8455 B(  7-C ,  9-C ) :   0.8721 B(  7-C , 10-N ) :   1.0079
B(  8-C , 28-H ) :   0.9776 B(  8-C , 29-H ) :   0.9694 B(  8-C , 30-H ) :   0.9739
B(  9-C , 31-H ) :   0.9870 B(  9-C , 32-H ) :   0.9684 B(  9-C , 33-H ) :   0.9785
B( 10-N , 11-C ) :   0.8330 B( 10-N , 14-C ) :   0.1002 B( 10-N , 34-H ) :   0.8576
B( 11-C , 12-O ) :   1.1495 B( 11-C , 14-C ) :   1.3168 B( 12-O , 13-C ) :   0.8604
B( 13-C , 35-H ) :   0.9736 B( 13-C , 36-H ) :   0.9710 B( 13-C , 37-H ) :   0.9693
B( 14-C , 15-N ) :   1.4444 B( 14-C , 19-O ) :   1.0698 B( 15-N , 16-N ) :   1.3004
B( 16-N , 17-C ) :   1.7991 B( 17-C , 18-C ) :   0.8002 B( 17-C , 19-O ) :   0.9809
B( 18-C , 38-H ) :   0.9589 B( 18-C , 39-H ) :   0.9540 B( 18-C , 40-H ) :   1.0044
B( 20-N , 21-C ) :   1.3441 B( 21-C , 22-O ) :   1.9771 B( 21-C , 23-C ) :   0.9270
B( 22-O , 23-C ) :  -0.1082 B( 23-C , 24-O ) :   1.0986 B( 24-O , 41-H ) :   0.8098

Dispersion correction           -0.018937655
FINAL SINGLE POINT ENERGY     -1268.821481928718

DIPOLE MOMENT
-------------
                                X             Y             Z
Electronic contribution:     17.35414       3.15543      -4.87277
Nuclear contribution   :    -18.46085      -2.47020       6.98084
                        -----------------------------------------
Total Dipole Moment    :     -1.10671       0.68523       2.10807
                        -----------------------------------------
Magnitude (a.u.)       :      2.47756
Magnitude (Debye)      :      6.29746

Rotational constants in cm-1:     0.011004     0.004200     0.003256
Rotational constants in MHz :   329.896482   125.903515    97.608620

                             ****ORCA TERMINATED NORMALLY****
TOTAL RUN TIME: 0 days 0 hours 2 minutes 16 seconds 776 msec
