   * xtb version 6.5.1 (579679a) compiled by 'ehlert@majestix' on 2022-07-11
          program call               : /lustre/hpc/kemi/ree/PhD/git/ReactivityQM/dep/xtb-6.5.1/bin/xtb --gfn 1 /lustre/hpc/kemi/ree/PhD/git/ReactivityQM/calculations/R02deprot/reac01prodE07/conf06/R02deprot_reac01prodE07_conf06_gfn1.xyz --opt --vfukui --chrg -2 --uhf 0 --alpb DMSO

   ID    Z sym.   atoms
    1    6 C      1, 3, 5, 7-10, 12, 14, 15, 18, 19, 22, 24
    2    8 O      2, 4, 13, 20, 23, 25
    3    7 N      6, 11, 16, 17, 21
    4    1 H      26-42

      * Solvation model:               ALPB
        Solvent                        DMSO
        Solvent mass                       7.8130E+01 g/mol
          :  Hamiltonian                  GFN1-xTB          :
 * total energy  :   -83.5716040 Eh     change       -0.6773888E-09 Eh
 * total energy  :   -83.5840742 Eh     change       -0.1247024E-01 Eh
 * total energy  :   -83.5898503 Eh     change       -0.5776122E-02 Eh
 * total energy  :   -83.5913199 Eh     change       -0.1469590E-02 Eh
 * total energy  :   -83.5923534 Eh     change       -0.1033541E-02 Eh
 * total energy  :   -83.5928755 Eh     change       -0.5220352E-03 Eh
 * total energy  :   -83.5933272 Eh     change       -0.4517441E-03 Eh
 * total energy  :   -83.5936637 Eh     change       -0.3364509E-03 Eh
 * total energy  :   -83.5939462 Eh     change       -0.2825098E-03 Eh
 * total energy  :   -83.5942195 Eh     change       -0.2732801E-03 Eh
 * total energy  :   -83.6033507 Eh     change       -0.2098373E-04 Eh
 * total energy  :   -83.6033618 Eh     change       -0.1101380E-04 Eh
 * total energy  :   -83.6033731 Eh     change       -0.1130869E-04 Eh
 * total energy  :   -83.6033799 Eh     change       -0.6811553E-05 Eh
 * total energy  :   -83.6033913 Eh     change       -0.1146859E-04 Eh
 * total energy  :   -83.6033975 Eh     change       -0.6171707E-05 Eh
 * total energy  :   -83.6034034 Eh     change       -0.5929723E-05 Eh
 * total energy  :   -83.6034088 Eh     change       -0.5373188E-05 Eh
 * total energy  :   -83.6034133 Eh     change       -0.4514317E-05 Eh
   *** GEOMETRY OPTIMIZATION CONVERGED AFTER 75 ITERATIONS ***

 final structure:
================
42
 xtb: 6.5.1 (579679a)
C            3.88599870891070        1.70251751061689        3.05678820079296
O            3.29974977964867        1.03572831757092        1.94701120130768
C            4.05115973404867        0.98482394344542        0.82397513587085
O            5.15749517784758        1.49176812463771        0.78263594308986
C            3.38498817586631        0.26214863235724       -0.27673316461111
N            2.11416461731621       -0.18715272911295       -0.04683934345872
C            1.50933675525648       -0.85101605125750       -1.01321099373661
C            0.08179098750325       -1.31050670973443       -0.73310457620679
C           -0.04553748855527       -1.71553263315398        0.74637140199574
C           -0.28826713718152       -2.48841446964517       -1.64071668076293
N           -0.80573576921179       -0.16144593705261       -1.05271893753756
C           -2.18347211074438       -0.34972888713830       -0.63542663628717
O           -3.05133830709905       -0.85420738801507       -1.62368804829314
C           -3.49053287744905        0.09127488624434       -2.58904923102060
C           -2.63647332050549        0.38278389307178        0.43268003957330
N           -1.85012177899673        0.97832929653343        1.36215015603522
N           -2.71090399532905        1.49869538572047        2.30995032090395
C           -3.91198989783656        1.21410127997859        1.95424056609732
C           -5.17300519276639        1.56107987018854        2.66404762505276
O           -3.97625821367043        0.50565673989481        0.77572421810108
N            2.00995925472023       -1.13311977766691       -2.22113952460798
C            3.25733286316731       -0.71715608555098       -2.52497010946270
O            3.82486930241259       -0.92592320818641       -3.62264701191683
C            3.97928125025007        0.02381549475770       -1.49134068504000
O            5.23063307240692        0.42141568520658       -1.83274407078494
H            4.05903406777458        2.75769485650258        2.82574865326072
H            4.84076497381254        1.23971057979524        3.32233788918653
H            3.18958498047353        1.61518020334843        3.88944356691184
H            0.12553912363505       -0.84896590422352        1.38742198899245
H            0.68930377873037       -2.48410141344270        0.98753615942596
H           -1.04384061835987       -2.10741078471988        0.94482756077514
H           -0.20357704367885       -2.19161949707225       -2.68695817625932
H           -1.31246628641499       -2.80865428300004       -1.44894402065927
H            0.38315970775194       -3.32881288227010       -1.46147736258916
H           -0.43654455110036        0.64839728532726       -0.54420159711360
H           -2.64302946601017        0.53127239680777       -3.13471209871519
H           -4.13387222674674       -0.43489991766520       -3.29865662691593
H           -4.06618762775528        0.90232476199452       -2.12170245991869
H           -5.73012905876269        0.66048471344476        2.92779071921690
H           -5.81511824632950        2.18010504509071        2.03494988566174
H           -4.93417734135387        2.10966414570743        3.57332092685677
H            5.36843124433916        0.09969751065465       -2.74796880319748

          :  Hamiltonian                  GFN1-xTB          :
         :: total energy             -83.603413335167 Eh    ::
         :: gradient norm              0.000691511725 Eh/a0 ::
         :: HOMO-LUMO gap              0.264824460181 eV    ::
         :: SCC energy               -84.327506834598 Eh    ::
         :: -> Gsolv                  -0.265779844729 Eh    ::
         :: repulsion energy           0.749689154877 Eh    ::

    * Orbital Energies and Occupations

         #    Occupation            Energy/Eh            Energy/eV
      -------------------------------------------------------------
         1        2.0000           -0.8072098             -21.9653
       ...           ...                  ...                  ...
        56        2.0000           -0.4365617             -11.8794
        57        2.0000           -0.4214903             -11.4693
        58        2.0000           -0.4135784             -11.2540
        59        2.0000           -0.4094887             -11.1428
        60        2.0000           -0.4038814             -10.9902
        61        2.0000           -0.3901690             -10.6170
        62        2.0000           -0.3879927             -10.5578
        63        2.0000           -0.3808760             -10.3642
        64        2.0000           -0.3646122              -9.9216
        65        2.0000           -0.3599048              -9.7935
        66        2.0000           -0.3575769              -9.7302
        67        2.0000           -0.3572695              -9.7218
        68        1.9881           -0.2772383              -7.5440 (HOMO)
        69        0.0119           -0.2675062              -7.2792 (LUMO)
        70                         -0.2124017              -5.7797
        71                         -0.1799650              -4.8971
        72                         -0.1789611              -4.8698
        73                         -0.1352708              -3.6809
        74                         -0.1255554              -3.4165
        75                         -0.1130825              -3.0771
        76                         -0.1028878              -2.7997
        77                         -0.0917918              -2.4978
        78                         -0.0873500              -2.3769
        79                         -0.0822392              -2.2378
       ...                                ...                  ...
       134                          0.7506814              20.4271
      -------------------------------------------------------------
                  HL-Gap            0.0097321 Eh            0.2648 eV

Wiberg/Mayer (AO) data.
largest (>0.10) Wiberg bond orders for each atom

     #   Z sym  total        # sym  WBO       # sym  WBO       # sym  WBO
 ---------------------------------------------------------------------------
     1   6 C    3.894 --    28 H    0.987    26 H    0.980    27 H    0.980
                             2 O    0.920
     2   8 O    2.173 --     3 C    1.067     1 C    0.920     4 O    0.120
     3   6 C    3.828 --     4 O    1.624     2 O    1.067     5 C    1.038
     4   8 O    1.887 --     3 C    1.624     2 O    0.120
     5   6 C    3.963 --    24 C    1.463     6 N    1.212     3 C    1.038
     6   7 N    2.990 --     7 C    1.457     5 C    1.212
     7   6 C    3.948 --     6 N    1.457    21 N    1.351     8 C    0.975
     8   6 C    3.969 --    10 C    0.999     9 C    0.988     7 C    0.975
                            11 N    0.945
     9   6 C    3.996 --     8 C    0.988    30 H    0.987    31 H    0.985
                            29 H    0.982
    10   6 C    3.997 --     8 C    0.999    34 H    0.988    33 H    0.985
                            32 H    0.984
    11   7 N    3.012 --    12 C    0.962    35 H    0.946     8 C    0.945
    12   6 C    3.685 --    15 C    1.467    11 N    0.962    13 O    0.922
                            16 N    0.144
    13   8 O    1.998 --    14 C    0.949    12 C    0.922
    14   6 C    3.939 --    37 H    0.986    36 H    0.982    38 H    0.982
                            13 O    0.949
    15   6 C    3.865 --    12 C    1.467    16 N    1.289    20 O    0.961
    16   7 N    2.823 --    15 C    1.289    17 N    1.149    12 C    0.144
                            18 C    0.116
    17   7 N    2.987 --    18 C    1.676    16 N    1.149
    18   6 C    3.883 --    17 N    1.676    19 C    1.017    20 O    0.996
                            16 N    0.116
    19   6 C    3.996 --    18 C    1.017    41 H    0.987    39 H    0.976
                            40 H    0.976
    20   8 O    2.177 --    18 C    0.996    15 C    0.961
    21   7 N    2.978 --     7 C    1.351    22 C    1.269    23 O    0.125
    22   6 C    3.932 --    23 O    1.444    21 N    1.269    24 C    1.084
    23   8 O    1.781 --    22 C    1.444    21 N    0.125
    24   6 C    3.896 --     5 C    1.463    22 C    1.084    25 O    1.060
    25   8 O    2.037 --    24 C    1.060    42 H    0.821
    26   1 H    1.012 --     1 C    0.980
    27   1 H    1.013 --     1 C    0.980
    28   1 H    1.015 --     1 C    0.987
    29   1 H    1.035 --     9 C    0.982
    30   1 H    1.011 --     9 C    0.987
    31   1 H    1.020 --     9 C    0.985
    32   1 H    1.029 --    10 C    0.984
    33   1 H    1.017 --    10 C    0.985
    34   1 H    1.011 --    10 C    0.988
    35   1 H    1.000 --    11 N    0.946
    36   1 H    1.023 --    14 C    0.982
    37   1 H    1.022 --    14 C    0.986
    38   1 H    1.021 --    14 C    0.982
    39   1 H    1.007 --    19 C    0.976
    40   1 H    1.007 --    19 C    0.976
    41   1 H    1.008 --    19 C    0.987
    42   1 H    0.883 --    25 O    0.821
 ---------------------------------------------------------------------------

           -------------------------------------------------
          | TOTAL ENERGY              -83.603413335167 Eh   |
          | GRADIENT NORM               0.000691511725 Eh/α |
          | HOMO-LUMO GAP               0.264824460181 eV   |
           -------------------------------------------------

 * finished run on 2023/06/20 at 17:49:19.306
