   * xtb version 6.5.1 (579679a) compiled by 'ehlert@majestix' on 2022-07-11
          program call               : /lustre/hpc/kemi/ree/PhD/git/ReactivityQM/dep/xtb-6.5.1/bin/xtb --gfn 1 /lustre/hpc/kemi/ree/PhD/git/ReactivityQM/calculations/R02/reac01prodN10/conf10/R02_reac01prodN10_conf10_gfn1.xyz --opt --vfukui --chrg 1 --uhf 0 --alpb DMSO

   ID    Z sym.   atoms
    1    6 C      1, 3, 5, 6, 8, 11-15, 17, 19, 22, 23
    2    8 O      2, 4, 7, 9, 18, 24
    3    7 N      10, 16, 20, 21, 25
    4    1 H      26-43

      * Solvation model:               ALPB
        Solvent                        DMSO
        Solvent mass                       7.8130E+01 g/mol
          :  Hamiltonian                  GFN1-xTB          :
 * total energy  :   -83.0905779 Eh     change       -0.5529444E-10 Eh
 * total energy  :   -83.1095399 Eh     change       -0.1896206E-01 Eh
 * total energy  :   -83.1176323 Eh     change       -0.8092398E-02 Eh
 * total energy  :   -83.1193094 Eh     change       -0.1677038E-02 Eh
 * total energy  :   -83.1201879 Eh     change       -0.8785553E-03 Eh
 * total energy  :   -83.1205810 Eh     change       -0.3930328E-03 Eh
 * total energy  :   -83.1209797 Eh     change       -0.3987270E-03 Eh
 * total energy  :   -83.1213209 Eh     change       -0.3412367E-03 Eh
 * total energy  :   -83.1216622 Eh     change       -0.3412839E-03 Eh
 * total energy  :   -83.1220174 Eh     change       -0.3551715E-03 Eh
 * total energy  :   -83.1238719 Eh     change        0.2317237E-04 Eh
 * total energy  :   -83.1239273 Eh     change       -0.5541650E-04 Eh
 * total energy  :   -83.1239428 Eh     change       -0.1551020E-04 Eh
 * total energy  :   -83.1239571 Eh     change       -0.1428265E-04 Eh
 * total energy  :   -83.1239653 Eh     change       -0.8208315E-05 Eh
 * total energy  :   -83.1239724 Eh     change       -0.7139789E-05 Eh
 * total energy  :   -83.1239804 Eh     change       -0.8005542E-05 Eh
 * total energy  :   -83.1239869 Eh     change       -0.6437087E-05 Eh
 * total energy  :   -83.1239910 Eh     change       -0.4151433E-05 Eh
   *** GEOMETRY OPTIMIZATION CONVERGED AFTER 39 ITERATIONS ***

 final structure:
================
43
 xtb: 6.5.1 (579679a)
C            6.55578939973608       -0.01015504738372        0.70943642737660
O            5.28955969436446        0.48185012831648        0.23547692855902
C            4.20930564609564       -0.09848737998213        0.70822983743387
O            4.18712950974077       -1.00045059504849        1.50283232678475
C            2.93011669957276        0.49208996492088        0.13659179662789
C            2.84948906809808        1.27381797497275       -1.03574709771999
O            3.86064828322436        1.60043468384282       -1.75632622350148
C            1.52471023601454        1.77554935011975       -1.50335215315563
O            1.46025630978535        2.46011619665395       -2.50325664236204
N            0.49026833633197        1.42064618884646       -0.71641274850757
C            0.57142433251795        0.54559206772953        0.40903474726389
C           -0.20462260265781        1.14298764648324        1.58842478285349
C           -0.10077640481993       -0.92671974437724        0.01745680494174
C            0.35335683948425       -1.96582720599510        1.03789733439709
C            0.36943766633338       -1.29873591098925       -1.38341167663462
N           -1.51764858800318       -0.81293622149534        0.10744660087109
C           -2.33779525824365       -0.13589383906012       -0.76122641032415
O           -1.94905106425480        0.52373555561579       -1.70302152664489
C           -3.74652583723854       -0.30784742709008       -0.37994167567971
N           -4.18130630731634       -0.97212068971387        0.65278929355158
N           -5.53111227199962       -0.87851760838962        0.63789851966562
C           -5.84519335624252       -0.15983625506287       -0.40403486597174
C           -7.19580350651345        0.22623050278001       -0.86284267977116
O           -4.75840374655650        0.22756224925397       -1.08237969381042
N            1.84746776830327        0.20669369775148        0.81177876821126
H            7.31901881163969        0.57654083021240        0.20360222631466
H            6.61956932818693        0.12226689980997        1.79113650166622
H            6.65310094174974       -1.06863265125574        0.46164454863754
H            3.58225582501725        2.14136727896398       -2.53224642798316
H           -0.43755547283665        1.69785947035658       -1.02862256259995
H           -1.24431038325519        1.29064988015814        1.30917045716888
H           -0.14402382643572        0.47962038573363        2.44710646770846
H            0.24356271825506        2.10204402797612        1.84139633620331
H            0.10227746143577       -1.66154987928831        2.05196603771046
H            1.43070707415711       -2.11084409639806        0.97304761849933
H           -0.14961114626374       -2.90796610047465        0.82209888250380
H            1.45711108066970       -1.32780786676799       -1.41355724578067
H            0.00922549060225       -0.60061332372398       -2.13414105740069
H           -0.01383474054390       -2.29240729430088       -1.61401634006268
H           -1.96648496711734       -1.21926224733684        0.91887452531652
H           -7.42571758752083       -0.28075222247703       -1.80114295447476
H           -7.23291560539618        1.30035350063361       -1.04278100013515
H           -7.93309884810308       -0.05064587451479       -0.11272878774091

          :  Hamiltonian                  GFN1-xTB          :
         :: total energy             -83.123991004344 Eh    ::
         :: gradient norm              0.000851568914 Eh/a0 ::
         :: HOMO-LUMO gap              0.990712153755 eV    ::
         :: SCC energy               -83.912744401930 Eh    ::
         :: -> Gsolv                  -0.105815237639 Eh    ::
         :: repulsion energy           0.817232569792 Eh    ::

    * Orbital Energies and Occupations

         #    Occupation            Energy/Eh            Energy/eV
      -------------------------------------------------------------
         1        2.0000           -0.8989411             -24.4614
       ...           ...                  ...                  ...
        55        2.0000           -0.5326217             -14.4934
        56        2.0000           -0.5279000             -14.3649
        57        2.0000           -0.5236171             -14.2483
        58        2.0000           -0.5230301             -14.2324
        59        2.0000           -0.5189035             -14.1201
        60        2.0000           -0.5151731             -14.0186
        61        2.0000           -0.5058691             -13.7654
        62        2.0000           -0.5021786             -13.6650
        63        2.0000           -0.4923000             -13.3962
        64        2.0000           -0.4911397             -13.3646
        65        2.0000           -0.4840786             -13.1724
        66        2.0000           -0.4698414             -12.7850
        67        2.0000           -0.4689975             -12.7621 (HOMO)
        68                         -0.4325895             -11.7714 (LUMO)
        69                         -0.3557814              -9.6813
        70                         -0.3384701              -9.2102
        71                         -0.2786820              -7.5833
        72                         -0.2713473              -7.3837
        73                         -0.2286255              -6.2212
        74                         -0.2229961              -6.0680
        75                         -0.1608323              -4.3765
        76                         -0.1525416              -4.1509
        77                         -0.1507985              -4.1034
        78                         -0.1474837              -4.0132
       ...                                ...                  ...
       136                          0.7214521              19.6317
      -------------------------------------------------------------
                  HL-Gap            0.0364080 Eh            0.9907 eV

Wiberg/Mayer (AO) data.
largest (>0.10) Wiberg bond orders for each atom

     #   Z sym  total        # sym  WBO       # sym  WBO       # sym  WBO
 ---------------------------------------------------------------------------
     1   6 C    3.847 --    26 H    0.985    28 H    0.978    27 H    0.978
                             2 O    0.873
     2   8 O    2.229 --     3 C    1.161     1 C    0.873     4 O    0.150
     3   6 C    3.864 --     4 O    1.690     2 O    1.161     5 C    0.941
     4   8 O    1.960 --     3 C    1.690     2 O    0.150
     5   6 C    3.954 --    25 N    1.524     6 C    1.237     3 C    0.941
     6   6 C    3.836 --     7 O    1.317     5 C    1.237     8 C    0.980
     7   8 O    2.243 --     6 C    1.317    29 H    0.753
     8   6 C    3.922 --     9 O    1.609    10 N    1.236     6 C    0.980
     9   8 O    1.945 --     8 C    1.609    10 N    0.187
    10   7 N    3.447 --     8 C    1.236    11 C    0.988    30 H    0.847
                             9 O    0.187
    11   6 C    3.910 --    25 N    1.131    10 N    0.988    12 C    0.936
                            13 C    0.716
    12   6 C    3.969 --    31 H    0.979    32 H    0.979    33 H    0.976
                            11 C    0.936
    13   6 C    3.903 --    16 N    1.015    14 C    1.003    15 C    0.993
                            11 C    0.716
    14   6 C    3.981 --    13 C    1.003    34 H    0.976    35 H    0.976
                            36 H    0.973
    15   6 C    3.982 --    13 C    0.993    37 H    0.983    38 H    0.975
                            39 H    0.966
    16   7 N    3.379 --    17 C    1.159    13 C    1.015    40 H    0.880
                            18 O    0.134
    17   6 C    3.900 --    18 O    1.620    16 N    1.159    19 C    1.019
    18   8 O    1.956 --    17 C    1.620    16 N    0.134
    19   6 C    3.880 --    20 N    1.577    24 O    1.067    17 C    1.019
    20   7 N    3.023 --    19 C    1.577    21 N    1.230
    21   7 N    2.980 --    22 C    1.571    20 N    1.230
    22   6 C    3.857 --    21 N    1.571    24 O    1.092    23 C    1.035
    23   6 C    3.982 --    22 C    1.035    43 H    0.981    42 H    0.964
                            41 H    0.955
    24   8 O    2.342 --    22 C    1.092    19 C    1.067
    25   7 N    3.030 --     5 C    1.524    11 C    1.131
    26   1 H    1.007 --     1 C    0.985
    27   1 H    1.002 --     1 C    0.978
    28   1 H    1.002 --     1 C    0.978
    29   1 H    0.802 --     7 O    0.753
    30   1 H    0.915 --    10 N    0.847
    31   1 H    0.996 --    12 C    0.979
    32   1 H    0.998 --    12 C    0.979
    33   1 H    0.994 --    12 C    0.976
    34   1 H    0.996 --    14 C    0.976
    35   1 H    1.007 --    14 C    0.976
    36   1 H    0.991 --    14 C    0.973
    37   1 H    0.998 --    15 C    0.983
    38   1 H    1.005 --    15 C    0.975
    39   1 H    0.993 --    15 C    0.966
    40   1 H    0.941 --    16 N    0.880
    41   1 H    0.994 --    23 C    0.955
    42   1 H    0.994 --    23 C    0.964
    43   1 H    0.997 --    23 C    0.981
 ---------------------------------------------------------------------------

           -------------------------------------------------
          | TOTAL ENERGY              -83.123991004344 Eh   |
          | GRADIENT NORM               0.000851568914 Eh/α |
          | HOMO-LUMO GAP               0.990712153755 eV   |
           -------------------------------------------------

 * finished run on 2023/06/20 at 15:31:25.257
