   * xtb version 6.5.1 (579679a) compiled by 'ehlert@majestix' on 2022-07-11
          program call               : /lustre/hpc/kemi/ree/PhD/git/ReactivityQM/dep/xtb-6.5.1/bin/xtb --gfn 1 /lustre/hpc/kemi/ree/PhD/git/ReactivityQM/calculations/RaltegravirCLI/reac02prodN05/conf13/RaltegravirCLI_reac02prodN05_conf13_gfn1.xyz --opt --vfukui --chrg 1 --uhf 0 --alpb DMSO

   ID    Z sym.   atoms
    1    6 C      1, 3, 5, 7, 8, 11-15, 17, 18, 20-24
    2    7 N      2, 10, 19, 25
    3    8 O      4, 6, 9
    4    9 F      16
    5    1 H      26-47

      * Solvation model:               ALPB
        Solvent                        DMSO
        Solvent mass                       7.8130E+01 g/mol
          :  Hamiltonian                  GFN1-xTB          :
 * total energy  :   -79.4628591 Eh     change       -0.6156426E-09 Eh
 * total energy  :   -79.4766865 Eh     change       -0.1382733E-01 Eh
 * total energy  :   -79.4816867 Eh     change       -0.5000195E-02 Eh
 * total energy  :   -79.4829220 Eh     change       -0.1235316E-02 Eh
 * total energy  :   -79.4843914 Eh     change       -0.1469400E-02 Eh
 * total energy  :   -79.4855156 Eh     change       -0.1124267E-02 Eh
 * total energy  :   -79.4868989 Eh     change       -0.1383222E-02 Eh
 * total energy  :   -79.4883183 Eh     change       -0.1419433E-02 Eh
 * total energy  :   -79.4892738 Eh     change       -0.9555130E-03 Eh
 * total energy  :   -79.4904430 Eh     change       -0.1169186E-02 Eh
 * total energy  :   -79.5446278 Eh     change       -0.1848597E-04 Eh
 * total energy  :   -79.5446443 Eh     change       -0.1651848E-04 Eh
 * total energy  :   -79.5446598 Eh     change       -0.1553950E-04 Eh
 * total energy  :   -79.5446720 Eh     change       -0.1221934E-04 Eh
 * total energy  :   -79.5446864 Eh     change       -0.1437968E-04 Eh
 * total energy  :   -79.5447011 Eh     change       -0.1465922E-04 Eh
 * total energy  :   -79.5447112 Eh     change       -0.1008795E-04 Eh
 * total energy  :   -79.5447173 Eh     change       -0.6148190E-05 Eh
 * total energy  :   -79.5447211 Eh     change       -0.3751867E-05 Eh
   *** GEOMETRY OPTIMIZATION CONVERGED AFTER 129 ITERATIONS ***

 final structure:
================
47
 xtb: 6.5.1 (579679a)
C           -3.20170909628915       -4.15798776247423        0.98861975749285
N           -2.22083247299220       -3.07292284072946        0.97136038750598
C           -0.95244620479688       -3.34356527475755        1.44528268602597
O           -0.61495404679416       -4.44211229262073        1.87369598283641
C           -0.03312681565148       -2.21814317986040        1.40695109880904
O            1.20382030324279       -2.48995768676313        1.86808086680625
C           -0.42619994075557       -1.00221532214699        0.92708511748448
C            0.41036038383901        0.23633421088415        0.82484460941152
O            0.00406993916704        1.23232754976302        0.22497168898530
N            1.60776095398638        0.19469295656296        1.42808541156636
C            2.51893690168546        1.32734041660590        1.39492951242580
C            3.75424330106990        1.03796615678665        0.57049030314365
C            4.90353911118389        1.79806170382924        0.78217965158444
C            6.04753466649070        1.57503393346751        0.02965750895744
C            6.01685562522781        0.58061876321235       -0.93181105703760
F            7.12023567055320        0.35651969481042       -1.66323737303604
C            4.89440869895930       -0.19152053001390       -1.16785210972104
C            3.75808772184441        0.04715046686616       -0.40730008267042
N           -1.70783026920299       -0.85136682278531        0.45937047447672
C           -2.54766304009455       -1.83635585227482        0.48900495928663
C           -3.93113446626619       -1.61247969664375       -0.02675223178816
C           -2.73523851148212        2.73793914687173       -0.94982150100691
C           -2.01795376044994        3.30896938661511        0.20606726176577
C           -2.18016023353004        1.57855167333310       -1.66331290573713
N           -3.87205638604502        3.23742404490922       -1.31114242931511
H           -3.52859963292742       -4.37207755288292       -0.02782106510265
H           -2.72489506246243       -5.03845194726019        1.41758012782653
H           -4.05728947325909       -3.86758733431990        1.59622969342021
H            1.22653492320431       -3.42465051278306        2.15492546339527
H            1.90156547783465       -0.62150389131483        1.94086545184948
H            1.97842889245525        2.17839886348465        0.96668396934787
H            2.80180638017186        1.58200297475691        2.42115048024875
H            4.90555059272311        2.57127814833205        1.54154131617175
H            6.94556487187846        2.15855475251767        0.18610731549034
H            4.90794072208295       -0.96070174971247       -1.92905746933642
H            2.86947929068214       -0.54947284110708       -0.57473279785150
H           -4.14182298305986       -2.27446835081103       -0.86672193278064
H           -4.67111589816561       -1.80333741399632        0.75031904916825
H           -4.02198314449450       -0.58088794612629       -0.35742024722559
H           -2.51157550474462        4.19349462625648        0.60067870821119
H           -0.99029287423897        3.54160943145119       -0.07537901404019
H           -1.95235721235828        2.54385776946283        0.98264362828491
H           -1.15787066161751        1.78674746389080       -1.98067039445271
H           -2.79210825526473        1.28230002872506       -2.51148443000298
H           -2.10203044414351        0.74645021594717       -0.94991325829158
H           -4.39204669082577        2.86404108861700       -2.08747093726496
H           -4.29143234642437        4.01410133361137       -0.82778824537880

          :  Hamiltonian                  GFN1-xTB          :
         :: total energy             -79.544721066011 Eh    ::
         :: gradient norm              0.000283649378 Eh/a0 ::
         :: HOMO-LUMO gap              2.247479816734 eV    ::
         :: SCC energy               -80.480702217079 Eh    ::
         :: -> Gsolv                  -0.114457777528 Eh    ::
         :: repulsion energy           0.964449028358 Eh    ::

    * Orbital Energies and Occupations

         #    Occupation            Energy/Eh            Energy/eV
      -------------------------------------------------------------
         1        2.0000           -0.8656892             -23.5566
       ...           ...                  ...                  ...
        55        2.0000           -0.5206222             -14.1668
        56        2.0000           -0.5195187             -14.1368
        57        2.0000           -0.5086110             -13.8400
        58        2.0000           -0.5008621             -13.6292
        59        2.0000           -0.4783822             -13.0174
        60        2.0000           -0.4771784             -12.9847
        61        2.0000           -0.4766326             -12.9698
        62        2.0000           -0.4604672             -12.5300
        63        2.0000           -0.4544262             -12.3656
        64        2.0000           -0.4496644             -12.2360
        65        2.0000           -0.4480006             -12.1907
        66        2.0000           -0.4369798             -11.8908
        67        2.0000           -0.4293709             -11.6838 (HOMO)
        68                         -0.3467775              -9.4363 (LUMO)
        69                         -0.3201650              -8.7121
        70                         -0.2828387              -7.6964
        71                         -0.2763490              -7.5198
        72                         -0.2679932              -7.2925
        73                         -0.2371632              -6.4535
        74                         -0.1698753              -4.6225
        75                         -0.1602467              -4.3605
        76                         -0.1572715              -4.2796
        77                         -0.1531038              -4.1662
        78                         -0.1473166              -4.0087
       ...                                ...                  ...
       144                          0.7057085              19.2033
      -------------------------------------------------------------
                  HL-Gap            0.0825934 Eh            2.2475 eV

Wiberg/Mayer (AO) data.
largest (>0.10) Wiberg bond orders for each atom

     #   Z sym  total        # sym  WBO       # sym  WBO       # sym  WBO
 ---------------------------------------------------------------------------
     1   6 C    3.921 --    28 H    0.979    26 H    0.979    27 H    0.975
                             2 N    0.930
     2   7 N    3.511 --    20 C    1.176     3 C    1.129     1 C    0.930
                             4 O    0.131
     3   6 C    3.915 --     4 O    1.553     2 N    1.129     5 C    1.083
     4   8 O    1.902 --     3 C    1.553     2 N    0.131
     5   6 C    3.917 --     7 C    1.513     3 C    1.083     6 O    1.076
     6   8 O    2.069 --     5 C    1.076    29 H    0.796
     7   6 C    3.963 --     5 C    1.513    19 N    1.183     8 C    0.998
     8   6 C    3.906 --     9 O    1.532    10 N    1.290     7 C    0.998
     9   8 O    1.891 --     8 C    1.532    10 N    0.167
    10   7 N    3.374 --     8 C    1.290    11 C    0.948    30 H    0.883
                             9 O    0.167
    11   6 C    3.945 --    12 C    0.997    32 H    0.969    31 H    0.958
                            10 N    0.948
    12   6 C    3.988 --    18 C    1.419    13 C    1.412    11 C    0.997
    13   6 C    3.994 --    14 C    1.447    12 C    1.412    33 H    0.971
                            17 C    0.111
    14   6 C    3.991 --    13 C    1.447    15 C    1.398    34 H    0.969
                            18 C    0.110
    15   6 C    3.861 --    17 C    1.403    14 C    1.398    16 F    0.926
    16   9 F    1.054 --    15 C    0.926
    17   6 C    3.992 --    18 C    1.441    15 C    1.403    35 H    0.969
                            13 C    0.111
    18   6 C    3.994 --    17 C    1.441    12 C    1.419    36 H    0.970
                            14 C    0.110
    19   7 N    3.063 --    20 C    1.558     7 C    1.183
    20   6 C    3.932 --    19 N    1.558     2 N    1.176    21 C    1.027
    21   6 C    3.990 --    20 C    1.027    39 H    0.982    38 H    0.964
                            37 H    0.964
    22   6 C    3.853 --    25 N    1.609    24 C    1.080    23 C    1.069
    23   6 C    3.982 --    22 C    1.069    40 H    0.980    41 H    0.943
                            42 H    0.931
    24   6 C    3.979 --    22 C    1.080    44 H    0.980    43 H    0.940
                            45 H    0.904
    25   7 N    3.496 --    22 C    1.609    46 H    0.877    47 H    0.877
    26   1 H    0.999 --     1 C    0.979
    27   1 H    1.005 --     1 C    0.975
    28   1 H    0.999 --     1 C    0.979
    29   1 H    0.841 --     6 O    0.796
    30   1 H    0.941 --    10 N    0.883
    31   1 H    1.012 --    11 C    0.958
    32   1 H    1.003 --    11 C    0.969
    33   1 H    0.998 --    13 C    0.971
    34   1 H    0.997 --    14 C    0.969
    35   1 H    0.998 --    17 C    0.969
    36   1 H    1.004 --    18 C    0.970
    37   1 H    0.997 --    21 C    0.964
    38   1 H    0.997 --    21 C    0.964
    39   1 H    1.006 --    21 C    0.982
    40   1 H    0.993 --    23 C    0.980
    41   1 H    1.003 --    23 C    0.943
    42   1 H    1.005 --    23 C    0.931
    43   1 H    1.004 --    24 C    0.940
    44   1 H    0.993 --    24 C    0.980
    45   1 H    1.033 --    24 C    0.904
    46   1 H    0.908 --    25 N    0.877
    47   1 H    0.908 --    25 N    0.877
 ---------------------------------------------------------------------------

           -------------------------------------------------
          | TOTAL ENERGY              -79.544721066011 Eh   |
          | GRADIENT NORM               0.000283649378 Eh/α |
          | HOMO-LUMO GAP               2.247479816734 eV   |
           -------------------------------------------------

 * finished run on 2023/06/20 at 15:22:55.472
