   * xtb version 6.5.1 (579679a) compiled by 'ehlert@majestix' on 2022-07-11
          program call               : /lustre/hpc/kemi/ree/PhD/git/ReactivityQM/dep/xtb-6.5.1/bin/xtb --gfn 1 /lustre/hpc/kemi/ree/PhD/git/ReactivityQM/calculations/R01/reac02prodN08/conf12/R01_reac02prodN08_conf12_gfn1.xyz --opt --vfukui --chrg 1 --uhf 0 --alpb DMSO

   ID    Z sym.   atoms
    1    6 C      1, 3, 5, 6, 8, 9, 12-15
    2    8 O      2, 4, 7, 10
    3    7 N      11, 16, 17
    4    1 H      18-33

      * Solvation model:               ALPB
        Solvent                        DMSO
        Solvent mass                       7.8130E+01 g/mol
          :  Hamiltonian                  GFN1-xTB          :
 * total energy  :   -57.7156990 Eh     change       -0.1890470E-09 Eh
 * total energy  :   -57.7333930 Eh     change       -0.1769403E-01 Eh
 * total energy  :   -57.7443381 Eh     change       -0.1094509E-01 Eh
 * total energy  :   -57.7468883 Eh     change       -0.2550207E-02 Eh
 * total energy  :   -57.7494430 Eh     change       -0.2554692E-02 Eh
 * total energy  :   -57.7509015 Eh     change       -0.1458540E-02 Eh
 * total energy  :   -57.7523469 Eh     change       -0.1445358E-02 Eh
 * total energy  :   -57.7537615 Eh     change       -0.1414566E-02 Eh
 * total energy  :   -57.7551478 Eh     change       -0.1386365E-02 Eh
 * total energy  :   -57.7565859 Eh     change       -0.1438090E-02 Eh
 * total energy  :   -57.8180545 Eh     change       -0.5800093E-04 Eh
 * total energy  :   -57.8181035 Eh     change       -0.4902283E-04 Eh
 * total energy  :   -57.8181464 Eh     change       -0.4289960E-04 Eh
 * total energy  :   -57.8181747 Eh     change       -0.2822850E-04 Eh
 * total energy  :   -57.8181898 Eh     change       -0.1518021E-04 Eh
 * total energy  :   -57.8182089 Eh     change       -0.1908018E-04 Eh
 * total energy  :   -57.8182237 Eh     change       -0.1478060E-04 Eh
 * total energy  :   -57.8182311 Eh     change       -0.7436580E-05 Eh
 * total energy  :   -57.8182361 Eh     change       -0.4915482E-05 Eh
   *** GEOMETRY OPTIMIZATION CONVERGED AFTER 74 ITERATIONS ***

 final structure:
================
33
 xtb: 6.5.1 (579679a)
C            3.53402765891264        2.37883387162214       -1.07697801665749
O            2.33436178895699        1.60614722140387       -0.88990683385825
C            2.48066764973079        0.34730609301726       -0.57024794637930
O            3.53092192335059       -0.22870670903460       -0.42461128132878
C            1.15411355957593       -0.36138830464129       -0.36687967035523
C            1.18467583456044       -1.85311888267136       -0.17730116703067
O            2.08535574021354       -2.52722792967783       -0.98196723669388
C           -0.18877548060179       -2.48273190806872       -0.31910235941005
C            1.53427680501706       -2.04234626919353        1.33813559073931
O           -0.44106263812738       -3.62415696197800       -0.54167120168753
N           -1.23176040860906       -1.55675972456538       -0.03652556556893
C           -1.10393661621155       -0.25058719041977       -0.02352094746820
C           -2.32034504342844        0.58452094749702        0.19815252472669
C           -2.15694807901453        1.24475222563079        1.57985553882794
C           -2.40561452560356        1.66627962463037       -0.89403478835149
N           -3.47338516166962       -0.29705713335457        0.18803343200972
N            0.09504700325384        0.36033206107993       -0.21319474107558
H            4.14464303415030        2.32680923310236       -0.17408576693645
H            3.21103096987118        3.39879259070289       -1.27051978075466
H            4.09483784384263        1.98022381547837       -1.92411725000880
H            2.98516897218541       -2.17248586239342       -0.87820321912571
H            0.80511797179423       -1.54224902531865        1.96959973154788
H            1.53781144121477       -3.11125654713738        1.54360957005561
H            2.52527394585982       -1.63126167648971        1.51539623846175
H           -2.19285715008760       -1.90113340202455        0.05086184317652
H           -1.23295714145637        1.81998681060065        1.61163005845919
H           -3.00094280555790        1.91001504142478        1.75063924825192
H           -2.13382178372686        0.48316245565282        2.35646948751431
H           -2.51243538118492        1.20291134660068       -1.87288861093664
H           -3.27341717338105        2.29180407519448       -0.69755392241608
H           -1.50532103574693        2.27839047069475       -0.88153167901440
H           -3.89155928677053       -0.31833522184622       -0.73150009282475
H           -4.17219243130657        0.02053386448085        0.84395581410692

          :  Hamiltonian                  GFN1-xTB          :
         :: total energy             -57.818236056345 Eh    ::
         :: gradient norm              0.000559293439 Eh/a0 ::
         :: HOMO-LUMO gap              0.683208133574 eV    ::
         :: SCC energy               -58.389921544066 Eh    ::
         :: -> Gsolv                  -0.098368830865 Eh    ::
         :: repulsion energy           0.590874347810 Eh    ::

    * Orbital Energies and Occupations

         #    Occupation            Energy/Eh            Energy/eV
      -------------------------------------------------------------
         1        2.0000           -0.8939329             -24.3252
       ...           ...                  ...                  ...
        35        2.0000           -0.5498452             -14.9620
        36        2.0000           -0.5456738             -14.8485
        37        2.0000           -0.5445552             -14.8181
        38        2.0000           -0.5397661             -14.6878
        39        2.0000           -0.5373699             -14.6226
        40        2.0000           -0.5352856             -14.5659
        41        2.0000           -0.5334787             -14.5167
        42        2.0000           -0.5278541             -14.3636
        43        2.0000           -0.5242355             -14.2652
        44        2.0000           -0.5173552             -14.0780
        45        2.0000           -0.5050346             -13.7427
        46        2.0000           -0.4909987             -13.3608
        47        2.0000           -0.4513056             -12.2806 (HOMO)
        48        0.0000           -0.4261981             -11.5974 (LUMO)
        49                         -0.3517168              -9.5707
        50                         -0.3051481              -8.3035
        51                         -0.2640873              -7.1862
        52                         -0.1546645              -4.2086
        53                         -0.1531131              -4.1664
        54                         -0.1473107              -4.0085
        55                         -0.1448787              -3.9423
        56                         -0.1340515              -3.6477
        57                         -0.1175946              -3.1999
        58                         -0.1089475              -2.9646
       ...                                ...                  ...
       100                          0.7086181              19.2825
      -------------------------------------------------------------
                  HL-Gap            0.0251074 Eh            0.6832 eV

Wiberg/Mayer (AO) data.
largest (>0.10) Wiberg bond orders for each atom

     #   Z sym  total        # sym  WBO       # sym  WBO       # sym  WBO
 ---------------------------------------------------------------------------
     1   6 C    3.838 --    19 H    0.984    18 H    0.975    20 H    0.974
                             2 O    0.867
     2   8 O    2.256 --     3 C    1.186     1 C    0.867     4 O    0.156
     3   6 C    3.864 --     4 O    1.663     2 O    1.186     5 C    0.945
     4   8 O    1.977 --     3 C    1.663     2 O    0.156
     5   6 C    3.909 --    17 N    1.647     6 C    0.996     3 C    0.945
     6   6 C    3.942 --     7 O    1.006     5 C    0.996     8 C    0.948
                             9 C    0.862
     7   8 O    1.923 --     6 C    1.006    21 H    0.811
     8   6 C    3.857 --    10 O    1.798    11 N    0.989     6 C    0.948
     9   6 C    3.962 --    22 H    0.985    24 H    0.975    23 H    0.970
                             6 C    0.862
    10   8 O    2.040 --     8 C    1.798
    11   7 N    3.530 --    12 C    1.435     8 C    0.989    25 H    0.829
    12   6 C    3.865 --    11 N    1.435    17 N    1.189    13 C    1.017
    13   6 C    3.956 --    12 C    1.017    16 N    1.000    15 C    0.947
                            14 C    0.939
    14   6 C    3.978 --    28 H    0.984    26 H    0.983    27 H    0.974
                            13 C    0.939
    15   6 C    3.979 --    29 H    0.984    31 H    0.982    30 H    0.979
                            13 C    0.947
    16   7 N    2.995 --    13 C    1.000    32 H    0.926    33 H    0.923
    17   7 N    3.052 --     5 C    1.647    12 C    1.189
    18   1 H    1.000 --     1 C    0.975
    19   1 H    1.005 --     1 C    0.984
    20   1 H    0.999 --     1 C    0.974
    21   1 H    0.851 --     7 O    0.811
    22   1 H    0.994 --     9 C    0.985
    23   1 H    0.993 --     9 C    0.970
    24   1 H    0.998 --     9 C    0.975
    25   1 H    0.924 --    11 N    0.829
    26   1 H    0.999 --    14 C    0.983
    27   1 H    0.994 --    14 C    0.974
    28   1 H    0.996 --    14 C    0.984
    29   1 H    0.996 --    15 C    0.984
    30   1 H    0.997 --    15 C    0.979
    31   1 H    1.003 --    15 C    0.982
    32   1 H    0.940 --    16 N    0.926
    33   1 H    0.937 --    16 N    0.923
 ---------------------------------------------------------------------------

           -------------------------------------------------
          | TOTAL ENERGY              -57.818236056345 Eh   |
          | GRADIENT NORM               0.000559293439 Eh/α |
          | HOMO-LUMO GAP               0.683208133574 eV   |
           -------------------------------------------------

 * finished run on 2023/06/20 at 15:08:38.699
