   * xtb version 6.5.1 (579679a) compiled by 'ehlert@majestix' on 2022-07-11
          program call               : /lustre/hpc/kemi/ree/PhD/git/ReactivityQM/dep/xtb-6.5.1/bin/xtb --gfn 1 /lustre/hpc/kemi/ree/PhD/git/ReactivityQM/calculations/RaltegravirCLI/reac01prodN03/conf06/RaltegravirCLI_reac01prodN03_conf06_gfn1.xyz --opt --vfukui --chrg 1 --uhf 0 --alpb DMSO

   ID    Z sym.   atoms
    1    6 C      1, 2, 5-7
    2    7 N      3, 4
    3    8 O      8, 10
    4   17 Cl     9
    5    1 H      11-16

      * Solvation model:               ALPB
        Solvent                        DMSO
        Solvent mass                       7.8130E+01 g/mol
          :  Hamiltonian                  GFN1-xTB          :
 * total energy  :   -33.4327225 Eh     change       -0.4121148E-12 Eh
 * total energy  :   -33.4383059 Eh     change       -0.5583427E-02 Eh
 * total energy  :   -33.4404780 Eh     change       -0.2172075E-02 Eh
 * total energy  :   -33.4408072 Eh     change       -0.3292689E-03 Eh
 * total energy  :   -33.4409290 Eh     change       -0.1217492E-03 Eh
 * total energy  :   -33.4409771 Eh     change       -0.4810248E-04 Eh
 * total energy  :   -33.4409889 Eh     change       -0.1185342E-04 Eh
 * total energy  :   -33.4409991 Eh     change       -0.1010910E-04 Eh
 * total energy  :   -33.4410048 Eh     change       -0.5765732E-05 Eh
 * total energy  :   -33.4410234 Eh     change       -0.1853233E-04 Eh
 * total energy  :   -33.4411320 Eh     change       -0.3290465E-04 Eh
 * total energy  :   -33.4411527 Eh     change       -0.2071723E-04 Eh
 * total energy  :   -33.4411564 Eh     change       -0.3627063E-05 Eh
 * total energy  :   -33.4411715 Eh     change       -0.1516810E-04 Eh
 * total energy  :   -33.4411931 Eh     change       -0.2155669E-04 Eh
 * total energy  :   -33.4412210 Eh     change       -0.2789454E-04 Eh
 * total energy  :   -33.4412347 Eh     change       -0.1374035E-04 Eh
 * total energy  :   -33.4412513 Eh     change       -0.1653406E-04 Eh
 * total energy  :   -33.4412560 Eh     change       -0.4708974E-05 Eh
   *** GEOMETRY OPTIMIZATION CONVERGED AFTER 22 ITERATIONS ***

 final structure:
================
16
 xtb: 6.5.1 (579679a)
C            2.77910730783114       -0.28101947463939       -0.57189275070731
C            1.34301764167105       -0.16529179393926       -0.27899126376971
N            0.50320644388685       -1.11711288594624        0.03331705846961
N           -0.67194924408963       -0.50488439143398        0.20768934260561
C           -1.83815696686525       -1.27441578511630        0.58380179535215
C           -0.53939662842813        0.78979594375269        0.00454104013760
C           -1.59804978623067        1.83924300141480        0.09232515986814
O           -2.71775340317723        1.54326253582085        0.38923653382558
Cl          -1.06069755960149        3.40443309198338       -0.25938732351183
O            0.72602557767777        1.02391763130701       -0.30565797403533
H            3.34727205705409        0.30094322208212        0.15567561100032
H            3.08379347630571       -1.32408411361863       -0.53165115718185
H            2.98655965975699        0.13287262288788       -1.55964990395429
H           -1.97575268505911       -1.18678771715293        1.66161570451659
H           -1.65892894113338       -2.31038461271171        0.30839122243040
H           -2.70829794959870       -0.87048627469031        0.07063890495433

          :  Hamiltonian                  GFN1-xTB          :
         :: total energy             -33.441255978730 Eh    ::
         :: gradient norm              0.000754045588 Eh/a0 ::
         :: HOMO-LUMO gap              2.998464055751 eV    ::
         :: SCC energy               -33.735245677848 Eh    ::
         :: -> Gsolv                  -0.081520916588 Eh    ::
         :: repulsion energy           0.301261129778 Eh    ::

    * Orbital Energies and Occupations

         #    Occupation            Energy/Eh            Energy/eV
      -------------------------------------------------------------
         1        2.0000           -0.9907643             -26.9601
       ...           ...                  ...                  ...
        15        2.0000           -0.6352691             -17.2866
        16        2.0000           -0.6345011             -17.2657
        17        2.0000           -0.6266027             -17.0507
        18        2.0000           -0.5976589             -16.2631
        19        2.0000           -0.5900766             -16.0568
        20        2.0000           -0.5769923             -15.7008
        21        2.0000           -0.5709619             -15.5367
        22        2.0000           -0.5627521             -15.3133
        23        2.0000           -0.5532042             -15.0535
        24        2.0000           -0.5306639             -14.4401
        25        2.0000           -0.5282112             -14.3734
        26        2.0000           -0.5207191             -14.1695
        27        2.0000           -0.5122512             -13.9391 (HOMO)
        28                         -0.4020596             -10.9406 (LUMO)
        29                         -0.3326291              -9.0513
        30                         -0.2971611              -8.0862
        31                         -0.2449235              -6.6647
        32                         -0.1759742              -4.7885
        33                         -0.1703818              -4.6363
        34                         -0.1187706              -3.2319
        35                         -0.1157617              -3.1500
        36                         -0.1154076              -3.1404
        37                         -0.1111434              -3.0244
        38                         -0.1041622              -2.8344
       ...                                ...                  ...
        57                          0.6941458              18.8887
      -------------------------------------------------------------
                  HL-Gap            0.1101915 Eh            2.9985 eV

Wiberg/Mayer (AO) data.
largest (>0.10) Wiberg bond orders for each atom

     #   Z sym  total        # sym  WBO       # sym  WBO       # sym  WBO
 ---------------------------------------------------------------------------
     1   6 C    3.966 --     2 C    1.047    12 H    0.976    13 H    0.946
                            11 H    0.944
     2   6 C    3.834 --     3 N    1.539    10 O    1.084     1 C    1.047
     3   7 N    2.971 --     2 C    1.539     4 N    1.184
     4   7 N    3.675 --     6 C    1.437     3 N    1.184     5 C    0.908
     5   6 C    3.872 --    15 H    0.975    16 H    0.966    14 H    0.953
                             4 N    0.908
     6   6 C    3.856 --     4 N    1.437    10 O    1.125     7 C    0.985
     7   6 C    3.908 --     8 O    1.757     9 Cl   1.118     6 C    0.985
     8   8 O    2.056 --     7 C    1.757     9 Cl   0.177
     9  17 Cl   1.361 --     7 C    1.118     8 O    0.177
    10   8 O    2.379 --     6 C    1.125     2 C    1.084
    11   1 H    0.986 --     1 C    0.944
    12   1 H    0.989 --     1 C    0.976
    13   1 H    0.986 --     1 C    0.946
    14   1 H    0.988 --     5 C    0.953
    15   1 H    0.991 --     5 C    0.975
    16   1 H    0.997 --     5 C    0.966
 ---------------------------------------------------------------------------

           -------------------------------------------------
          | TOTAL ENERGY              -33.441255978730 Eh   |
          | GRADIENT NORM               0.000754045588 Eh/α |
          | HOMO-LUMO GAP               2.998464055751 eV   |
           -------------------------------------------------

 * finished run on 2023/06/20 at 14:54:32.072
