   * xtb version 6.5.1 (579679a) compiled by 'ehlert@majestix' on 2022-07-11
          program call               : /lustre/hpc/kemi/ree/PhD/git/ReactivityQM/dep/xtb-6.5.1/bin/xtb --gfn 1 /lustre/hpc/kemi/ree/PhD/git/ReactivityQM/calculations/R02methylcation/reac01prodN10/conf17/R02methylcation_reac01prodN10_conf17_gfn1.xyz --opt --vfukui --chrg 0 --uhf 0 --alpb DMSO

   ID    Z sym.   atoms
    1    6 C      1, 3, 5, 6, 8, 11-15, 17, 19, 22, 23
    2    8 O      2, 4, 7, 9, 18, 24
    3    7 N      10, 16, 20, 21, 25
    4    1 H      26-42

      * Solvation model:               ALPB
        Solvent                        DMSO
        Solvent mass                       7.8130E+01 g/mol
          :  Hamiltonian                  GFN1-xTB          :
 * total energy  :   -82.9632786 Eh     change       -0.9677592E-11 Eh
 * total energy  :   -82.9753893 Eh     change       -0.1211065E-01 Eh
 * total energy  :   -82.9802729 Eh     change       -0.4883597E-02 Eh
 * total energy  :   -82.9811775 Eh     change       -0.9046039E-03 Eh
 * total energy  :   -82.9816455 Eh     change       -0.4680561E-03 Eh
 * total energy  :   -82.9818506 Eh     change       -0.2050869E-03 Eh
 * total energy  :   -82.9819676 Eh     change       -0.1169746E-03 Eh
 * total energy  :   -82.9820360 Eh     change       -0.6840676E-04 Eh
 * total energy  :   -82.9820859 Eh     change       -0.4985697E-04 Eh
 * total energy  :   -82.9821272 Eh     change       -0.4131015E-04 Eh
 * total energy  :   -82.9822835 Eh     change       -0.7651153E-05 Eh
 * total energy  :   -82.9823027 Eh     change       -0.1919921E-04 Eh
 * total energy  :   -82.9823135 Eh     change       -0.1070627E-04 Eh
 * total energy  :   -82.9823216 Eh     change       -0.8152491E-05 Eh
 * total energy  :   -82.9823325 Eh     change       -0.1088238E-04 Eh
 * total energy  :   -82.9823421 Eh     change       -0.9575156E-05 Eh
 * total energy  :   -82.9823478 Eh     change       -0.5759570E-05 Eh
 * total energy  :   -82.9823541 Eh     change       -0.6326588E-05 Eh
 * total energy  :   -82.9823588 Eh     change       -0.4698977E-05 Eh
   *** GEOMETRY OPTIMIZATION CONVERGED AFTER 27 ITERATIONS ***

 final structure:
================
42
 xtb: 6.5.1 (579679a)
C           -5.66838149639691        2.24599060607694        0.32120340181652
O           -4.44123454962537        1.50513348440487        0.27483024086955
C           -4.51675801215828        0.21113939743037        0.54056114544268
O           -5.53002156872033       -0.37392369537559        0.82184175487854
C           -3.15728269745949       -0.45295569593846        0.43303619721380
C           -2.86303122105774       -1.64656444092046        1.27785272502020
O           -3.46901612039159       -1.92156001451995        2.28105692336195
C           -1.69400723389750       -2.49089111039449        0.76727713038259
O           -1.53531879891802       -3.65435642939253        1.07605680341373
N           -0.85934208495979       -1.83054585758583       -0.06250187539960
C           -1.00997119982819       -0.47932178743344       -0.57211599305037
C           -0.75856508477192       -0.51970594508423       -2.08490168737829
C           -0.02983090489214        0.49237446722229        0.17968205943751
C           -0.31397074691030        0.47274426125439        1.68449913543150
C           -0.16359750516913        1.91151217822097       -0.37975167674713
N            1.32299107105105       -0.01392692820213       -0.05455097085410
C            2.43604962419910        0.61263319294217        0.39294870665388
O            2.46410839309988        1.67791304916244        0.98040395463696
C            3.64700374220297       -0.17987001123601        0.06435413294880
N            3.66544585946015       -1.33831962790593       -0.52469628250415
N            4.97148180846130       -1.71096374088865       -0.61747430814117
C            5.66830293274949       -0.75539510093557       -0.07897615115465
C            7.13861380929355       -0.68115195596618        0.06439196776378
O            4.88810850793299        0.23876082218951        0.37038298690242
N           -2.31854067882397        0.05208356694287       -0.38274881711658
H           -6.12064461263757        2.15544927329917        1.31117150446645
H           -5.41086611110367        3.28168409287790        0.11262217577408
H           -6.35966262116882        1.86435282938828       -0.43271971488791
H           -0.10245906908999       -2.37367438555185       -0.44512458705119
H           -1.38242987623031       -1.29486494002105       -2.52549736734153
H            0.28477818197941       -0.74055112664224       -2.29552581623975
H           -1.02337583452800        0.43748361688519       -2.52748523413786
H           -0.22507789816298       -0.53965731903554        2.07554094843549
H            0.40767637051749        1.10956712595575        2.19347681903257
H           -1.31452022073527        0.85194893148406        1.88481725181358
H            0.24108060394646        1.96574619797023       -1.38844047756174
H            0.38377270217407        2.61046179271200        0.25073879933386
H           -1.21372486115864        2.19889092778879       -0.39833581867399
H            1.44348238873455       -0.92860999709451       -0.46065263559906
H            7.58160335026151       -1.63333482987559       -0.21632760114394
H            7.53614803138023        0.10449009733168       -0.57849074636099
H            7.40097963135598       -0.44021697153901        1.09386099631402

          :  Hamiltonian                  GFN1-xTB          :
         :: total energy             -82.982358848086 Eh    ::
         :: gradient norm              0.000892286117 Eh/a0 ::
         :: HOMO-LUMO gap              1.755268722049 eV    ::
         :: SCC energy               -83.763790455772 Eh    ::
         :: -> Gsolv                  -0.056815107584 Eh    ::
         :: repulsion energy           0.809054228549 Eh    ::

    * Orbital Energies and Occupations

         #    Occupation            Energy/Eh            Energy/eV
      -------------------------------------------------------------
         1        2.0000           -0.8654747             -23.5508
       ...           ...                  ...                  ...
        55        2.0000           -0.5080890             -13.8258
        56        2.0000           -0.5077280             -13.8160
        57        2.0000           -0.5063770             -13.7792
        58        2.0000           -0.5036400             -13.7047
        59        2.0000           -0.4981463             -13.5553
        60        2.0000           -0.4849371             -13.1958
        61        2.0000           -0.4813608             -13.0985
        62        2.0000           -0.4726705             -12.8620
        63        2.0000           -0.4649078             -12.6508
        64        2.0000           -0.4621764             -12.5765
        65        2.0000           -0.4543467             -12.3634
        66        2.0000           -0.4505386             -12.2598
        67        2.0000           -0.4389381             -11.9441 (HOMO)
        68                         -0.3744331             -10.1888 (LUMO)
        69                         -0.3184776              -8.6662
        70                         -0.3140291              -8.5452
        71                         -0.2584348              -7.0324
        72                         -0.2543279              -6.9206
        73                         -0.2058335              -5.6010
        74                         -0.2018256              -5.4920
        75                         -0.1459422              -3.9713
        76                         -0.1436432              -3.9087
        77                         -0.1425845              -3.8799
        78                         -0.1344121              -3.6575
       ...                                ...                  ...
       134                          0.7655982              20.8330
      -------------------------------------------------------------
                  HL-Gap            0.0645049 Eh            1.7553 eV

Wiberg/Mayer (AO) data.
largest (>0.10) Wiberg bond orders for each atom

     #   Z sym  total        # sym  WBO       # sym  WBO       # sym  WBO
 ---------------------------------------------------------------------------
     1   6 C    3.859 --    27 H    0.985    28 H    0.979    26 H    0.979
                             2 O    0.885
     2   8 O    2.221 --     3 C    1.141     1 C    0.885     4 O    0.146
     3   6 C    3.853 --     4 O    1.692     2 O    1.141     5 C    0.944
     4   8 O    1.949 --     3 C    1.692     2 O    0.146
     5   6 C    3.953 --    25 N    1.789     6 C    0.992     3 C    0.944
     6   6 C    3.857 --     7 O    1.804     5 C    0.992     8 C    0.908
     7   8 O    2.011 --     6 C    1.804
     8   6 C    3.903 --     9 O    1.633    10 N    1.247     6 C    0.908
     9   8 O    1.926 --     8 C    1.633    10 N    0.185
    10   7 N    3.362 --     8 C    1.247    11 C    0.937    29 H    0.885
                             9 O    0.185
    11   6 C    3.914 --    25 N    1.009    12 C    0.968    10 N    0.937
                            13 C    0.901
    12   6 C    3.979 --    30 H    0.982    31 H    0.981    32 H    0.981
                            11 C    0.968
    13   6 C    3.927 --    15 C    0.996    14 C    0.995    16 N    0.930
                            11 C    0.901
    14   6 C    3.990 --    13 C    0.995    35 H    0.984    33 H    0.983
                            34 H    0.975
    15   6 C    3.988 --    13 C    0.996    36 H    0.983    38 H    0.983
                            37 H    0.976
    16   7 N    3.334 --    17 C    1.238    13 C    0.930    39 H    0.894
                            18 O    0.175
    17   6 C    3.914 --    18 O    1.601    16 N    1.238    19 C    0.991
    18   8 O    1.918 --    17 C    1.601    16 N    0.175
    19   6 C    3.876 --    20 N    1.607    24 O    1.065    17 C    0.991
    20   7 N    3.020 --    19 C    1.607    21 N    1.203
    21   7 N    2.981 --    22 C    1.602    20 N    1.203
    22   6 C    3.870 --    21 N    1.602    24 O    1.083    23 C    1.032
    23   6 C    3.986 --    22 C    1.032    40 H    0.982    42 H    0.967
                            41 H    0.960
    24   8 O    2.332 --    22 C    1.083    19 C    1.065
    25   7 N    3.052 --     5 C    1.789    11 C    1.009
    26   1 H    1.004 --     1 C    0.979
    27   1 H    1.009 --     1 C    0.985
    28   1 H    1.004 --     1 C    0.979
    29   1 H    0.924 --    10 N    0.885
    30   1 H    0.999 --    12 C    0.982
    31   1 H    0.997 --    12 C    0.981
    32   1 H    1.003 --    12 C    0.981
    33   1 H    1.003 --    14 C    0.983
    34   1 H    1.006 --    14 C    0.975
    35   1 H    1.001 --    14 C    0.984
    36   1 H    1.001 --    15 C    0.983
    37   1 H    1.009 --    15 C    0.976
    38   1 H    1.009 --    15 C    0.983
    39   1 H    0.954 --    16 N    0.894
    40   1 H    0.998 --    23 C    0.982
    41   1 H    0.996 --    23 C    0.960
    42   1 H    0.996 --    23 C    0.967
 ---------------------------------------------------------------------------

           -------------------------------------------------
          | TOTAL ENERGY              -82.982358848086 Eh   |
          | GRADIENT NORM               0.000892286117 Eh/α |
          | HOMO-LUMO GAP               1.755268722049 eV   |
           -------------------------------------------------

 * finished run on 2023/06/21 at 17:41:41.597
