   * xtb version 6.5.1 (579679a) compiled by 'ehlert@majestix' on 2022-07-11
          program call               : /lustre/hpc/kemi/ree/PhD/git/ReactivityQM/dep/xtb-6.5.1/bin/xtb --gfn 1 /lustre/hpc/kemi/ree/PhD/git/ReactivityQM/calculations/R02methylcation/reac01prodN11/conf04/R02methylcation_reac01prodN11_conf04_gfn1.xyz --opt --vfukui --chrg 0 --uhf 0 --alpb DMSO

   ID    Z sym.   atoms
    1    6 C      1, 3, 5, 7-10, 12, 13, 15, 18, 19, 22, 24
    2    8 O      2, 4, 14, 20, 23, 25
    3    7 N      6, 11, 16, 17, 21
    4    1 H      26-42

      * Solvation model:               ALPB
        Solvent                        DMSO
        Solvent mass                       7.8130E+01 g/mol
          :  Hamiltonian                  GFN1-xTB          :
 * total energy  :   -82.8618673 Eh     change       -0.1416822E-10 Eh
 * total energy  :   -82.8733740 Eh     change       -0.1150677E-01 Eh
 * total energy  :   -82.8786775 Eh     change       -0.5303486E-02 Eh
 * total energy  :   -82.8800933 Eh     change       -0.1415746E-02 Eh
 * total energy  :   -82.8811765 Eh     change       -0.1083202E-02 Eh
 * total energy  :   -82.8819499 Eh     change       -0.7734140E-03 Eh
 * total energy  :   -82.8824508 Eh     change       -0.5009123E-03 Eh
 * total energy  :   -82.8826879 Eh     change       -0.2371602E-03 Eh
 * total energy  :   -82.8827951 Eh     change       -0.1071966E-03 Eh
 * total energy  :   -82.8828678 Eh     change       -0.7269325E-04 Eh
 * total energy  :   -82.8845910 Eh     change       -0.5899193E-05 Eh
 * total energy  :   -82.8845998 Eh     change       -0.8719581E-05 Eh
 * total energy  :   -82.8846105 Eh     change       -0.1073782E-04 Eh
 * total energy  :   -82.8846088 Eh     change        0.1716402E-05 Eh
 * total energy  :   -82.8846159 Eh     change       -0.7157456E-05 Eh
 * total energy  :   -82.8846240 Eh     change       -0.8021995E-05 Eh
 * total energy  :   -82.8846296 Eh     change       -0.5682671E-05 Eh
 * total energy  :   -82.8846379 Eh     change       -0.8274055E-05 Eh
 * total energy  :   -82.8846407 Eh     change       -0.2784692E-05 Eh
   *** GEOMETRY OPTIMIZATION CONVERGED AFTER 54 ITERATIONS ***

 final structure:
================
42
 xtb: 6.5.1 (579679a)
C           -5.89721618279218       -1.83935983567269       -0.21638340687234
O           -4.69823687070395       -1.05857902982113       -0.22722053553427
C           -4.72651008133293        0.05735807284865       -0.95755761105452
O           -5.68978244678324        0.40951421751201       -1.59489082586924
C           -3.43189308518401        0.80245458982164       -0.87335210472226
N           -2.46196442165340        0.21705663931486       -0.17316830822472
C           -1.28099778430555        0.78414827647630       -0.03521855646399
C           -0.25802884943564        0.08276207516003        0.80943221870678
C           -0.32161591699062       -1.44011714829690        0.56668023801694
C           -0.63237268362509        0.40080725266210        2.27635787813684
N            1.05562228164897        0.57742035679580        0.49803749045839
C            2.26300038984047        0.07299229673376        1.17251302892284
C            3.12736082566846        1.35809112020001        1.49074432832884
O            2.09807138439602       -0.68403766199226        2.19328184772444
C            3.03686836468331       -0.61728608329640        0.01852496010969
N            2.52008559768697       -1.31423465899415       -0.93771552209037
N            3.57553052381531       -1.78111046033354       -1.67506189339075
C            4.65438381328869       -1.32993603287215       -1.11999163878974
C            6.05669075479371       -1.54420764820148       -1.53901639966153
O            4.37631670833764       -0.58025684505639       -0.03487811455200
N           -1.00792920705166        1.99254542067479       -0.56628801593265
C           -1.90748702290984        2.74201414140279       -1.32091302503904
O           -1.58910683945393        3.82822789085156       -1.74531606233987
C           -3.26290162025729        2.08882752721434       -1.52809921732359
O           -4.11412080220911        2.65545414743018       -2.19419625165046
H           -6.14580200269227       -2.16030854059293       -1.23096463897969
H           -6.72319619487642       -1.25026523013338        0.18954738335139
H           -5.70039206563592       -2.70148587326995        0.41699714650232
H            0.31590103443335       -1.95209459360765        1.28400236460335
H           -1.34980343912781       -1.77518842354345        0.68711658148149
H            0.02491021856936       -1.66043925914189       -0.44176406149289
H            0.02164861648519       -0.14388539230055        2.95252651792965
H           -0.52716569365248        1.46909305609640        2.45294687820907
H           -1.66428440094998        0.10288999118199        2.45311790518712
H            1.21341810907251        0.86596330452522       -0.45545259258639
H            4.06724420687656        1.02213633510358        1.91911970162207
H            3.30107594866430        1.92964703876305        0.58557520544685
H            2.56977274957321        1.94504954366385        2.21400476701160
H            6.52055106089102       -0.58719149810466       -1.77916747904711
H            6.08241507652695       -2.19142246091105       -2.41278292986145
H            6.62423237539391       -1.99925195891830       -0.72692731095492
H           -0.11428942901321        2.42816934061574       -0.39420093930758

          :  Hamiltonian                  GFN1-xTB          :
         :: total energy             -82.884640692472 Eh    ::
         :: gradient norm              0.000749433523 Eh/a0 ::
         :: HOMO-LUMO gap              0.078188022591 eV    ::
         :: SCC energy               -83.649169843316 Eh    ::
         :: -> Gsolv                  -0.065545843583 Eh    ::
         :: repulsion energy           0.790880484170 Eh    ::

    * Orbital Energies and Occupations

         #    Occupation            Energy/Eh            Energy/eV
      -------------------------------------------------------------
         1        2.0000           -0.8690257             -23.6474
       ...           ...                  ...                  ...
        55        2.0000           -0.5115599             -13.9203
        56        2.0000           -0.5087463             -13.8437
        57        2.0000           -0.5082302             -13.8296
        58        2.0000           -0.5000089             -13.6059
        59        2.0000           -0.4913513             -13.3703
        60        2.0000           -0.4841723             -13.1750
        61        2.0000           -0.4808330             -13.0841
        62        2.0000           -0.4658245             -12.6757
        63        2.0000           -0.4613460             -12.5539
        64        2.0000           -0.4505351             -12.2597
        65        2.0000           -0.4456513             -12.1268
        66        2.0000           -0.4406752             -11.9914
        67        1.6388           -0.4233777             -11.5207 (HOMO)
        68        0.3612           -0.4205043             -11.4425 (LUMO)
        69                         -0.3271776              -8.9030
        70                         -0.3035365              -8.2596
        71                         -0.2742612              -7.4630
        72                         -0.2573426              -7.0026
        73                         -0.2506245              -6.8198
        74                         -0.1769130              -4.8140
        75                         -0.1434297              -3.9029
        76                         -0.1408406              -3.8325
        77                         -0.1404637              -3.8222
        78                         -0.1326851              -3.6105
       ...                                ...                  ...
       134                          0.7513985              20.4466
      -------------------------------------------------------------
                  HL-Gap            0.0028734 Eh            0.0782 eV

Wiberg/Mayer (AO) data.
largest (>0.10) Wiberg bond orders for each atom

     #   Z sym  total        # sym  WBO       # sym  WBO       # sym  WBO
 ---------------------------------------------------------------------------
     1   6 C    3.867 --    28 H    0.986    26 H    0.978    27 H    0.978
                             2 O    0.895
     2   8 O    2.193 --     3 C    1.112     1 C    0.895     4 O    0.139
     3   6 C    3.845 --     4 O    1.666     2 O    1.112     5 C    0.996
     4   8 O    1.909 --     3 C    1.666     2 O    0.139
     5   6 C    3.753 --     6 N    1.390    24 C    1.111     3 C    0.996
     6   7 N    2.990 --     5 C    1.390     7 C    1.381
     7   6 C    3.826 --     6 N    1.381    21 N    1.241     8 C    1.007
     8   6 C    3.930 --     7 C    1.007    11 N    0.981     9 C    0.936
                            10 C    0.928
     9   6 C    3.956 --    31 H    0.983    30 H    0.979    29 H    0.978
                             8 C    0.936
    10   6 C    3.958 --    34 H    0.986    33 H    0.985    32 H    0.971
                             8 C    0.928
    11   7 N    3.177 --     8 C    0.981    12 C    0.914    35 H    0.903
                            14 O    0.154
    12   6 C    3.877 --    14 O    1.259    11 N    0.914    15 C    0.826
                            13 C    0.813
    13   6 C    3.846 --    37 H    0.988    38 H    0.981    36 H    0.981
                            12 C    0.813
    14   8 O    1.612 --    12 C    1.259    11 N    0.154
    15   6 C    3.768 --    16 N    1.646    20 O    1.075    12 C    0.826
    16   7 N    2.999 --    15 C    1.646    17 N    1.160
    17   7 N    2.980 --    18 C    1.631    16 N    1.160
    18   6 C    3.858 --    17 N    1.631    20 O    1.055    19 C    1.030
    19   6 C    3.984 --    18 C    1.030    40 H    0.982    41 H    0.964
                            39 H    0.962
    20   8 O    2.321 --    15 C    1.075    18 C    1.055
    21   7 N    3.454 --     7 C    1.241    22 C    1.081    42 H    0.872
                            23 O    0.103
    22   6 C    3.835 --    23 O    1.691    21 N    1.081    24 C    0.938
    23   8 O    1.909 --    22 C    1.691    21 N    0.103
    24   6 C    3.853 --    25 O    1.669     5 C    1.111    22 C    0.938
    25   8 O    1.828 --    24 C    1.669
    26   1 H    1.005 --     1 C    0.978
    27   1 H    1.005 --     1 C    0.978
    28   1 H    1.010 --     1 C    0.986
    29   1 H    1.010 --     9 C    0.978
    30   1 H    1.008 --     9 C    0.979
    31   1 H    1.015 --     9 C    0.983
    32   1 H    1.011 --    10 C    0.971
    33   1 H    0.999 --    10 C    0.985
    34   1 H    1.001 --    10 C    0.986
    35   1 H    0.945 --    11 N    0.903
    36   1 H    1.003 --    13 C    0.981
    37   1 H    0.998 --    13 C    0.988
    38   1 H    0.997 --    13 C    0.981
    39   1 H    0.997 --    19 C    0.962
    40   1 H    0.997 --    19 C    0.982
    41   1 H    0.997 --    19 C    0.964
    42   1 H    0.921 --    21 N    0.872
 ---------------------------------------------------------------------------

           -------------------------------------------------
          | TOTAL ENERGY              -82.884640692472 Eh   |
          | GRADIENT NORM               0.000749433523 Eh/α |
          | HOMO-LUMO GAP               0.078188022591 eV   |
           -------------------------------------------------

 * finished run on 2023/06/21 at 17:43:44.438
