                         Program Version 5.0.1 -  RELEASE  -
|  1> # ORCA input file
|  2> ! SP r2SCAN-3c CPCM
|  3>
|  4> %maxcore 1875.0
|  5> %pal nprocs 4 end
|  6> %cpcm smd true SMDsolvent "DMSO" end
|  7>
|  8> *xyz -2 1
|  9> C       5.312362    1.620411    2.625390
| 10> O       4.352280    1.686846    1.586956
| 11> C       3.484886    0.628958    1.515786
| 12> O       3.566964   -0.279045    2.343585
| 13> C       2.535802    0.690036    0.427634
| 14> N       1.702399   -0.422037    0.370681
| 15> C       0.824910   -0.514585   -0.568831
| 16> C      -0.001373   -1.793923   -0.699850
| 17> C       0.310599   -2.700094    0.499780
| 18> C       0.418391   -2.518192   -1.993140
| 19> N      -1.461598   -1.625143   -0.708450
| 20> C      -2.110376   -0.554059   -1.551541
| 21> C      -3.525432   -1.110837   -1.877548
| 22> O      -1.445462   -0.210460   -2.652166
| 23> C      -2.321251    0.638148   -0.589159
| 24> N      -1.824478    1.829016   -0.645234
| 25> N      -2.311507    2.521797    0.444576
| 26> C      -3.071445    1.702521    1.085848
| 27> C      -3.847184    1.961706    2.322444
| 28> O      -3.125365    0.491607    0.495640
| 29> N       0.664478    0.432236   -1.536843
| 30> C       1.390605    1.574108   -1.587074
| 31> O       1.195027    2.423625   -2.469905
| 32> C       2.455267    1.743137   -0.520745
| 33> O       3.169346    2.772797   -0.540377
| 34> H       4.829117    1.586228    3.607887
| 35> H       5.929126    2.516177    2.554125
| 36> H       5.944933    0.732283    2.518648
| 37> H       0.069339   -2.189625    1.432560
| 38> H       1.370156   -2.955823    0.513396
| 39> H      -0.275021   -3.616307    0.437535
| 40> H       1.490990   -2.714450   -1.982744
| 41> H      -0.113374   -3.466509   -2.065998
| 42> H       0.176575   -1.918877   -2.869936
| 43> H      -1.805054   -1.533620    0.242493
| 44> H      -3.411193   -1.997957   -2.497421
| 45> H      -4.058567   -1.375158   -0.967466
| 46> H      -4.092357   -0.360412   -2.426462
| 47> H      -4.909503    1.808868    2.135320
| 48> H      -3.683465    2.985402    2.650054
| 49> H      -3.543743    1.274516    3.111488
| 50> H      -0.255803    0.236685   -2.170936
| 51> **                         ****END OF INPUT****

CARTESIAN COORDINATES (ANGSTROEM)
---------------------------------
  C      5.312362    1.620411    2.625390
  O      4.352280    1.686846    1.586956
  C      3.484886    0.628958    1.515786
  O      3.566964   -0.279045    2.343585
  C      2.535802    0.690036    0.427634
  N      1.702399   -0.422037    0.370681
  C      0.824910   -0.514585   -0.568831
  C     -0.001373   -1.793923   -0.699850
  C      0.310599   -2.700094    0.499780
  C      0.418391   -2.518192   -1.993140
  N     -1.461598   -1.625143   -0.708450
  C     -2.110376   -0.554059   -1.551541
  C     -3.525432   -1.110837   -1.877548
  O     -1.445462   -0.210460   -2.652166
  C     -2.321251    0.638148   -0.589159
  N     -1.824478    1.829016   -0.645234
  N     -2.311507    2.521797    0.444576
  C     -3.071445    1.702521    1.085848
  C     -3.847184    1.961706    2.322444
  O     -3.125365    0.491607    0.495640
  N      0.664478    0.432236   -1.536843
  C      1.390605    1.574108   -1.587074
  O      1.195027    2.423625   -2.469905
  C      2.455267    1.743137   -0.520745
  O      3.169346    2.772797   -0.540377
  H      4.829117    1.586228    3.607887
  H      5.929126    2.516177    2.554125
  H      5.944933    0.732283    2.518648
  H      0.069339   -2.189625    1.432560
  H      1.370156   -2.955823    0.513396
  H     -0.275021   -3.616307    0.437535
  H      1.490990   -2.714450   -1.982744
  H     -0.113374   -3.466509   -2.065998
  H      0.176575   -1.918877   -2.869936
  H     -1.805054   -1.533620    0.242493
  H     -3.411193   -1.997957   -2.497421
  H     -4.058567   -1.375158   -0.967466
  H     -4.092357   -0.360412   -2.426462
  H     -4.909503    1.808868    2.135320
  H     -3.683465    2.985402    2.650054
  H     -3.543743    1.274516    3.111488
  H     -0.255803    0.236685   -2.170936

 Total Charge           Charge          ....   -2
 Multiplicity           Mult            ....    1
 Number of Electrons    NEL             ....  186
 Basis Dimension        Dim             ....  615

ORBITAL ENERGIES
----------------

  NO   OCC          E(Eh)            E(eV)
   0   2.0000     -19.031984      -517.8866
   1   2.0000     -18.957126      -515.8496
   2   2.0000     -18.890698      -514.0420
   3   2.0000     -18.874471      -513.6005
   4   2.0000     -18.858699      -513.1713
   5   2.0000     -18.851957      -512.9878
   6   2.0000     -14.171456      -385.6249
   7   2.0000     -14.164927      -385.4473
   8   2.0000     -14.134635      -384.6230
   9   2.0000     -14.123700      -384.3254
  10   2.0000     -14.109933      -383.9508
  11   2.0000     -10.118860      -275.3482
  12   2.0000     -10.111502      -275.1480
  13   2.0000     -10.100516      -274.8490
  14   2.0000     -10.097683      -274.7719
  15   2.0000     -10.080250      -274.2975
  16   2.0000     -10.056297      -273.6457
  17   2.0000     -10.055478      -273.6235
  18   2.0000     -10.055397      -273.6213
  19   2.0000     -10.050505      -273.4882
  20   2.0000     -10.034283      -273.0467
  21   2.0000     -10.015635      -272.5393
  22   2.0000     -10.000414      -272.1251
  23   2.0000      -9.997556      -272.0473
  24   2.0000      -9.996861      -272.0284
  25   2.0000      -1.119418       -30.4609
  26   2.0000      -1.025928       -27.9169
  27   2.0000      -0.959476       -26.1087
  28   2.0000      -0.939628       -25.5686
  29   2.0000      -0.932593       -25.3771
  30   2.0000      -0.927571       -25.2405
  31   2.0000      -0.912270       -24.8241
  32   2.0000      -0.893574       -24.3154
  33   2.0000      -0.833284       -22.6748
  34   2.0000      -0.805698       -21.9241
  35   2.0000      -0.800362       -21.7790
  36   2.0000      -0.728667       -19.8280
  37   2.0000      -0.693566       -18.8729
  38   2.0000      -0.689349       -18.7581
  39   2.0000      -0.664975       -18.0949
  40   2.0000      -0.649355       -17.6698
  41   2.0000      -0.636647       -17.3240
  42   2.0000      -0.611217       -16.6320
  43   2.0000      -0.586758       -15.9665
  44   2.0000      -0.565580       -15.3902
  45   2.0000      -0.564839       -15.3701
  46   2.0000      -0.530986       -14.4489
  47   2.0000      -0.508550       -13.8383
  48   2.0000      -0.495515       -13.4836
  49   2.0000      -0.470266       -12.7966
  50   2.0000      -0.466088       -12.6829
  51   2.0000      -0.455734       -12.4011
  52   2.0000      -0.446118       -12.1395
  53   2.0000      -0.444944       -12.1076
  54   2.0000      -0.424662       -11.5556
  55   2.0000      -0.416898       -11.3444
  56   2.0000      -0.408639       -11.1196
  57   2.0000      -0.396386       -10.7862
  58   2.0000      -0.390524       -10.6267
  59   2.0000      -0.386682       -10.5222
  60   2.0000      -0.381809       -10.3895
  61   2.0000      -0.378226       -10.2921
  62   2.0000      -0.370830       -10.0908
  63   2.0000      -0.366121        -9.9627
  64   2.0000      -0.357839        -9.7373
  65   2.0000      -0.355581        -9.6759
  66   2.0000      -0.350612        -9.5406
  67   2.0000      -0.345557        -9.4031
  68   2.0000      -0.336274        -9.1505
  69   2.0000      -0.333854        -9.0846
  70   2.0000      -0.333066        -9.0632
  71   2.0000      -0.325764        -8.8645
  72   2.0000      -0.313118        -8.5204
  73   2.0000      -0.311527        -8.4771
  74   2.0000      -0.308444        -8.3932
  75   2.0000      -0.306542        -8.3414
  76   2.0000      -0.293782        -7.9942
  77   2.0000      -0.289635        -7.8814
  78   2.0000      -0.285825        -7.7777
  79   2.0000      -0.284235        -7.7344
  80   2.0000      -0.280786        -7.6406
  81   2.0000      -0.240399        -6.5416
  82   2.0000      -0.238136        -6.4800
  83   2.0000      -0.235889        -6.4189
  84   2.0000      -0.220135        -5.9902
  85   2.0000      -0.210022        -5.7150
  86   2.0000      -0.208248        -5.6667
  87   2.0000      -0.196917        -5.3584
  88   2.0000      -0.183831        -5.0023
  89   2.0000      -0.181259        -4.9323
  90   2.0000      -0.166479        -4.5301
  91   2.0000      -0.143806        -3.9132
  92   2.0000      -0.136461        -3.7133
  93   0.0000      -0.031983        -0.8703
  94   0.0000      -0.018482        -0.5029
  95   0.0000       0.013177         0.3586
  96   0.0000       0.021777         0.5926
  97   0.0000       0.057038         1.5521

MULLIKEN ATOMIC CHARGES
-----------------------
   0 C :   -0.337067
   1 O :   -0.150402
   2 C :    0.115982
   3 O :   -0.444766
   4 C :   -0.059670
   5 N :   -0.143003
   6 C :    0.031584
   7 C :    0.275520
   8 C :   -0.615722
   9 C :   -0.668146
  10 N :   -0.444793
  11 C :    0.058272
  12 C :   -0.641328
  13 O :   -0.602272
  14 C :    0.179461
  15 N :   -0.084445
  16 N :   -0.372882
  17 C :    0.380580
  18 C :   -0.654938
  19 O :   -0.078140
  20 N :   -0.014507
  21 C :   -0.101743
  22 O :   -0.415398
  23 C :   -0.116717
  24 O :   -0.373027
  25 H :    0.158564
  26 H :    0.158984
  27 H :    0.158001
  28 H :    0.175016
  29 H :    0.180464
  30 H :    0.163903
  31 H :    0.164800
  32 H :    0.168471
  33 H :    0.191511
  34 H :    0.295325
  35 H :    0.170970
  36 H :    0.160820
  37 H :    0.168953
  38 H :    0.190946
  39 H :    0.197336
  40 H :    0.191542
  41 H :    0.381962
Sum of atomic charges:   -2.0000000

LOEWDIN ATOMIC CHARGES
----------------------
   0 C :   -0.062032
   1 O :   -0.615174
   2 C :    0.382881
   3 O :   -0.501829
   4 C :    0.098643
   5 N :   -0.645163
   6 C :    0.299368
   7 C :    0.085973
   8 C :   -0.362171
   9 C :   -0.372142
  10 N :   -0.738075
  11 C :    0.253273
  12 C :   -0.362674
  13 O :   -0.722517
  14 C :    0.399659
  15 N :   -0.373429
  16 N :   -0.398394
  17 C :    0.346380
  18 C :   -0.327092
  19 O :   -0.417641
  20 N :   -0.540157
  21 C :    0.330502
  22 O :   -0.519279
  23 C :    0.218834
  24 O :   -0.595621
  25 H :    0.170092
  26 H :    0.174131
  27 H :    0.170098
  28 H :    0.166731
  29 H :    0.169130
  30 H :    0.158252
  31 H :    0.158050
  32 H :    0.160246
  33 H :    0.177381
  34 H :    0.269188
  35 H :    0.164108
  36 H :    0.162189
  37 H :    0.160852
  38 H :    0.184494
  39 H :    0.185655
  40 H :    0.184452
  41 H :    0.322825

  Mayer bond orders larger than 0.100000
B(  0-C ,  1-O ) :   0.8544 B(  0-C , 25-H ) :   0.9644 B(  0-C , 26-H ) :   0.9708
B(  0-C , 27-H ) :   0.9641 B(  1-O ,  2-C ) :   1.1009 B(  2-C ,  3-O ) :   1.8742
B(  2-C ,  4-C ) :   1.1884 B(  4-C ,  5-N ) :   0.8597 B(  4-C , 23-C ) :   0.9265
B(  4-C , 24-O ) :  -0.1226 B(  5-N ,  6-C ) :   1.8929 B(  5-N ,  7-C ) :  -0.1191
B(  5-N ,  8-C ) :   0.1013 B(  6-C ,  7-C ) :   0.7496 B(  6-C , 10-N ) :  -0.1184
B(  6-C , 20-N ) :   1.1332 B(  7-C ,  8-C ) :   0.9422 B(  7-C ,  9-C ) :   0.8325
B(  7-C , 10-N ) :   0.9777 B(  8-C , 28-H ) :   0.9709 B(  8-C , 29-H ) :   0.9819
B(  8-C , 30-H ) :   0.9749 B(  9-C , 31-H ) :   0.9794 B(  9-C , 32-H ) :   0.9755
B(  9-C , 33-H ) :   0.9755 B( 10-N , 11-C ) :   0.6529 B( 10-N , 34-H ) :   0.8862
B( 11-C , 12-C ) :   0.9045 B( 11-C , 13-O ) :   1.4249 B( 11-C , 14-C ) :   0.8283
B( 11-C , 20-N ) :   0.1544 B( 12-C , 35-H ) :   0.9894 B( 12-C , 36-H ) :   0.9697
B( 12-C , 37-H ) :   0.9911 B( 13-O , 41-H ) :   0.1909 B( 14-C , 15-N ) :   1.8138
B( 14-C , 19-O ) :   1.0256 B( 15-N , 16-N ) :   1.2407 B( 16-N , 17-C ) :   1.6996
B( 17-C , 18-C ) :   0.8152 B( 17-C , 19-O ) :   1.0808 B( 18-C , 38-H ) :   0.9496
B( 18-C , 39-H ) :   0.9960 B( 18-C , 40-H ) :   0.9507 B( 20-N , 21-C ) :   1.0126
B( 20-N , 41-H ) :   0.6498 B( 21-C , 22-O ) :   2.0838 B( 21-C , 23-C ) :   0.8616
B( 23-C , 24-O ) :   2.0164

Dispersion correction           -0.020492457
FINAL SINGLE POINT ENERGY     -1268.876454797399

DIPOLE MOMENT
-------------
                                X             Y             Z
Electronic contribution:      5.93823      14.21965      -2.60373
Nuclear contribution   :    -10.15029     -17.22659       6.47122
                        -----------------------------------------
Total Dipole Moment    :     -4.21206      -3.00695       3.86749
                        -----------------------------------------
Magnitude (a.u.)       :      6.46070
Magnitude (Debye)      :     16.42179

Rotational constants in cm-1:     0.010813     0.005160     0.004737
Rotational constants in MHz :   324.177571   154.694848   142.026583

                             ****ORCA TERMINATED NORMALLY****
TOTAL RUN TIME: 0 days 0 hours 3 minutes 7 seconds 637 msec
