   * xtb version 6.5.1 (579679a) compiled by 'ehlert@majestix' on 2022-07-11
          program call               : /lustre/hpc/kemi/ree/PhD/git/ReactivityQM/dep/xtb-6.5.1/bin/xtb --gfn 1 /lustre/hpc/kemi/ree/PhD/git/ReactivityQM/calculations/R02methylcation/reac01prodE01/conf06/R02methylcation_reac01prodE01_conf06_gfn1.xyz --opt --vfukui --chrg -2 --uhf 0 --alpb DMSO

   ID    Z sym.   atoms
    1    6 C      1, 3, 5, 7-10, 12, 13, 15, 18, 19, 22, 24
    2    8 O      2, 4, 14, 20, 23, 25
    3    7 N      6, 11, 16, 17, 21
    4    1 H      26-42

      * Solvation model:               ALPB
        Solvent                        DMSO
        Solvent mass                       7.8130E+01 g/mol
          :  Hamiltonian                  GFN1-xTB          :
 * total energy  :   -83.6286189 Eh     change       -0.1497824E-10 Eh
 * total energy  :   -83.6420402 Eh     change       -0.1342126E-01 Eh
 * total energy  :   -83.6471804 Eh     change       -0.5140202E-02 Eh
 * total energy  :   -83.6483513 Eh     change       -0.1170972E-02 Eh
 * total energy  :   -83.6490749 Eh     change       -0.7235882E-03 Eh
 * total energy  :   -83.6495647 Eh     change       -0.4897964E-03 Eh
 * total energy  :   -83.6500998 Eh     change       -0.5351382E-03 Eh
 * total energy  :   -83.6506957 Eh     change       -0.5958339E-03 Eh
 * total energy  :   -83.6512457 Eh     change       -0.5500535E-03 Eh
 * total energy  :   -83.6515993 Eh     change       -0.3535479E-03 Eh
 * total energy  :   -83.6576089 Eh     change       -0.1478662E-04 Eh
 * total energy  :   -83.6576210 Eh     change       -0.1211073E-04 Eh
 * total energy  :   -83.6576304 Eh     change       -0.9465818E-05 Eh
 * total energy  :   -83.6576390 Eh     change       -0.8555283E-05 Eh
 * total energy  :   -83.6576466 Eh     change       -0.7553749E-05 Eh
 * total energy  :   -83.6576531 Eh     change       -0.6550096E-05 Eh
 * total energy  :   -83.6576588 Eh     change       -0.5729853E-05 Eh
 * total energy  :   -83.6576640 Eh     change       -0.5116209E-05 Eh
 * total energy  :   -83.6576689 Eh     change       -0.4974765E-05 Eh
   *** GEOMETRY OPTIMIZATION CONVERGED AFTER 117 ITERATIONS ***

 final structure:
================
42
 xtb: 6.5.1 (579679a)
C            5.31236171257966        1.62041053204713        2.62539040656753
O            4.35228046859683        1.68684636762369        1.58695609162228
C            3.48488557183834        0.62895768897027        1.51578618294093
O            3.56696357808645       -0.27904478669656        2.34358512792765
C            2.53580225886670        0.69003576759749        0.42763380609821
N            1.70239857848727       -0.42203657032389        0.37068070651303
C            0.82491041042184       -0.51458463165908       -0.56883109429085
C           -0.00137343946949       -1.79392329832315       -0.69984973833869
C            0.31059901657401       -2.70009366317612        0.49978003001428
C            0.41839114868579       -2.51819231268858       -1.99314037405894
N           -1.46159759564403       -1.62514288599925       -0.70844985464860
C           -2.11037601477828       -0.55405920939440       -1.55154111896125
C           -3.52543214086387       -1.11083661686615       -1.87754826717367
O           -1.44546161957808       -0.21046041372867       -2.65216557338261
C           -2.32125124055063        0.63814802447368       -0.58915898234880
N           -1.82447842295127        1.82901632446271       -0.64523403823697
N           -2.31150740617940        2.52179671577338        0.44457643722777
C           -3.07144459771356        1.70252119688020        1.08584775165694
C           -3.84718430430103        1.96170601482063        2.32244444895603
O           -3.12536542497176        0.49160731603388        0.49563982205111
N            0.66447772303912        0.43223642082367       -1.53684279467114
C            1.39060534729233        1.57410755913178       -1.58707372199287
O            1.19502728076251        2.42362538675885       -2.46990536846895
C            2.45526736094179        1.74313690833803       -0.52074509896223
O            3.16934554008070        2.77279706028859       -0.54037740176697
H            4.82911733743502        1.58622834918590        3.60788715082009
H            5.92912567481954        2.51617726142942        2.55412482661739
H            5.94493339221672        0.73228315703458        2.51864810406490
H            0.06933877562721       -2.18962499918201        1.43255990432581
H            1.37015585439700       -2.95582312975943        0.51339625718476
H           -0.27502073238670       -3.61630690471005        0.43753531968378
H            1.49099045957772       -2.71444952314960       -1.98274396964623
H           -0.11337396507187       -3.46650853321938       -2.06599836907070
H            0.17657481830995       -1.91887672733713       -2.86993638559153
H           -1.80505425653920       -1.53361958410952        0.24249286239080
H           -3.41119308640580       -1.99795660529454       -2.49742140119564
H           -4.05856742296962       -1.37515792163580       -0.96746586038580
H           -4.09235692622609       -0.36041159593820       -2.42646234190767
H           -4.90950290564938        1.80886797914848        2.13531961583316
H           -3.68346515323346        2.98540160014273        2.65005381328042
H           -3.54374318320443        1.27451632898418        3.11148754088436
H           -0.25580346990472        0.23668495324808       -2.17093645156820

          :  Hamiltonian                  GFN1-xTB          :
         :: total energy             -83.657668929369 Eh    ::
         :: gradient norm              0.000309984364 Eh/a0 ::
         :: HOMO-LUMO gap              2.531068916072 eV    ::
         :: SCC energy               -84.377204738186 Eh    ::
         :: -> Gsolv                  -0.289487092565 Eh    ::
         :: repulsion energy           0.747481491901 Eh    ::

    * Orbital Energies and Occupations

         #    Occupation            Energy/Eh            Energy/eV
      -------------------------------------------------------------
         1        2.0000           -0.8225541             -22.3828
       ...           ...                  ...                  ...
        56        2.0000           -0.4430725             -12.0566
        57        2.0000           -0.4373337             -11.9005
        58        2.0000           -0.4228259             -11.5057
        59        2.0000           -0.4171342             -11.3508
        60        2.0000           -0.4161048             -11.3228
        61        2.0000           -0.4128388             -11.2339
        62        2.0000           -0.3968405             -10.7986
        63        2.0000           -0.3867023             -10.5227
        64        2.0000           -0.3817041             -10.3867
        65        2.0000           -0.3718014             -10.1172
        66        2.0000           -0.3540964              -9.6355
        67        2.0000           -0.3393389              -9.2339
        68        2.0000           -0.3348406              -9.1115 (HOMO)
        69                         -0.2418255              -6.5804 (LUMO)
        70                         -0.2293799              -6.2417
        71                         -0.2127563              -5.7894
        72                         -0.2018700              -5.4932
        73                         -0.1673649              -4.5542
        74                         -0.1287596              -3.5037
        75                         -0.1150409              -3.1304
        76                         -0.0933523              -2.5402
        77                         -0.0920469              -2.5047
        78                         -0.0889043              -2.4192
        79                         -0.0793853              -2.1602
       ...                                ...                  ...
       134                          0.7650297              20.8175
      -------------------------------------------------------------
                  HL-Gap            0.0930151 Eh            2.5311 eV

Wiberg/Mayer (AO) data.
largest (>0.10) Wiberg bond orders for each atom

     #   Z sym  total        # sym  WBO       # sym  WBO       # sym  WBO
 ---------------------------------------------------------------------------
     1   6 C    3.909 --    27 H    0.987    28 H    0.980    26 H    0.980
                             2 O    0.936
     2   8 O    2.140 --     3 C    1.018     1 C    0.936     4 O    0.101
     3   6 C    3.846 --     4 O    1.550     5 C    1.151     2 O    1.018
     4   8 O    1.831 --     3 C    1.550     2 O    0.101
     5   6 C    3.918 --    24 C    1.277     3 C    1.151     6 N    1.137
                            25 O    0.122
     6   7 N    3.012 --     7 C    1.605     5 C    1.137
     7   6 C    3.943 --     6 N    1.605    21 N    1.165     8 C    0.965
     8   6 C    3.964 --     9 C    0.999    10 C    0.985     7 C    0.965
                            11 N    0.961
     9   6 C    3.997 --     8 C    0.999    31 H    0.988    30 H    0.985
                            29 H    0.984
    10   6 C    3.994 --    32 H    0.989    33 H    0.986     8 C    0.985
                            34 H    0.979
    11   7 N    2.996 --     8 C    0.961    35 H    0.945    12 C    0.885
    12   6 C    3.938 --    14 O    1.127    13 C    0.953    15 C    0.916
                            11 N    0.885
    13   6 C    3.995 --    37 H    0.990    38 H    0.988    36 H    0.986
                            12 C    0.953
    14   8 O    1.688 --    12 C    1.127    42 H    0.280
    15   6 C    3.828 --    16 N    1.665    20 O    1.035    12 C    0.916
    16   7 N    2.978 --    15 C    1.665    17 N    1.149
    17   7 N    2.977 --    18 C    1.658    16 N    1.149
    18   6 C    3.885 --    17 N    1.658    20 O    1.060    19 C    1.025
    19   6 C    3.992 --    18 C    1.025    40 H    0.985    41 H    0.970
                            39 H    0.969
    20   8 O    2.290 --    18 C    1.060    15 C    1.035
    21   7 N    3.399 --    22 C    1.232     7 C    1.165    42 H    0.620
                            23 O    0.138
    22   6 C    3.898 --    23 O    1.523    21 N    1.232    24 C    0.972
    23   8 O    1.801 --    22 C    1.523    21 N    0.138
    24   6 C    3.940 --    25 O    1.492     5 C    1.277    22 C    0.972
    25   8 O    1.790 --    24 C    1.492     5 C    0.122
    26   1 H    1.017 --     1 C    0.980
    27   1 H    1.018 --     1 C    0.987
    28   1 H    1.017 --     1 C    0.980
    29   1 H    1.015 --     9 C    0.984
    30   1 H    1.019 --     9 C    0.985
    31   1 H    1.008 --     9 C    0.988
    32   1 H    1.008 --    10 C    0.989
    33   1 H    1.012 --    10 C    0.986
    34   1 H    1.026 --    10 C    0.979
    35   1 H    0.978 --    11 N    0.945
    36   1 H    1.018 --    13 C    0.986
    37   1 H    1.012 --    13 C    0.990
    38   1 H    1.013 --    13 C    0.988
    39   1 H    1.002 --    19 C    0.969
    40   1 H    1.002 --    19 C    0.985
    41   1 H    1.001 --    19 C    0.970
    42   1 H    0.936 --    21 N    0.620    14 O    0.280
 ---------------------------------------------------------------------------

           -------------------------------------------------
          | TOTAL ENERGY              -83.657668929369 Eh   |
          | GRADIENT NORM               0.000309984364 Eh/α |
          | HOMO-LUMO GAP               2.531068916072 eV   |
           -------------------------------------------------

 * finished run on 2023/06/21 at 17:04:04.599
