   * xtb version 6.5.1 (579679a) compiled by 'ehlert@majestix' on 2022-07-11
          program call               : /lustre/hpc/kemi/ree/PhD/git/ReactivityQM/dep/xtb-6.5.1/bin/xtb --gfn 1 /lustre/hpc/kemi/ree/PhD/git/ReactivityQM/calculations/R03/reac02prodN03/conf03/R03_reac02prodN03_conf03_gfn1.xyz --opt --vfukui --chrg 1 --uhf 0 --alpb DMSO

   ID    Z sym.   atoms
    1    6 C      1, 3, 5, 6, 8-11, 13, 15, 18, 19, 22, 23, 25
    2    8 O      2, 4, 14, 20, 24, 26
    3    7 N      7, 12, 16, 17, 21
    4    1 H      27-46

      * Solvation model:               ALPB
        Solvent                        DMSO
        Solvent mass                       7.8130E+01 g/mol
          :  Hamiltonian                  GFN1-xTB          :
 * total energy  :   -86.3087496 Eh     change       -0.1331557E-10 Eh
 * total energy  :   -86.3342225 Eh     change       -0.2547294E-01 Eh
 * total energy  :   -86.3420624 Eh     change       -0.7839826E-02 Eh
 * total energy  :   -86.3440018 Eh     change       -0.1939421E-02 Eh
 * total energy  :   -86.3449916 Eh     change       -0.9897812E-03 Eh
 * total energy  :   -86.3453649 Eh     change       -0.3732969E-03 Eh
 * total energy  :   -86.3456986 Eh     change       -0.3337881E-03 Eh
 * total energy  :   -86.3459376 Eh     change       -0.2389461E-03 Eh
 * total energy  :   -86.3460988 Eh     change       -0.1612110E-03 Eh
 * total energy  :   -86.3462051 Eh     change       -0.1063133E-03 Eh
 * total energy  :   -86.3468696 Eh     change       -0.1285244E-04 Eh
 * total energy  :   -86.3468860 Eh     change       -0.1639747E-04 Eh
 * total energy  :   -86.3468965 Eh     change       -0.1053114E-04 Eh
 * total energy  :   -86.3469150 Eh     change       -0.1845873E-04 Eh
 * total energy  :   -86.3469245 Eh     change       -0.9457484E-05 Eh
 * total energy  :   -86.3469330 Eh     change       -0.8517380E-05 Eh
 * total energy  :   -86.3469391 Eh     change       -0.6149220E-05 Eh
 * total energy  :   -86.3469494 Eh     change       -0.1030180E-04 Eh
 * total energy  :   -86.3469537 Eh     change       -0.4277875E-05 Eh
   *** GEOMETRY OPTIMIZATION CONVERGED AFTER 41 ITERATIONS ***

 final structure:
================
46
 xtb: 6.5.1 (579679a)
C            6.05810352194824        0.41020441444096        0.98039765453959
O            4.83389859125513        0.70832060733899        0.28503217888145
C            3.78488902147308       -0.01143978105855        0.48110488253458
O            3.91485496196963       -0.98598629941398        1.31311266654473
C            2.89512115851343       -1.90126681819473        1.73810904397612
C            2.58711085434808        0.35768011401602       -0.24379425037733
N            1.50356978675111       -0.48257072996545       -0.17757086086585
C            0.39322822851674       -0.21342431559565       -0.79240596612678
C           -0.70528539726378       -1.26664038431622       -0.71394560728387
C           -0.32899203562513       -2.36033959470058        0.29203221553339
C           -0.89510673182237       -1.89328693366710       -2.10432579664371
N           -1.92631859621791       -0.61148949356211       -0.23519837914747
C           -3.11494305582725       -1.26407005074032       -0.13097084280710
O           -3.35692285568250       -2.36703974082055       -0.58215435705368
C           -4.12948532304869       -0.45262425258023        0.58112248288572
N           -5.35894352008761       -0.76496733035290        0.84686842157823
N           -5.89497487590300        0.28755019024420        1.52441913368023
C           -4.95967292961884        1.17929214128751        1.63201659925034
C           -5.03942770693005        2.50627875241917        2.27959990507888
O           -3.81570756121569        0.77367548811037        1.05568006164954
N            0.23103984341088        0.92985241632646       -1.53315612575781
C           -0.99065962145698        1.33510071487438       -2.24127971621883
C            1.26014983948274        1.83270794758275       -1.69191562566473
O            1.15850277164411        2.84670526186625       -2.36286415461748
C            2.50806392709218        1.50868972570533       -0.99970504335053
O            3.48438995981541        2.38015109715479       -1.14930919710758
H            6.77945254634481        1.15025074888220        0.64139132573759
H            6.38308905223455       -0.59929941384293        0.72668526796891
H            5.89297838143414        0.48731580703712        2.05547542403944
H            2.02127749499702       -1.35309284104640        2.08655957748095
H            2.62167235637349       -2.55252128725709        0.90866650188913
H            3.34153486673908       -2.47654138500514        2.54820950752702
H            0.57463107845750       -2.87046375954724       -0.03410816374189
H           -0.16285410897329       -1.92402452820483        1.27449452350748
H           -1.14034372301091       -3.08414829214122        0.35644359163927
H           -1.35560540510820       -1.19432698379299       -2.79735036432994
H            0.07878217558019       -2.18706610761322       -2.49332898933941
H           -1.52505814996192       -2.77783835939768       -2.02874075816005
H           -1.79555127780832        0.19567417666267        0.35260041613265
H           -4.93871373567318        3.28986358061561        1.52921290699734
H           -5.99491861203786        2.61136719933700        2.78778863194918
H           -4.22583713882820        2.61930564552403        2.99407795787470
H           -1.15649894779180        2.39128566323922       -2.02963460489483
H           -0.83074742018355        1.20632501677457       -3.31174047270949
H           -1.84095830511323        0.75378067437107       -1.90747330240358
H            3.17718561680592        3.12343529900772       -1.71013130027633

          :  Hamiltonian                  GFN1-xTB          :
         :: total energy             -86.346953710885 Eh    ::
         :: gradient norm              0.000978981927 Eh/a0 ::
         :: HOMO-LUMO gap              1.999235662428 eV    ::
         :: SCC energy               -87.177364847222 Eh    ::
         :: -> Gsolv                  -0.112541483222 Eh    ::
         :: repulsion energy           0.859837839794 Eh    ::

    * Orbital Energies and Occupations

         #    Occupation            Energy/Eh            Energy/eV
      -------------------------------------------------------------
         1        2.0000           -0.9122701             -24.8241
       ...           ...                  ...                  ...
        58        2.0000           -0.5256855             -14.3046
        59        2.0000           -0.5192269             -14.1289
        60        2.0000           -0.5133509             -13.9690
        61        2.0000           -0.5093542             -13.8602
        62        2.0000           -0.5026631             -13.6782
        63        2.0000           -0.4921866             -13.3931
        64        2.0000           -0.4843557             -13.1800
        65        2.0000           -0.4804323             -13.0732
        66        2.0000           -0.4729021             -12.8683
        67        2.0000           -0.4663202             -12.6892
        68        2.0000           -0.4610851             -12.5468
        69        2.0000           -0.4569561             -12.4344
        70        2.0000           -0.4535623             -12.3421 (HOMO)
        71                         -0.3800917             -10.3428 (LUMO)
        72                         -0.3184577              -8.6657
        73                         -0.3169675              -8.6251
        74                         -0.2902341              -7.8977
        75                         -0.2603951              -7.0857
        76                         -0.2056587              -5.5963
        77                         -0.1974977              -5.3742
        78                         -0.1703264              -4.6348
        79                         -0.1613416              -4.3903
        80                         -0.1497387              -4.0746
        81                         -0.1437899              -3.9127
       ...                                ...                  ...
       144                          0.7286086              19.8264
      -------------------------------------------------------------
                  HL-Gap            0.0734706 Eh            1.9992 eV

Wiberg/Mayer (AO) data.
largest (>0.10) Wiberg bond orders for each atom

     #   Z sym  total        # sym  WBO       # sym  WBO       # sym  WBO
 ---------------------------------------------------------------------------
     1   6 C    3.824 --    27 H    0.982    28 H    0.973    29 H    0.972
                             2 O    0.855
     2   8 O    2.310 --     3 C    1.262     1 C    0.855
     3   6 C    3.815 --     2 O    1.262     4 O    1.252     6 C    1.115
     4   8 O    2.309 --     3 C    1.252     5 C    0.850
     5   6 C    3.815 --    32 H    0.978    30 H    0.972    31 H    0.969
                             4 O    0.850
     6   6 C    3.956 --    25 C    1.415     7 N    1.163     3 C    1.115
     7   7 N    3.036 --     8 C    1.567     6 C    1.163
     8   6 C    3.920 --     7 N    1.567    21 N    1.174     9 C    0.976
     9   6 C    3.935 --    10 C    0.990    11 C    0.979     8 C    0.976
                            12 N    0.927
    10   6 C    3.987 --     9 C    0.990    34 H    0.983    33 H    0.981
                            35 H    0.979
    11   6 C    3.984 --    37 H    0.984    36 H    0.981     9 C    0.979
                            38 H    0.975
    12   7 N    3.325 --    13 C    1.218     9 C    0.927    39 H    0.893
                            14 O    0.167
    13   6 C    3.912 --    14 O    1.608    12 N    1.218    15 C    0.997
    14   8 O    1.921 --    13 C    1.608    12 N    0.167
    15   6 C    3.874 --    16 N    1.621    20 O    1.045    13 C    0.997
    16   7 N    3.002 --    15 C    1.621    17 N    1.201
    17   7 N    2.982 --    18 C    1.608    16 N    1.201
    18   6 C    3.867 --    17 N    1.608    20 O    1.072    19 C    1.032
    19   6 C    3.985 --    18 C    1.032    41 H    0.982    42 H    0.965
                            40 H    0.959
    20   8 O    2.315 --    18 C    1.072    15 C    1.045
    21   7 N    3.525 --     8 C    1.174    23 C    1.145    22 C    0.915
                            24 O    0.142
    22   6 C    3.903 --    45 H    0.974    44 H    0.972    43 H    0.972
                            21 N    0.915
    23   6 C    3.918 --    24 O    1.589    21 N    1.145    25 C    1.045
    24   8 O    1.933 --    23 C    1.589    21 N    0.142
    25   6 C    3.913 --     6 C    1.415    26 O    1.173    23 C    1.045
    26   8 O    2.145 --    25 C    1.173    46 H    0.781
    27   1 H    1.002 --     1 C    0.982
    28   1 H    0.998 --     1 C    0.973
    29   1 H    0.998 --     1 C    0.972
    30   1 H    1.012 --     5 C    0.972
    31   1 H    1.012 --     5 C    0.969
    32   1 H    1.001 --     5 C    0.978
    33   1 H    1.006 --    10 C    0.981
    34   1 H    1.004 --    10 C    0.983
    35   1 H    1.003 --    10 C    0.979
    36   1 H    1.000 --    11 C    0.981
    37   1 H    1.000 --    11 C    0.984
    38   1 H    1.009 --    11 C    0.975
    39   1 H    0.937 --    12 N    0.893
    40   1 H    0.996 --    19 C    0.959
    41   1 H    0.998 --    19 C    0.982
    42   1 H    0.996 --    19 C    0.965
    43   1 H    1.000 --    22 C    0.972
    44   1 H    0.998 --    22 C    0.972
    45   1 H    1.008 --    22 C    0.974
    46   1 H    0.824 --    26 O    0.781
 ---------------------------------------------------------------------------

           -------------------------------------------------
          | TOTAL ENERGY              -86.346953710885 Eh   |
          | GRADIENT NORM               0.000978981927 Eh/α |
          | HOMO-LUMO GAP               1.999235662428 eV   |
           -------------------------------------------------

 * finished run on 2023/06/20 at 15:38:35.765
