   * xtb version 6.5.1 (579679a) compiled by 'ehlert@majestix' on 2022-07-11
          program call               : /lustre/hpc/kemi/ree/PhD/git/ReactivityQM/dep/xtb-6.5.1/bin/xtb --gfn 1 /lustre/hpc/kemi/ree/PhD/git/ReactivityQM/calculations/R03/reac02prodN12/conf05/R03_reac02prodN12_conf05_gfn1.xyz --opt --vfukui --chrg 1 --uhf 0 --alpb DMSO

   ID    Z sym.   atoms
    1    6 C      1, 3, 5, 7-10, 12, 14, 15, 18, 19, 22, 23, 25
    2    8 O      2, 4, 13, 20, 24, 26
    3    7 N      6, 11, 16, 17, 21
    4    1 H      27-46

      * Solvation model:               ALPB
        Solvent                        DMSO
        Solvent mass                       7.8130E+01 g/mol
          :  Hamiltonian                  GFN1-xTB          :
 * total energy  :   -86.2877805 Eh     change       -0.4970389E-09 Eh
 * total energy  :   -86.3032672 Eh     change       -0.1548678E-01 Eh
 * total energy  :   -86.3097004 Eh     change       -0.6433188E-02 Eh
 * total energy  :   -86.3112306 Eh     change       -0.1530122E-02 Eh
 * total energy  :   -86.3122794 Eh     change       -0.1048823E-02 Eh
 * total energy  :   -86.3128521 Eh     change       -0.5727514E-03 Eh
 * total energy  :   -86.3133548 Eh     change       -0.5026868E-03 Eh
 * total energy  :   -86.3137959 Eh     change       -0.4410514E-03 Eh
 * total energy  :   -86.3140975 Eh     change       -0.3015996E-03 Eh
 * total energy  :   -86.3142954 Eh     change       -0.1979078E-03 Eh
 * total energy  :   -86.3177421 Eh     change       -0.1429557E-04 Eh
 * total energy  :   -86.3177578 Eh     change       -0.1570977E-04 Eh
 * total energy  :   -86.3177770 Eh     change       -0.1917788E-04 Eh
 * total energy  :   -86.3177983 Eh     change       -0.2132301E-04 Eh
 * total energy  :   -86.3178150 Eh     change       -0.1665940E-04 Eh
 * total energy  :   -86.3178281 Eh     change       -0.1308423E-04 Eh
 * total energy  :   -86.3178376 Eh     change       -0.9576740E-05 Eh
 * total energy  :   -86.3178460 Eh     change       -0.8409864E-05 Eh
 * total energy  :   -86.3178494 Eh     change       -0.3323768E-05 Eh
   *** GEOMETRY OPTIMIZATION CONVERGED AFTER 68 ITERATIONS ***

 final structure:
================
46
 xtb: 6.5.1 (579679a)
C           -6.00933086958307        1.39925188304027        2.46682625266002
O           -5.05117573103515        1.31878388802955        1.40568378412712
C           -4.03214259302989        0.48530776842202        1.58612415693333
O           -3.89026546153896       -0.19202667582707        2.57812265759585
C           -3.07276249201060        0.47107018946694        0.44065253580087
N           -2.00243837277844       -0.35953805413623        0.62997109338965
C           -1.07240734642506       -0.49111684323602       -0.25542936148082
C            0.03382441156506       -1.47227383700054        0.10330980923564
C           -0.12964068929216       -2.77450766763452       -0.68965570262402
C           -0.00449104536684       -1.76303460778575        1.60823540977176
N            1.33401416290316       -0.82106206324482       -0.19883934141507
C            2.48195767339289       -1.46197663171729       -0.09709936224893
O            2.70765839799106       -2.59745029286897        0.21649319941022
C            3.74273284266097       -0.55556638497375       -0.53100582374816
C            4.40451949353331       -1.28518355498332       -1.69983021218311
N            4.54439155349518       -0.39384517344574        0.61135129375386
N            4.61317812231266        0.83369793062660        0.92089790880066
C            3.89636278486182        1.53793374886228       -0.00340878152420
C            3.73694680072928        2.98713797770362       -0.03186980177751
O            3.36047173083757        0.75217549821629       -0.87318157349569
N           -1.10974356375444        0.17799986211240       -1.45384352979574
C           -0.10661047080824        0.09655689983087       -2.51645187387597
C           -2.13323889744967        1.06975803584459       -1.73454201861068
O           -2.17239010590838        1.70698781060290       -2.77911274819604
C           -3.16537084896668        1.19835249370395       -0.71333320771504
O           -4.14870775193725        2.05189988171805       -1.00209819755227
H           -6.73802833726176        2.15131918718691        2.17065031121121
H           -6.49625265696480        0.43101678695598        2.60608021188290
H           -5.51484637825573        1.69294782106449        3.39581786757848
H           -1.14500031450795       -3.14273093229959       -0.54803556060192
H            0.57085366746039       -3.52528918288160       -0.32893254968228
H            0.04219193971400       -2.61959941807581       -1.75137933446602
H           -0.95433963773422       -2.22932634767543        1.86547039036258
H            0.80806303166393       -2.43719188462044        1.87206962889674
H            0.09836304676653       -0.83578038381789        2.16869893750913
H            1.33136667208537        0.16049545873453       -0.41283686117972
H            3.70145427367847       -1.34214092309175       -2.52721215834582
H            4.67830729658028       -2.28625331310483       -1.37162579586040
H            5.28801709877157       -0.72918393581327       -2.00536565403752
H            4.72096617406495        3.44615832702718       -0.16269183926363
H            3.35470810929756        3.33502239417750        0.93023942404944
H            3.07553800997741        3.28755251987912       -0.84066695276194
H           -0.63153127604577        0.08056191746485       -3.47178793063795
H            0.52457734543298        0.98316530913765       -2.47296239606472
H            0.49971781492494       -0.79354124022361       -2.41291978331350
H           -3.96946561403383        2.45346575863787       -1.87333452053102

          :  Hamiltonian                  GFN1-xTB          :
         :: total energy             -86.317849370066 Eh    ::
         :: gradient norm              0.000229110598 Eh/a0 ::
         :: HOMO-LUMO gap              0.298123928598 eV    ::
         :: SCC energy               -87.148860816528 Eh    ::
         :: -> Gsolv                  -0.123555854736 Eh    ::
         :: repulsion energy           0.861105147445 Eh    ::

    * Orbital Energies and Occupations

         #    Occupation            Energy/Eh            Energy/eV
      -------------------------------------------------------------
         1        2.0000           -0.9376342             -25.5143
       ...           ...                  ...                  ...
        58        2.0000           -0.5309341             -14.4475
        59        2.0000           -0.5247511             -14.2792
        60        2.0000           -0.5209155             -14.1748
        61        2.0000           -0.5172452             -14.0750
        62        2.0000           -0.5157312             -14.0338
        63        2.0000           -0.5036761             -13.7057
        64        2.0000           -0.5003845             -13.6162
        65        2.0000           -0.4941122             -13.4455
        66        2.0000           -0.4917524             -13.3813
        67        2.0000           -0.4850164             -13.1980
        68        2.0000           -0.4698019             -12.7840
        69        2.0000           -0.4580716             -12.4648
        70        1.9938           -0.4395570             -11.9610 (HOMO)
        71        0.0062           -0.4286012             -11.6628 (LUMO)
        72                         -0.3321021              -9.0370
        73                         -0.3316087              -9.0235
        74                         -0.3025008              -8.2315
        75                         -0.2969003              -8.0791
        76                         -0.2477278              -6.7410
        77                         -0.1780930              -4.8462
        78                         -0.1668732              -4.5409
        79                         -0.1614599              -4.3935
        80                         -0.1516417              -4.1264
        81                         -0.1423243              -3.8728
       ...                                ...                  ...
       144                          0.7270774              19.7848
      -------------------------------------------------------------
                  HL-Gap            0.0109559 Eh            0.2981 eV

Wiberg/Mayer (AO) data.
largest (>0.10) Wiberg bond orders for each atom

     #   Z sym  total        # sym  WBO       # sym  WBO       # sym  WBO
 ---------------------------------------------------------------------------
     1   6 C    3.869 --    27 H    0.986    29 H    0.980    28 H    0.979
                             2 O    0.894
     2   8 O    2.208 --     3 C    1.122     1 C    0.894     4 O    0.136
     3   6 C    3.853 --     4 O    1.659     2 O    1.122     5 C    0.994
     4   8 O    1.921 --     3 C    1.659     2 O    0.136
     5   6 C    3.956 --    25 C    1.490     6 N    1.186     3 C    0.994
     6   7 N    3.032 --     7 C    1.579     5 C    1.186
     7   6 C    3.929 --     6 N    1.579    21 N    1.166     8 C    0.975
     8   6 C    3.905 --    10 C    0.992     9 C    0.984     7 C    0.975
                            11 N    0.877
     9   6 C    3.983 --     8 C    0.984    30 H    0.981    32 H    0.977
                            31 H    0.976
    10   6 C    3.985 --     8 C    0.992    35 H    0.984    34 H    0.982
                            33 H    0.980
    11   7 N    3.382 --    12 C    1.352    36 H    0.883     8 C    0.877
                            13 O    0.179
    12   6 C    3.908 --    13 O    1.664    11 N    1.352    14 C    0.741
    13   8 O    2.058 --    12 C    1.664    11 N    0.179
    14   6 C    3.838 --    16 N    1.110    15 C    0.914    20 O    0.908
                            12 C    0.741
    15   6 C    3.947 --    37 H    0.979    39 H    0.974    38 H    0.974
                            14 C    0.914
    16   7 N    2.995 --    17 N    1.623    14 C    1.110
    17   7 N    3.015 --    16 N    1.623    18 C    1.223
    18   6 C    3.801 --    20 O    1.265    17 N    1.223    19 C    1.079
    19   6 C    3.963 --    18 C    1.079    42 H    0.973    41 H    0.927
                            40 H    0.916
    20   8 O    2.368 --    18 C    1.265    14 C    0.908
    21   7 N    3.503 --     7 C    1.166    23 C    1.124    22 C    0.926
                            24 O    0.134
    22   6 C    3.918 --    45 H    0.979    44 H    0.973    43 H    0.971
                            21 N    0.926
    23   6 C    3.911 --    24 O    1.570    21 N    1.124    25 C    1.069
    24   8 O    1.908 --    23 C    1.570    21 N    0.134
    25   6 C    3.916 --     5 C    1.490    26 O    1.118    23 C    1.069
    26   8 O    2.092 --    25 C    1.118    46 H    0.801
    27   1 H    1.010 --     1 C    0.986
    28   1 H    1.006 --     1 C    0.979
    29   1 H    1.007 --     1 C    0.980
    30   1 H    0.998 --     9 C    0.981
    31   1 H    1.002 --     9 C    0.976
    32   1 H    1.000 --     9 C    0.977
    33   1 H    1.009 --    10 C    0.980
    34   1 H    1.002 --    10 C    0.982
    35   1 H    1.005 --    10 C    0.984
    36   1 H    0.930 --    11 N    0.883
    37   1 H    0.991 --    15 C    0.979
    38   1 H    0.995 --    15 C    0.974
    39   1 H    0.990 --    15 C    0.974
    40   1 H    0.976 --    19 C    0.916
    41   1 H    0.979 --    19 C    0.927
    42   1 H    0.986 --    19 C    0.973
    43   1 H    1.002 --    22 C    0.971
    44   1 H    0.999 --    22 C    0.973
    45   1 H    1.006 --    22 C    0.979
    46   1 H    0.842 --    26 O    0.801
 ---------------------------------------------------------------------------

           -------------------------------------------------
          | TOTAL ENERGY              -86.317849370066 Eh   |
          | GRADIENT NORM               0.000229110598 Eh/α |
          | HOMO-LUMO GAP               0.298123928598 eV   |
           -------------------------------------------------

 * finished run on 2023/06/20 at 15:47:53.489
