   * xtb version 6.5.1 (579679a) compiled by 'ehlert@majestix' on 2022-07-11
          program call               : /lustre/hpc/kemi/ree/PhD/git/ReactivityQM/dep/xtb-6.5.1/bin/xtb --gfn 1 /lustre/hpc/kemi/ree/PhD/git/ReactivityQM/calculations/R02deprot/reac01prodN14/conf02/R02deprot_reac01prodN14_conf02_gfn1.xyz --opt --vfukui --chrg 0 --uhf 0 --alpb DMSO

   ID    Z sym.   atoms
    1    6 C      1, 3, 5, 7-10, 12, 14, 17-19, 22, 24
    2    8 O      2, 4, 13, 20, 23, 25
    3    7 N      6, 11, 15, 16, 21
    4    1 H      26-42

      * Solvation model:               ALPB
        Solvent                        DMSO
        Solvent mass                       7.8130E+01 g/mol
          :  Hamiltonian                  GFN1-xTB          :
 * total energy  :   -82.9142392 Eh     change       -0.2765290E-09 Eh
 * total energy  :   -82.9249214 Eh     change       -0.1068215E-01 Eh
 * total energy  :   -82.9285923 Eh     change       -0.3670906E-02 Eh
 * total energy  :   -82.9291988 Eh     change       -0.6065149E-03 Eh
 * total energy  :   -82.9296820 Eh     change       -0.4832264E-03 Eh
 * total energy  :   -82.9299049 Eh     change       -0.2228612E-03 Eh
 * total energy  :   -82.9300992 Eh     change       -0.1943732E-03 Eh
 * total energy  :   -82.9302557 Eh     change       -0.1564570E-03 Eh
 * total energy  :   -82.9303759 Eh     change       -0.1202488E-03 Eh
 * total energy  :   -82.9304811 Eh     change       -0.1051155E-03 Eh
 * total energy  :   -82.9311403 Eh     change       -0.1491749E-04 Eh
 * total energy  :   -82.9311586 Eh     change       -0.1832031E-04 Eh
 * total energy  :   -82.9311790 Eh     change       -0.2041105E-04 Eh
 * total energy  :   -82.9311960 Eh     change       -0.1698677E-04 Eh
 * total energy  :   -82.9312088 Eh     change       -0.1278575E-04 Eh
 * total energy  :   -82.9312193 Eh     change       -0.1049714E-04 Eh
 * total energy  :   -82.9312282 Eh     change       -0.8874623E-05 Eh
 * total energy  :   -82.9312348 Eh     change       -0.6634156E-05 Eh
 * total energy  :   -82.9312394 Eh     change       -0.4567788E-05 Eh
   *** GEOMETRY OPTIMIZATION CONVERGED AFTER 39 ITERATIONS ***

 final structure:
================
42
 xtb: 6.5.1 (579679a)
C            3.66798704106135        3.80824999791805        0.30942127547818
O            3.67144576363905        2.42620474170591       -0.05858364407137
C            2.52822155662494        1.76538140902483        0.10591080557766
O            1.52026772314237        2.27777960698497        0.53789213164934
C            2.61286313490243        0.32641534898073       -0.28866527383915
N            1.48070895371792       -0.37493995940594       -0.08425676795285
C            1.46780799059050       -1.67875693971453       -0.36120928374352
C            0.18349431558572       -2.42904042902893       -0.06088321965055
C            0.38042573861676       -3.22169831376780        1.24104094405541
C           -0.16898459350030       -3.36339436493715       -1.22414160271977
N           -0.87044341407350       -1.43132522811895        0.11579631586869
C           -2.13639340416462       -1.72523876717595        0.43227886208480
O           -2.60567593711769       -2.83831558585132        0.60760404724774
C           -2.98976129901130       -0.50501856083338        0.55054568646994
N           -4.28421147840506       -0.50777909667712        0.92988038819806
N           -4.71402210881755        0.69599947996156        0.90884102056376
C           -3.65860961739706        1.57337627342899        0.48311762280589
C           -3.32019243480102        2.58512352562052        1.57926466645533
C           -4.03528873851632        2.24551193929162       -0.83992230382755
O           -2.55113618114451        0.69249686222937        0.27601769383594
N            2.47755081535601       -2.39666230485393       -0.80499665514068
C            3.65876144285176       -1.77034044271944       -1.07590757354397
O            4.65245319872928       -2.32970974866349       -1.54288383226688
C            3.72720785864927       -0.32300424089012       -0.78849636484960
O            4.88724932764477        0.26208829478456       -1.06148696515113
H            4.66211030433578        4.19212234851983        0.08928898880548
H            3.44807099258765        3.91165568579046        1.37467016335118
H            2.91464188758270        4.34909844404029       -0.26797663636337
H            0.57931444736116       -2.53786775300671        2.06470286711917
H            1.23029170249344       -3.89180219706984        1.11992042352667
H           -0.50846616201096       -3.80735310913213        1.46748818013194
H           -1.04157240832746       -3.96530386794339       -0.97764841136275
H           -0.37727434969802       -2.78048910010967       -2.11975925979857
H            0.67946257706310       -4.01892341756400       -1.41614040224055
H           -0.57828098038099       -0.46186813962313        0.03632214512125
H           -3.05373503197401        2.05558884654321        2.49148280292630
H           -2.48291135258158        3.19750281684545        1.25360113498690
H           -4.18768256264219        3.21413652932057        1.76057611372805
H           -4.24310643357018        1.48137944062643       -1.58574654896987
H           -3.20882122034236        2.86722873445143       -1.17458333204488
H           -4.91987919883023        2.85827116019886       -0.68692247564244
H            5.50611113476706       -0.42677891917367       -1.38391172680480

          :  Hamiltonian                  GFN1-xTB          :
         :: total energy             -82.931239373658 Eh    ::
         :: gradient norm              0.000200707524 Eh/a0 ::
         :: HOMO-LUMO gap              0.054998275203 eV    ::
         :: SCC energy               -83.690484275390 Eh    ::
         :: -> Gsolv                  -0.053559143699 Eh    ::
         :: repulsion energy           0.784775349577 Eh    ::

    * Orbital Energies and Occupations

         #    Occupation            Energy/Eh            Energy/eV
      -------------------------------------------------------------
         1        2.0000           -0.8885522             -24.1787
       ...           ...                  ...                  ...
        55        2.0000           -0.5110221             -13.9056
        56        2.0000           -0.5021168             -13.6633
        57        2.0000           -0.5005837             -13.6216
        58        2.0000           -0.4940093             -13.4427
        59        2.0000           -0.4844714             -13.1831
        60        2.0000           -0.4798584             -13.0576
        61        2.0000           -0.4742938             -12.9062
        62        2.0000           -0.4684235             -12.7465
        63        2.0000           -0.4663612             -12.6903
        64        2.0000           -0.4557398             -12.4013
        65        2.0000           -0.4473823             -12.1739
        66        1.9949           -0.4152579             -11.2997
        67        1.4893           -0.4106050             -11.1731 (HOMO)
        68        0.5158           -0.4085838             -11.1181 (LUMO)
        69                         -0.3230759              -8.7913
        70                         -0.3080277              -8.3819
        71                         -0.2714245              -7.3858
        72                         -0.2239414              -6.0938
        73                         -0.2219983              -6.0409
        74                         -0.1468990              -3.9973
        75                         -0.1459080              -3.9704
        76                         -0.1404836              -3.8228
        77                         -0.1352914              -3.6815
        78                         -0.1215057              -3.3063
       ...                                ...                  ...
       134                          0.7295938              19.8533
      -------------------------------------------------------------
                  HL-Gap            0.0020211 Eh            0.0550 eV

Wiberg/Mayer (AO) data.
largest (>0.10) Wiberg bond orders for each atom

     #   Z sym  total        # sym  WBO       # sym  WBO       # sym  WBO
 ---------------------------------------------------------------------------
     1   6 C    3.871 --    26 H    0.986    28 H    0.979    27 H    0.979
                             2 O    0.897
     2   8 O    2.203 --     3 C    1.117     1 C    0.897     4 O    0.135
     3   6 C    3.845 --     4 O    1.657     2 O    1.117     5 C    0.991
     4   8 O    1.916 --     3 C    1.657     2 O    0.135
     5   6 C    3.915 --    24 C    1.385     6 N    1.300     3 C    0.991
     6   7 N    2.888 --     7 C    1.342     5 C    1.300
     7   6 C    3.913 --    21 N    1.448     6 N    1.342     8 C    0.980
     8   6 C    3.922 --     7 C    0.980    10 C    0.980     9 C    0.970
                            11 N    0.922
     9   6 C    3.984 --    29 H    0.986    30 H    0.984    31 H    0.981
                             8 C    0.970
    10   6 C    3.983 --    33 H    0.986    32 H    0.983    34 H    0.981
                             8 C    0.980
    11   7 N    3.378 --    12 C    1.294     8 C    0.922    35 H    0.870
                            13 O    0.202
    12   6 C    3.921 --    13 O    1.567    11 N    1.294    14 C    0.978
    13   8 O    1.886 --    12 C    1.567    11 N    0.202
    14   6 C    3.638 --    15 N    1.291    20 O    1.207    12 C    0.978
    15   7 N    2.992 --    16 N    1.565    14 C    1.291
    16   7 N    2.721 --    15 N    1.565    17 C    1.027
    17   6 C    3.833 --    16 N    1.027    18 C    0.936    19 C    0.933
                            20 O    0.869
    18   6 C    3.941 --    36 H    0.982    38 H    0.981    37 H    0.980
                            17 C    0.936
    19   6 C    3.939 --    39 H    0.982    41 H    0.981    40 H    0.980
                            17 C    0.933
    20   8 O    2.233 --    14 C    1.207    17 C    0.869
    21   7 N    2.929 --     7 C    1.448    22 C    1.187
    22   6 C    3.874 --    23 O    1.550    21 N    1.187    24 C    1.028
    23   8 O    1.781 --    22 C    1.550
    24   6 C    3.739 --     5 C    1.385    25 O    1.144    22 C    1.028
    25   8 O    2.059 --    24 C    1.144    42 H    0.796
    26   1 H    1.011 --     1 C    0.986
    27   1 H    1.007 --     1 C    0.979
    28   1 H    1.007 --     1 C    0.979
    29   1 H    1.002 --     9 C    0.986
    30   1 H    1.005 --     9 C    0.984
    31   1 H    1.008 --     9 C    0.981
    32   1 H    1.008 --    10 C    0.983
    33   1 H    1.002 --    10 C    0.986
    34   1 H    1.012 --    10 C    0.981
    35   1 H    0.955 --    11 N    0.870
    36   1 H    0.996 --    18 C    0.982
    37   1 H    0.995 --    18 C    0.980
    38   1 H    0.997 --    18 C    0.981
    39   1 H    0.996 --    19 C    0.982
    40   1 H    0.995 --    19 C    0.980
    41   1 H    0.996 --    19 C    0.981
    42   1 H    0.847 --    25 O    0.796
 ---------------------------------------------------------------------------

           -------------------------------------------------
          | TOTAL ENERGY              -82.931239373658 Eh   |
          | GRADIENT NORM               0.000200707524 Eh/α |
          | HOMO-LUMO GAP               0.054998275203 eV   |
           -------------------------------------------------

 * finished run on 2023/06/20 at 18:24:08.417
