                         Program Version 5.0.1 -  RELEASE  -
|  1> # ORCA input file
|  2> ! SP r2SCAN-3c CPCM
|  3>
|  4> %maxcore 1875.0
|  5> %pal nprocs 4 end
|  6> %cpcm smd true SMDsolvent "DMSO" end
|  7>
|  8> *xyz 1 1
|  9> C      -5.613430    2.430500    1.603952
| 10> O      -4.460670    2.172646    0.782411
| 11> C      -3.661217    1.205641    1.072905
| 12> O      -3.957582    0.525059    2.126696
| 13> C      -3.255246   -0.613542    2.644341
| 14> C      -2.538983    0.986672    0.186866
| 15> N      -1.621041    0.025894    0.530145
| 16> C      -0.596684   -0.234841   -0.222396
| 17> C       0.336430   -1.329643    0.272680
| 18> C       0.029437   -2.645635   -0.451259
| 19> C       0.163748   -1.531850    1.784330
| 20> N       1.725259   -0.952496    0.028819
| 21> C       2.181088    0.259032    0.430799
| 22> O       1.459978    1.157950    0.831291
| 23> C       3.645642    0.398986    0.287112
| 24> N       4.384549    1.426049    0.570325
| 25> N       5.667488    1.080254    0.275437
| 26> C       5.634852   -0.137767   -0.170430
| 27> C       6.768324   -0.971270   -0.624802
| 28> O       4.384271   -0.627135   -0.188376
| 29> N      -0.396087    0.393820   -1.425355
| 30> C       0.694250    0.102414   -2.361254
| 31> C      -1.222045    1.412496   -1.843789
| 32> O      -1.052541    2.030965   -2.883216
| 33> C      -2.358987    1.712801   -0.972278
| 34> O      -3.159414    2.671468   -1.394672
| 35> H      -6.237382    1.537551    1.644841
| 36> H      -6.139629    3.254039    1.126968
| 37> H      -5.290311    2.702343    2.609320
| 38> H      -3.866590   -0.981940    3.466858
| 39> H      -3.149629   -1.372323    1.870559
| 40> H      -2.273355   -0.306426    3.002731
| 41> H       0.663093   -3.434712   -0.050639
| 42> H       0.202840   -2.566424   -1.521612
| 43> H      -1.012860   -2.911911   -0.283966
| 44> H       0.942562   -2.201354    2.144025
| 45> H      -0.805312   -1.978446    1.990813
| 46> H       0.239755   -0.578445    2.304971
| 47> H       2.381981   -1.688329   -0.172381
| 48> H       6.600766   -1.294633   -1.651772
| 49> H       6.844687   -1.862262   -0.001646
| 50> H       7.692736   -0.401520   -0.564166
| 51> H       1.501894    0.817405   -2.204084
| 52> H       0.301513    0.217534   -3.371107
| 53> H       1.059986   -0.905860   -2.221934
| 54> H      -2.838134    3.007241   -2.258330
| 55> **                         ****END OF INPUT****

CARTESIAN COORDINATES (ANGSTROEM)
---------------------------------
  C     -5.613430    2.430500    1.603952
  O     -4.460670    2.172646    0.782411
  C     -3.661217    1.205641    1.072905
  O     -3.957582    0.525059    2.126696
  C     -3.255246   -0.613542    2.644341
  C     -2.538983    0.986672    0.186866
  N     -1.621041    0.025894    0.530145
  C     -0.596684   -0.234841   -0.222396
  C      0.336430   -1.329643    0.272680
  C      0.029437   -2.645635   -0.451259
  C      0.163748   -1.531850    1.784330
  N      1.725259   -0.952496    0.028819
  C      2.181088    0.259032    0.430799
  O      1.459978    1.157950    0.831291
  C      3.645642    0.398986    0.287112
  N      4.384549    1.426049    0.570325
  N      5.667488    1.080254    0.275437
  C      5.634852   -0.137767   -0.170430
  C      6.768324   -0.971270   -0.624802
  O      4.384271   -0.627135   -0.188376
  N     -0.396087    0.393820   -1.425355
  C      0.694250    0.102414   -2.361254
  C     -1.222045    1.412496   -1.843789
  O     -1.052541    2.030965   -2.883216
  C     -2.358987    1.712801   -0.972278
  O     -3.159414    2.671468   -1.394672
  H     -6.237382    1.537551    1.644841
  H     -6.139629    3.254039    1.126968
  H     -5.290311    2.702343    2.609320
  H     -3.866590   -0.981940    3.466858
  H     -3.149629   -1.372323    1.870559
  H     -2.273355   -0.306426    3.002731
  H      0.663093   -3.434712   -0.050639
  H      0.202840   -2.566424   -1.521612
  H     -1.012860   -2.911911   -0.283966
  H      0.942562   -2.201354    2.144025
  H     -0.805312   -1.978446    1.990813
  H      0.239755   -0.578445    2.304971
  H      2.381981   -1.688329   -0.172381
  H      6.600766   -1.294633   -1.651772
  H      6.844687   -1.862262   -0.001646
  H      7.692736   -0.401520   -0.564166
  H      1.501894    0.817405   -2.204084
  H      0.301513    0.217534   -3.371107
  H      1.059986   -0.905860   -2.221934
  H     -2.838134    3.007241   -2.258330

 Total Charge           Charge          ....    1
 Multiplicity           Mult            ....    1
 Number of Electrons    NEL             ....  192
 Basis Dimension        Dim             ....  649

ORBITAL ENERGIES
----------------

  NO   OCC          E(Eh)            E(eV)
   0   2.0000     -19.068791      -518.8882
   1   2.0000     -19.065404      -518.7960
   2   2.0000     -19.061523      -518.6904
   3   2.0000     -19.028553      -517.7932
   4   2.0000     -18.955680      -515.8103
   5   2.0000     -18.944461      -515.5050
   6   2.0000     -14.256399      -387.9363
   7   2.0000     -14.209797      -386.6682
   8   2.0000     -14.206951      -386.5908
   9   2.0000     -14.200787      -386.4231
  10   2.0000     -14.180204      -385.8630
  11   2.0000     -10.237903      -278.5875
  12   2.0000     -10.165767      -276.6246
  13   2.0000     -10.163800      -276.5711
  14   2.0000     -10.153017      -276.2776
  15   2.0000     -10.150925      -276.2207
  16   2.0000     -10.147385      -276.1244
  17   2.0000     -10.144261      -276.0394
  18   2.0000     -10.124055      -275.4895
  19   2.0000     -10.112448      -275.1737
  20   2.0000     -10.103016      -274.9171
  21   2.0000     -10.100219      -274.8409
  22   2.0000     -10.071697      -274.0648
  23   2.0000     -10.047811      -273.4148
  24   2.0000     -10.033956      -273.0378
  25   2.0000     -10.023380      -272.7500
  26   2.0000      -1.159989       -31.5649
  27   2.0000      -1.159226       -31.5441
  28   2.0000      -1.090182       -29.6654
  29   2.0000      -1.079662       -29.3791
  30   2.0000      -1.042777       -28.3754
  31   2.0000      -1.033524       -28.1236
  32   2.0000      -0.985869       -26.8269
  33   2.0000      -0.979958       -26.6660
  34   2.0000      -0.921749       -25.0821
  35   2.0000      -0.908997       -24.7351
  36   2.0000      -0.836498       -22.7623
  37   2.0000      -0.811512       -22.0824
  38   2.0000      -0.774755       -21.0822
  39   2.0000      -0.751983       -20.4625
  40   2.0000      -0.729242       -19.8437
  41   2.0000      -0.717061       -19.5122
  42   2.0000      -0.714327       -19.4378
  43   2.0000      -0.674178       -18.3453
  44   2.0000      -0.670588       -18.2476
  45   2.0000      -0.661477       -17.9997
  46   2.0000      -0.653995       -17.7961
  47   2.0000      -0.606592       -16.5062
  48   2.0000      -0.593864       -16.1599
  49   2.0000      -0.584841       -15.9143
  50   2.0000      -0.584356       -15.9011
  51   2.0000      -0.569673       -15.5016
  52   2.0000      -0.555556       -15.1174
  53   2.0000      -0.543335       -14.7849
  54   2.0000      -0.532133       -14.4801
  55   2.0000      -0.521832       -14.1998
  56   2.0000      -0.516074       -14.0431
  57   2.0000      -0.498926       -13.5765
  58   2.0000      -0.485060       -13.1992
  59   2.0000      -0.477631       -12.9970
  60   2.0000      -0.463142       -12.6027
  61   2.0000      -0.454752       -12.3744
  62   2.0000      -0.448812       -12.2128
  63   2.0000      -0.443898       -12.0791
  64   2.0000      -0.441046       -12.0015
  65   2.0000      -0.432561       -11.7706
  66   2.0000      -0.427754       -11.6398
  67   2.0000      -0.423705       -11.5296
  68   2.0000      -0.421135       -11.4597
  69   2.0000      -0.412508       -11.2249
  70   2.0000      -0.404925       -11.0186
  71   2.0000      -0.394109       -10.7243
  72   2.0000      -0.389588       -10.6012
  73   2.0000      -0.387725       -10.5505
  74   2.0000      -0.383866       -10.4455
  75   2.0000      -0.377327       -10.2676
  76   2.0000      -0.374691       -10.1959
  77   2.0000      -0.367158        -9.9909
  78   2.0000      -0.366447        -9.9715
  79   2.0000      -0.363412        -9.8890
  80   2.0000      -0.356397        -9.6981
  81   2.0000      -0.353878        -9.6295
  82   2.0000      -0.348317        -9.4782
  83   2.0000      -0.345374        -9.3981
  84   2.0000      -0.341128        -9.2826
  85   2.0000      -0.330699        -8.9988
  86   2.0000      -0.322177        -8.7669
  87   2.0000      -0.318439        -8.6652
  88   2.0000      -0.294788        -8.0216
  89   2.0000      -0.272052        -7.4029
  90   2.0000      -0.271584        -7.3902
  91   2.0000      -0.268911        -7.3174
  92   2.0000      -0.266505        -7.2520
  93   2.0000      -0.257268        -7.0006
  94   2.0000      -0.249313        -6.7842
  95   2.0000      -0.229196        -6.2367
  96   0.0000      -0.137202        -3.7335
  97   0.0000      -0.093600        -2.5470
  98   0.0000      -0.056460        -1.5363
  99   0.0000      -0.029432        -0.8009
 100   0.0000      -0.023831        -0.6485

MULLIKEN ATOMIC CHARGES
-----------------------
   0 C :   -0.295229
   1 O :   -0.137946
   2 C :    0.268445
   3 O :   -0.140942
   4 C :   -0.317127
   5 C :    0.098327
   6 N :   -0.079967
   7 C :    0.020455
   8 C :    0.041982
   9 C :   -0.478364
  10 C :   -0.632876
  11 N :   -0.160302
  12 C :   -0.145785
  13 O :   -0.413631
  14 C :    0.429887
  15 N :   -0.158238
  16 N :   -0.288522
  17 C :    0.403473
  18 C :   -0.632745
  19 O :   -0.058019
  20 N :    0.293745
  21 C :   -0.425580
  22 C :    0.213865
  23 O :   -0.478168
  24 C :    0.132141
  25 O :   -0.340593
  26 H :    0.198122
  27 H :    0.200023
  28 H :    0.200257
  29 H :    0.189152
  30 H :    0.200428
  31 H :    0.204048
  32 H :    0.195288
  33 H :    0.184457
  34 H :    0.201878
  35 H :    0.187747
  36 H :    0.191676
  37 H :    0.206686
  38 H :    0.322262
  39 H :    0.201400
  40 H :    0.202718
  41 H :    0.205889
  42 H :    0.213437
  43 H :    0.195392
  44 H :    0.205789
  45 H :    0.375066
Sum of atomic charges:    1.0000000

LOEWDIN ATOMIC CHARGES
----------------------
   0 C :    0.003210
   1 O :   -0.496901
   2 C :    0.512867
   3 O :   -0.500443
   4 C :    0.006820
   5 C :    0.204729
   6 N :   -0.570597
   7 C :    0.386264
   8 C :    0.109087
   9 C :   -0.335358
  10 C :   -0.330569
  11 N :   -0.594348
  12 C :    0.380407
  13 O :   -0.433017
  14 C :    0.412554
  15 N :   -0.329985
  16 N :   -0.357007
  17 C :    0.381963
  18 C :   -0.315981
  19 O :   -0.390321
  20 N :   -0.613429
  21 C :   -0.057421
  22 C :    0.385767
  23 O :   -0.462487
  24 C :    0.325279
  25 O :   -0.397451
  26 H :    0.198197
  27 H :    0.200301
  28 H :    0.198181
  29 H :    0.193423
  30 H :    0.200638
  31 H :    0.199997
  32 H :    0.178282
  33 H :    0.172428
  34 H :    0.180452
  35 H :    0.172458
  36 H :    0.176315
  37 H :    0.181925
  38 H :    0.303196
  39 H :    0.192302
  40 H :    0.192820
  41 H :    0.191716
  42 H :    0.204137
  43 H :    0.209626
  44 H :    0.206242
  45 H :    0.323731

  Mayer bond orders larger than 0.100000
B(  0-C ,  1-O ) :   0.7988 B(  0-C , 26-H ) :   0.9402 B(  0-C , 27-H ) :   0.9523
B(  0-C , 28-H ) :   0.9377 B(  1-O ,  2-C ) :   1.3683 B(  2-C ,  3-O ) :   1.3379
B(  2-C ,  5-C ) :   1.0567 B(  3-O ,  4-C ) :   0.8320 B(  4-C , 29-H ) :   0.9490
B(  4-C , 30-H ) :   0.9350 B(  4-C , 31-H ) :   0.9293 B(  5-C ,  6-N ) :   1.0054
B(  5-C , 24-C ) :   1.3725 B(  6-N ,  7-C ) :   1.5869 B(  7-C ,  8-C ) :   0.7696
B(  7-C , 13-O ) :   0.1160 B(  7-C , 20-N ) :   1.2032 B(  8-C ,  9-C ) :   1.0049
B(  8-C , 10-C ) :   0.8961 B(  8-C , 11-N ) :   0.7609 B(  9-C , 32-H ) :   0.9606
B(  9-C , 33-H ) :   0.9266 B(  9-C , 34-H ) :   0.9654 B( 10-C , 35-H ) :   0.9712
B( 10-C , 36-H ) :   0.9540 B( 10-C , 37-H ) :   0.9606 B( 11-N , 12-C ) :   1.1555
B( 11-N , 38-H ) :   0.8976 B( 12-C , 13-O ) :   1.8581 B( 12-C , 14-C ) :   0.7670
B( 12-C , 16-N ) :   0.1135 B( 13-O , 14-C ) :  -0.1092 B( 14-C , 15-N ) :   1.7401
B( 14-C , 17-C ) :   0.1287 B( 14-C , 19-O ) :   1.0800 B( 15-N , 16-N ) :   1.2634
B( 16-N , 17-C ) :   1.6093 B( 17-C , 18-C ) :   0.8215 B( 17-C , 19-O ) :   1.0668
B( 18-C , 39-H ) :   0.9439 B( 18-C , 40-H ) :   0.9415 B( 18-C , 41-H ) :   0.9892
B( 20-N , 21-C ) :   0.8571 B( 20-N , 22-C ) :   1.1117 B( 21-C , 42-H ) :   0.9268
B( 21-C , 43-H ) :   0.9327 B( 21-C , 44-H ) :   0.9258 B( 22-C , 23-O ) :   1.7917
B( 22-C , 24-C ) :   0.9140 B( 24-C , 25-O ) :   1.1497 B( 25-O , 45-H ) :   0.8062

Dispersion correction           -0.021548474
FINAL SINGLE POINT ENERGY     -1308.349167053503

DIPOLE MOMENT
-------------
                                X             Y             Z
Electronic contribution:      0.01469      14.29530      -4.21368
Nuclear contribution   :     -4.44458     -18.18453       4.78221
                        -----------------------------------------
Total Dipole Moment    :     -4.42989      -3.88923       0.56852
                        -----------------------------------------
Magnitude (a.u.)       :      5.92226
Magnitude (Debye)      :     15.05320

Rotational constants in cm-1:     0.014114     0.003548     0.003296
Rotational constants in MHz :   423.123240   106.379045    98.823116

                             ****ORCA TERMINATED NORMALLY****
TOTAL RUN TIME: 0 days 0 hours 1 minutes 26 seconds 121 msec
