   * xtb version 6.5.1 (579679a) compiled by 'ehlert@majestix' on 2022-07-11
          program call               : /lustre/hpc/kemi/ree/PhD/git/ReactivityQM/dep/xtb-6.5.1/bin/xtb --gfn 1 /lustre/hpc/kemi/ree/PhD/git/ReactivityQM/calculations/R03/reac02prodN03/conf09/R03_reac02prodN03_conf09_gfn1.xyz --opt --vfukui --chrg 1 --uhf 0 --alpb DMSO

   ID    Z sym.   atoms
    1    6 C      1, 3, 5, 6, 8-11, 13, 15, 18, 19, 22, 23, 25
    2    8 O      2, 4, 14, 20, 24, 26
    3    7 N      7, 12, 16, 17, 21
    4    1 H      27-46

      * Solvation model:               ALPB
        Solvent                        DMSO
        Solvent mass                       7.8130E+01 g/mol
          :  Hamiltonian                  GFN1-xTB          :
 * total energy  :   -86.3106831 Eh     change       -0.1432454E-10 Eh
 * total energy  :   -86.3364256 Eh     change       -0.2574245E-01 Eh
 * total energy  :   -86.3448743 Eh     change       -0.8448761E-02 Eh
 * total energy  :   -86.3473574 Eh     change       -0.2483036E-02 Eh
 * total energy  :   -86.3489441 Eh     change       -0.1586761E-02 Eh
 * total energy  :   -86.3497408 Eh     change       -0.7966407E-03 Eh
 * total energy  :   -86.3503297 Eh     change       -0.5889715E-03 Eh
 * total energy  :   -86.3507380 Eh     change       -0.4083082E-03 Eh
 * total energy  :   -86.3510002 Eh     change       -0.2621975E-03 Eh
 * total energy  :   -86.3511512 Eh     change       -0.1509591E-03 Eh
 * total energy  :   -86.3520366 Eh     change       -0.7951897E-05 Eh
 * total energy  :   -86.3520442 Eh     change       -0.7652884E-05 Eh
 * total energy  :   -86.3520521 Eh     change       -0.7865501E-05 Eh
 * total energy  :   -86.3520607 Eh     change       -0.8631602E-05 Eh
 * total energy  :   -86.3520697 Eh     change       -0.8939188E-05 Eh
 * total energy  :   -86.3520802 Eh     change       -0.1050971E-04 Eh
 * total energy  :   -86.3520907 Eh     change       -0.1052542E-04 Eh
 * total energy  :   -86.3521018 Eh     change       -0.1110068E-04 Eh
 * total energy  :   -86.3521044 Eh     change       -0.2588845E-05 Eh
   *** GEOMETRY OPTIMIZATION CONVERGED AFTER 44 ITERATIONS ***

 final structure:
================
46
 xtb: 6.5.1 (579679a)
C           -5.61342955981665        2.43049990996840        1.60395158107894
O           -4.46067005833853        2.17264574480551        0.78241098789901
C           -3.66121697805408        1.20564073111550        1.07290469625350
O           -3.95758153462711        0.52505885805160        2.12669614979462
C           -3.25524576694192       -0.61354243719107        2.64434067107951
C           -2.53898343139949        0.98667182705485        0.18686628833840
N           -1.62104059820850        0.02589426983026        0.53014452809627
C           -0.59668382672850       -0.23484095479715       -0.22239573117354
C            0.33643008125583       -1.32964300879417        0.27267974782072
C            0.02943742243964       -2.64563510428482       -0.45125918953976
C            0.16374778041916       -1.53185035767469        1.78433045283764
N            1.72525908266242       -0.95249555403140        0.02881947542507
C            2.18108789470401        0.25903246319776        0.43079926482397
O            1.45997750123158        1.15794967823646        0.83129129693131
C            3.64564193550895        0.39898600882530        0.28711217741639
N            4.38454861834309        1.42604893068846        0.57032482051084
N            5.66748817509084        1.08025405084749        0.27543724862954
C            5.63485247322361       -0.13776659482784       -0.17042979413839
C            6.76832374439526       -0.97127022648838       -0.62480157554290
O            4.38427071400544       -0.62713532157340       -0.18837628497579
N           -0.39608686811908        0.39381965932468       -1.42535527256368
C            0.69424970928489        0.10241447437597       -2.36125390462400
C           -1.22204528452341        1.41249586405303       -1.84378930784535
O           -1.05254110053229        2.03096479228041       -2.88321614066911
C           -2.35898709766875        1.71280129310564       -0.97227830785454
O           -3.15941376988361        2.67146785440100       -1.39467152601079
H           -6.23738165688635        1.53755092054085        1.64484146589549
H           -6.13962884090819        3.25403948683712        1.12696803451033
H           -5.29031086782678        2.70234318027024        2.60932038472602
H           -3.86658997377409       -0.98193976062492        3.46685793703311
H           -3.14962941161114       -1.37232278194620        1.87055881813832
H           -2.27335452983594       -0.30642586795582        3.00273094372348
H            0.66309305586638       -3.43471161769041       -0.05063901619633
H            0.20283987245991       -2.56642361584610       -1.52161193227889
H           -1.01286034931891       -2.91191078340547       -0.28396640438111
H            0.94256204810590       -2.20135367506565        2.14402512054443
H           -0.80531197522492       -1.97844606448210        1.99081283287372
H            0.23975547867227       -0.57844489066544        2.30497140911158
H            2.38198091868524       -1.68832921599413       -0.17238138728779
H            6.60076636113602       -1.29463267850166       -1.65177168397137
H            6.84468690067530       -1.86226198912382       -0.00164629631097
H            7.69273596529702       -0.40152040481313       -0.56416568289378
H            1.50189360720626        0.81740473445337       -2.20408356948111
H            0.30151255259934        0.21753424558039       -3.37110740514236
H            1.05998594566641       -0.90586012370694       -2.22193445399178
H           -2.83813435870682        3.00724105164601       -2.25833046662229

          :  Hamiltonian                  GFN1-xTB          :
         :: total energy             -86.352104407283 Eh    ::
         :: gradient norm              0.000247676344 Eh/a0 ::
         :: HOMO-LUMO gap              2.022151564141 eV    ::
         :: SCC energy               -87.182400601812 Eh    ::
         :: -> Gsolv                  -0.107965203392 Eh    ::
         :: repulsion energy           0.860551043087 Eh    ::

    * Orbital Energies and Occupations

         #    Occupation            Energy/Eh            Energy/eV
      -------------------------------------------------------------
         1        2.0000           -0.9120790             -24.8189
       ...           ...                  ...                  ...
        58        2.0000           -0.5300683             -14.4239
        59        2.0000           -0.5211883             -14.1823
        60        2.0000           -0.5153094             -14.0223
        61        2.0000           -0.5103129             -13.8863
        62        2.0000           -0.5033131             -13.6958
        63        2.0000           -0.4913532             -13.3704
        64        2.0000           -0.4859677             -13.2239
        65        2.0000           -0.4793683             -13.0443
        66        2.0000           -0.4760727             -12.9546
        67        2.0000           -0.4671266             -12.7112
        68        2.0000           -0.4598206             -12.5124
        69        2.0000           -0.4572559             -12.4426
        70        2.0000           -0.4540424             -12.3551 (HOMO)
        71                         -0.3797297             -10.3330 (LUMO)
        72                         -0.3200595              -8.7093
        73                         -0.3135088              -8.5310
        74                         -0.2888559              -7.8602
        75                         -0.2609326              -7.1003
        76                         -0.2067194              -5.6251
        77                         -0.1958350              -5.3289
        78                         -0.1713322              -4.6622
        79                         -0.1622866              -4.4160
        80                         -0.1496572              -4.0724
        81                         -0.1430689              -3.8931
       ...                                ...                  ...
       144                          0.7128963              19.3989
      -------------------------------------------------------------
                  HL-Gap            0.0743127 Eh            2.0222 eV

Wiberg/Mayer (AO) data.
largest (>0.10) Wiberg bond orders for each atom

     #   Z sym  total        # sym  WBO       # sym  WBO       # sym  WBO
 ---------------------------------------------------------------------------
     1   6 C    3.825 --    28 H    0.982    27 H    0.973    29 H    0.972
                             2 O    0.856
     2   8 O    2.308 --     3 C    1.259     1 C    0.856
     3   6 C    3.814 --     2 O    1.259     4 O    1.249     6 C    1.119
     4   8 O    2.306 --     3 C    1.249     5 C    0.851
     5   6 C    3.816 --    30 H    0.978    31 H    0.972    32 H    0.970
                             4 O    0.851
     6   6 C    3.957 --    25 C    1.413     7 N    1.164     3 C    1.119
     7   7 N    3.036 --     8 C    1.561     6 C    1.164
     8   6 C    3.920 --     7 N    1.561    21 N    1.171     9 C    0.977
     9   6 C    3.938 --    11 C    0.986    10 C    0.981     8 C    0.977
                            12 N    0.934
    10   6 C    3.986 --    35 H    0.983     9 C    0.981    33 H    0.980
                            34 H    0.977
    11   6 C    3.987 --     9 C    0.986    36 H    0.983    37 H    0.982
                            38 H    0.981
    12   7 N    3.333 --    13 C    1.234     9 C    0.934    39 H    0.887
                            14 O    0.169
    13   6 C    3.914 --    14 O    1.588    12 N    1.234    15 C    1.001
    14   8 O    1.895 --    13 C    1.588    12 N    0.169
    15   6 C    3.876 --    16 N    1.617    20 O    1.047    13 C    1.001
    16   7 N    3.003 --    15 C    1.617    17 N    1.204
    17   7 N    2.982 --    18 C    1.604    16 N    1.204
    18   6 C    3.866 --    17 N    1.604    20 O    1.074    19 C    1.033
    19   6 C    3.985 --    18 C    1.033    42 H    0.982    40 H    0.962
                            41 H    0.961
    20   8 O    2.317 --    18 C    1.074    15 C    1.047
    21   7 N    3.530 --     8 C    1.171    23 C    1.150    22 C    0.920
                            24 O    0.143
    22   6 C    3.908 --    45 H    0.977    44 H    0.973    43 H    0.971
                            21 N    0.920
    23   6 C    3.919 --    24 O    1.582    21 N    1.150    25 C    1.046
    24   8 O    1.928 --    23 C    1.582    21 N    0.143
    25   6 C    3.913 --     6 C    1.413    26 O    1.169    23 C    1.046
    26   8 O    2.141 --    25 C    1.169    46 H    0.782
    27   1 H    0.998 --     1 C    0.973
    28   1 H    1.002 --     1 C    0.982
    29   1 H    0.998 --     1 C    0.972
    30   1 H    1.001 --     5 C    0.978
    31   1 H    1.013 --     5 C    0.972
    32   1 H    1.012 --     5 C    0.970
    33   1 H    0.994 --    10 C    0.980
    34   1 H    0.999 --    10 C    0.977
    35   1 H    0.999 --    10 C    0.983
    36   1 H    0.999 --    11 C    0.983
    37   1 H    1.006 --    11 C    0.982
    38   1 H    1.008 --    11 C    0.981
    39   1 H    0.929 --    12 N    0.887
    40   1 H    0.996 --    19 C    0.962
    41   1 H    0.996 --    19 C    0.961
    42   1 H    0.998 --    19 C    0.982
    43   1 H    0.999 --    22 C    0.971
    44   1 H    1.002 --    22 C    0.973
    45   1 H    1.008 --    22 C    0.977
    46   1 H    0.827 --    26 O    0.782
 ---------------------------------------------------------------------------

           -------------------------------------------------
          | TOTAL ENERGY              -86.352104407283 Eh   |
          | GRADIENT NORM               0.000247676344 Eh/α |
          | HOMO-LUMO GAP               2.022151564141 eV   |
           -------------------------------------------------

 * finished run on 2023/06/20 at 15:38:28.339
