   * xtb version 6.5.1 (579679a) compiled by 'ehlert@majestix' on 2022-07-11
          program call               : /lustre/hpc/kemi/ree/PhD/git/ReactivityQM/dep/xtb-6.5.1/bin/xtb --gfn 1 /lustre/hpc/kemi/ree/PhD/git/ReactivityQM/calculations/R02oxygendeprot/reac01prodN07/conf19/R02oxygendeprot_reac01prodN07_conf19_gfn1.xyz --opt --vfukui --chrg 0 --uhf 0 --alpb DMSO

   ID    Z sym.   atoms
    1    6 C      1, 3, 5, 7-10, 12, 14, 17-19, 22, 24
    2    8 O      2, 4, 13, 20, 23, 25
    3    7 N      6, 11, 15, 16, 21
    4    1 H      26-42

      * Solvation model:               ALPB
        Solvent                        DMSO
        Solvent mass                       7.8130E+01 g/mol
          :  Hamiltonian                  GFN1-xTB          :
 * total energy  :   -82.9496544 Eh     change       -0.1727329E-09 Eh
 * total energy  :   -82.9675948 Eh     change       -0.1794039E-01 Eh
 * total energy  :   -82.9749655 Eh     change       -0.7370716E-02 Eh
 * total energy  :   -82.9760669 Eh     change       -0.1101347E-02 Eh
 * total energy  :   -82.9766502 Eh     change       -0.5832893E-03 Eh
 * total energy  :   -82.9768712 Eh     change       -0.2209883E-03 Eh
 * total energy  :   -82.9771015 Eh     change       -0.2303097E-03 Eh
 * total energy  :   -82.9772606 Eh     change       -0.1591480E-03 Eh
 * total energy  :   -82.9773907 Eh     change       -0.1300451E-03 Eh
 * total energy  :   -82.9775089 Eh     change       -0.1181928E-03 Eh
 * total energy  :   -82.9779845 Eh     change       -0.2663460E-04 Eh
 * total energy  :   -82.9780042 Eh     change       -0.1978051E-04 Eh
 * total energy  :   -82.9780169 Eh     change       -0.1267141E-04 Eh
 * total energy  :   -82.9780242 Eh     change       -0.7249359E-05 Eh
 * total energy  :   -82.9780332 Eh     change       -0.9049243E-05 Eh
 * total energy  :   -82.9780400 Eh     change       -0.6775019E-05 Eh
 * total energy  :   -82.9780474 Eh     change       -0.7406071E-05 Eh
 * total energy  :   -82.9780525 Eh     change       -0.5131049E-05 Eh
 * total energy  :   -82.9780572 Eh     change       -0.4714978E-05 Eh
   *** GEOMETRY OPTIMIZATION CONVERGED AFTER 27 ITERATIONS ***

 final structure:
================
42
 xtb: 6.5.1 (579679a)
C            7.06943941722943       -0.76264306043646        0.78984093415035
O            5.84088225187964       -0.07316033771562        0.98165292007755
C            4.87420315615345       -0.32140598452732        0.06520924316696
O            5.07649816838003       -1.09408320373822       -0.86358202308750
C            3.62543965630719        0.39511402240358        0.28852627174347
N            2.66922049833239        0.10781202767507       -0.66798292027576
C            1.51469876678136        0.65491065002715       -0.62366756635589
C            0.48056376396918        0.36739438470919       -1.69010653372703
C            0.29830987512978        1.60395148561223       -2.58116380326631
C            0.90013651967378       -0.85449044467845       -2.51009663114805
N           -0.79412927069863        0.07785829778518       -0.99401654970479
C           -1.93837146693389       -0.18680583833270       -1.62898136495729
O           -2.12716486530795       -0.24560315736080       -2.82563288878915
C           -3.06139311328395       -0.41768443545414       -0.64748580064161
N           -3.00286780741776       -0.39701275132932        0.65102431621290
N           -4.26203917698014       -0.64292797674652        1.05840437591359
C           -4.58039974402225       -0.69870479673917        2.47020313820316
C           -5.04769009447607       -0.80614191412469        0.01381798320614
C           -6.49318753506717       -1.07931759783701       -0.01698196895202
O           -4.31391219183260       -0.66922575606038       -1.06941892964026
N            1.17034771056168        1.56139149694706        0.36372085737748
C            2.01165517814628        1.92206225077083        1.38895668238828
O            1.62165591536469        2.71287258869215        2.24230656128986
C            3.38823403429091        1.29224929207662        1.36360469658676
O            4.19329214526373        1.59656605034213        2.26047805180997
H            7.49953366928769       -0.52249451578577       -0.18744734062884
H            6.91831410484322       -1.84472634480208        0.85259379608354
H            7.74497127515756       -0.43781573400378        1.58041536680603
H           -0.05809367758898        2.44280365556568       -1.98631447443067
H           -0.41920953587344        1.40263956822358       -3.37370108537192
H            1.25617296477290        1.86646598417301       -3.02888508770047
H            1.88783101924612       -0.67466874425771       -2.93343076341777
H            0.19095294407888       -1.03547717764472       -3.31467827025517
H            0.94766581216933       -1.73292811447833       -1.86828254124660
H           -0.79423687053502        0.07005851827375        0.01311488885724
H           -5.39324244144960       -0.00483175184347        2.67474648415368
H           -3.68895415026399       -0.42143339853845        3.02667349436073
H           -4.88850513241468       -1.71229819893809        2.72236159808342
H           -6.74554332099992       -1.84816212783928        0.71250703799846
H           -7.04196333489807       -0.17249479294909        0.24655204339361
H           -6.78538399707969       -1.39495865592868       -1.01691319804622
H            0.25627088010477        1.97734253880809        0.36639799978851

          :  Hamiltonian                  GFN1-xTB          :
         :: total energy             -82.978057230530 Eh    ::
         :: gradient norm              0.000724492100 Eh/a0 ::
         :: HOMO-LUMO gap              0.453718409246 eV    ::
         :: SCC energy               -83.767412358811 Eh    ::
         :: -> Gsolv                  -0.130097203842 Eh    ::
         :: repulsion energy           0.814238516715 Eh    ::

    * Orbital Energies and Occupations

         #    Occupation            Energy/Eh            Energy/eV
      -------------------------------------------------------------
         1        2.0000           -0.9348223             -25.4378
       ...           ...                  ...                  ...
        55        2.0000           -0.5068282             -13.7915
        56        2.0000           -0.5024614             -13.6727
        57        2.0000           -0.4976875             -13.5428
        58        2.0000           -0.4901956             -13.3389
        59        2.0000           -0.4802735             -13.0689
        60        2.0000           -0.4675946             -12.7239
        61        2.0000           -0.4666433             -12.6980
        62        2.0000           -0.4618244             -12.5669
        63        2.0000           -0.4463182             -12.1449
        64        2.0000           -0.4400707             -11.9749
        65        2.0000           -0.4235897             -11.5265
        66        2.0000           -0.3842208             -10.4552
        67        1.9997           -0.3717413             -10.1156 (HOMO)
        68        0.0003           -0.3550675              -9.6619 (LUMO)
        69                         -0.3419972              -9.3062
        70                         -0.2750730              -7.4851
        71                         -0.2472153              -6.7271
        72                         -0.2367173              -6.4414
        73                         -0.2017752              -5.4906
        74                         -0.1833411              -4.9890
        75                         -0.1705999              -4.6423
        76                         -0.1274843              -3.4690
        77                         -0.1245670              -3.3896
        78                         -0.1230418              -3.3481
       ...                                ...                  ...
       134                          0.7534179              20.5015
      -------------------------------------------------------------
                  HL-Gap            0.0166738 Eh            0.4537 eV

Wiberg/Mayer (AO) data.
largest (>0.10) Wiberg bond orders for each atom

     #   Z sym  total        # sym  WBO       # sym  WBO       # sym  WBO
 ---------------------------------------------------------------------------
     1   6 C    3.897 --    28 H    0.987    27 H    0.981    26 H    0.980
                             2 O    0.923
     2   8 O    2.164 --     3 C    1.053     1 C    0.923     4 O    0.111
     3   6 C    3.851 --     4 O    1.579     5 C    1.108     2 O    1.053
     4   8 O    1.853 --     3 C    1.579     2 O    0.111
     5   6 C    3.914 --    24 C    1.269     6 N    1.156     3 C    1.108
                            25 O    0.130
     6   7 N    3.034 --     7 C    1.638     5 C    1.156
     7   6 C    3.933 --     6 N    1.638    21 N    1.084     8 C    0.979
     8   6 C    3.913 --    10 C    0.993     9 C    0.982     7 C    0.979
                            11 N    0.892
     9   6 C    3.988 --    29 H    0.984    31 H    0.984     8 C    0.982
                            30 H    0.981
    10   6 C    3.990 --     8 C    0.993    34 H    0.985    33 H    0.984
                            32 H    0.982
    11   7 N    3.386 --    12 C    1.303    35 H    0.893     8 C    0.892
                            13 O    0.202
    12   6 C    3.927 --    13 O    1.604    11 N    1.303    14 C    0.949
    13   8 O    1.935 --    12 C    1.604    11 N    0.202
    14   6 C    3.836 --    15 N    1.607    20 O    1.065    12 C    0.949
    15   7 N    2.990 --    14 C    1.607    16 N    1.149
    16   7 N    3.631 --    18 C    1.423    15 N    1.149    17 C    0.910
    17   6 C    3.885 --    37 H    0.978    36 H    0.971    38 H    0.967
                            16 N    0.910
    18   6 C    3.844 --    16 N    1.423    20 O    1.157    19 C    1.041
    19   6 C    3.962 --    18 C    1.041    41 H    0.970    39 H    0.957
                            40 H    0.937
    20   8 O    2.389 --    18 C    1.157    14 C    1.065
    21   7 N    3.416 --    22 C    1.152     7 C    1.084    42 H    0.898
                            23 O    0.135
    22   6 C    3.875 --    23 O    1.587    21 N    1.152    24 C    0.965
    23   8 O    1.867 --    22 C    1.587    21 N    0.135
    24   6 C    3.943 --    25 O    1.527     5 C    1.269    22 C    0.965
    25   8 O    1.832 --    24 C    1.527     5 C    0.130
    26   1 H    1.014 --     1 C    0.980
    27   1 H    1.013 --     1 C    0.981
    28   1 H    1.015 --     1 C    0.987
    29   1 H    1.002 --     9 C    0.984
    30   1 H    1.007 --     9 C    0.981
    31   1 H    1.002 --     9 C    0.984
    32   1 H    1.013 --    10 C    0.982
    33   1 H    1.007 --    10 C    0.984
    34   1 H    1.007 --    10 C    0.985
    35   1 H    0.942 --    11 N    0.893
    36   1 H    0.989 --    17 C    0.971
    37   1 H    0.992 --    17 C    0.978
    38   1 H    0.990 --    17 C    0.967
    39   1 H    0.987 --    19 C    0.957
    40   1 H    0.985 --    19 C    0.937
    41   1 H    0.986 --    19 C    0.970
    42   1 H    0.944 --    21 N    0.898
 ---------------------------------------------------------------------------

           -------------------------------------------------
          | TOTAL ENERGY              -82.978057230530 Eh   |
          | GRADIENT NORM               0.000724492100 Eh/α |
          | HOMO-LUMO GAP               0.453718409246 eV   |
           -------------------------------------------------

 * finished run on 2023/06/21 at 17:23:11.670
