   * xtb version 6.5.1 (579679a) compiled by 'ehlert@majestix' on 2022-07-11
          program call               : /lustre/hpc/kemi/ree/PhD/git/ReactivityQM/dep/xtb-6.5.1/bin/xtb --gfn 1 /lustre/hpc/kemi/ree/PhD/git/ReactivityQM/calculations/RaltegravirCLI/reac01prodN07/conf04/RaltegravirCLI_reac01prodN07_conf04_gfn1.xyz --opt --vfukui --chrg 1 --uhf 0 --alpb DMSO

   ID    Z sym.   atoms
    1    6 C      1, 3, 5, 8, 9
    2    8 O      2, 10
    3   17 Cl     4
    4    7 N      6, 7
    5    1 H      11-16

      * Solvation model:               ALPB
        Solvent                        DMSO
        Solvent mass                       7.8130E+01 g/mol
          :  Hamiltonian                  GFN1-xTB          :
 * total energy  :   -33.4099896 Eh     change       -0.3446132E-11 Eh
 * total energy  :   -33.4178924 Eh     change       -0.7902789E-02 Eh
 * total energy  :   -33.4202730 Eh     change       -0.2380668E-02 Eh
 * total energy  :   -33.4205621 Eh     change       -0.2890592E-03 Eh
 * total energy  :   -33.4206641 Eh     change       -0.1020417E-03 Eh
 * total energy  :   -33.4206759 Eh     change       -0.1173438E-04 Eh
 * total energy  :   -33.4206826 Eh     change       -0.6710031E-05 Eh
 * total energy  :   -33.4206846 Eh     change       -0.2058960E-05 Eh
   *** GEOMETRY OPTIMIZATION CONVERGED AFTER 8 ITERATIONS ***

 final structure:
================
16
 xtb: 6.5.1 (579679a)
C           -3.62431650185937        0.00401523938542        0.45024612025730
O           -2.23181621646582        0.21993190842409        0.72165977670192
C           -1.29080090608248       -0.17265666985531       -0.05130103246726
Cl          -1.58614109918424       -0.98060077380832       -1.47210846650751
C            0.03981694833016        0.11507569394238        0.35773195579317
N            0.44678489882798        0.74883715180775        1.44091208247970
N            1.76904521126247        0.78254283380262        1.39923549252141
C            2.14491593974429        0.16742345111017        0.29261458152609
C            3.51735997132978       -0.06777714651383       -0.18098437654497
O            1.09581817381291       -0.26689896061128       -0.39339430271632
H           -3.89815250182573        0.52878757504744       -0.46563621451722
H           -4.15753754308772        0.40746397350638        1.30826941765481
H           -3.81062986233480       -1.06419009950912        0.33581880542696
H            3.53087214282725       -0.14017141781277       -1.26653521871626
H            3.88140503045521       -1.01240611741331        0.22977270870913
H            4.17337631425008        0.73062135849771        0.16095267039900

          :  Hamiltonian                  GFN1-xTB          :
         :: total energy             -33.420684634959 Eh    ::
         :: gradient norm              0.000613494637 Eh/a0 ::
         :: HOMO-LUMO gap              2.371701170868 eV    ::
         :: SCC energy               -33.698871798952 Eh    ::
         :: -> Gsolv                  -0.081869560613 Eh    ::
         :: repulsion energy           0.284953619449 Eh    ::

    * Orbital Energies and Occupations

         #    Occupation            Energy/Eh            Energy/eV
      -------------------------------------------------------------
         1        2.0000           -1.0206027             -27.7720
       ...           ...                  ...                  ...
        15        2.0000           -0.6352417             -17.2858
        16        2.0000           -0.5990778             -16.3017
        17        2.0000           -0.5848423             -15.9144
        18        2.0000           -0.5810685             -15.8117
        19        2.0000           -0.5720706             -15.5668
        20        2.0000           -0.5599017             -15.2357
        21        2.0000           -0.5586604             -15.2019
        22        2.0000           -0.5567633             -15.1503
        23        2.0000           -0.5444535             -14.8153
        24        2.0000           -0.5348245             -14.5533
        25        2.0000           -0.5279544             -14.3664
        26        2.0000           -0.5017922             -13.6545
        27        2.0000           -0.4984084             -13.5624 (HOMO)
        28                         -0.4112500             -11.1907 (LUMO)
        29                         -0.3049811              -8.2990
        30                         -0.2830235              -7.7015
        31                         -0.2636209              -7.1735
        32                         -0.1743796              -4.7451
        33                         -0.1615964              -4.3973
        34                         -0.1464880              -3.9861
        35                         -0.1445293              -3.9328
        36                         -0.1440572              -3.9200
        37                         -0.1086942              -2.9577
        38                         -0.1033290              -2.8117
       ...                                ...                  ...
        57                          0.5297331              14.4148
      -------------------------------------------------------------
                  HL-Gap            0.0871584 Eh            2.3717 eV

Wiberg/Mayer (AO) data.
largest (>0.10) Wiberg bond orders for each atom

     #   Z sym  total        # sym  WBO       # sym  WBO       # sym  WBO
 ---------------------------------------------------------------------------
     1   6 C    3.808 --    12 H    0.977    13 H    0.966    11 H    0.965
                             2 O    0.848
     2   8 O    2.355 --     3 C    1.301     1 C    0.848     4 Cl   0.107
     3   6 C    3.883 --     2 O    1.301     4 Cl   1.230     5 C    1.175
     4  17 Cl   1.480 --     3 C    1.230     2 O    0.107
     5   6 C    3.886 --     6 N    1.458     3 C    1.175    10 O    1.038
     6   7 N    3.023 --     5 C    1.458     7 N    1.341
     7   7 N    2.996 --     8 C    1.457     6 N    1.341
     8   6 C    3.840 --     7 N    1.457    10 O    1.128     9 C    1.049
     9   6 C    3.972 --     8 C    1.049    14 H    0.968    16 H    0.967
                            15 H    0.934
    10   8 O    2.349 --     8 C    1.128     5 C    1.038
    11   1 H    0.995 --     1 C    0.965
    12   1 H    0.997 --     1 C    0.977
    13   1 H    0.996 --     1 C    0.966
    14   1 H    0.990 --     9 C    0.968
    15   1 H    0.986 --     9 C    0.934
    16   1 H    0.990 --     9 C    0.967
 ---------------------------------------------------------------------------

           -------------------------------------------------
          | TOTAL ENERGY              -33.420684634959 Eh   |
          | GRADIENT NORM               0.000613494637 Eh/α |
          | HOMO-LUMO GAP               2.371701170868 eV   |
           -------------------------------------------------

 * finished run on 2023/06/20 at 14:55:32.267
