   * xtb version 6.5.1 (579679a) compiled by 'ehlert@majestix' on 2022-07-11
          program call               : /lustre/hpc/kemi/ree/PhD/git/ReactivityQM/dep/xtb-6.5.1/bin/xtb --gfn 1 /lustre/hpc/kemi/ree/PhD/git/ReactivityQM/calculations/RaltegravirCLI/reac02prodE08/conf06/RaltegravirCLI_reac02prodE08_conf06_gfn1.xyz --opt --vfukui --chrg -1 --uhf 0 --alpb DMSO

   ID    Z sym.   atoms
    1    6 C      1-5, 7, 9, 11-14, 17, 18, 20, 22-24
    2    7 N      6, 10, 15, 16
    3    8 O      8, 19, 21
    4    9 F      25
    5    1 H      26-47

      * Solvation model:               ALPB
        Solvent                        DMSO
        Solvent mass                       7.8130E+01 g/mol
          :  Hamiltonian                  GFN1-xTB          :
 * total energy  :   -80.1722433 Eh     change       -0.8977707E-09 Eh
 * total energy  :   -80.1815290 Eh     change       -0.9285718E-02 Eh
 * total energy  :   -80.1839332 Eh     change       -0.2404218E-02 Eh
 * total energy  :   -80.1843863 Eh     change       -0.4531235E-03 Eh
 * total energy  :   -80.1847804 Eh     change       -0.3940615E-03 Eh
 * total energy  :   -80.1850111 Eh     change       -0.2306750E-03 Eh
 * total energy  :   -80.1852226 Eh     change       -0.2115833E-03 Eh
 * total energy  :   -80.1853784 Eh     change       -0.1557242E-03 Eh
 * total energy  :   -80.1854581 Eh     change       -0.7969373E-04 Eh
 * total energy  :   -80.1855188 Eh     change       -0.6069112E-04 Eh
 * total energy  :   -80.1873191 Eh     change       -0.1849325E-04 Eh
 * total energy  :   -80.1873343 Eh     change       -0.1514700E-04 Eh
 * total energy  :   -80.1873474 Eh     change       -0.1319869E-04 Eh
 * total energy  :   -80.1873552 Eh     change       -0.7743590E-05 Eh
 * total energy  :   -80.1873633 Eh     change       -0.8147126E-05 Eh
 * total energy  :   -80.1873723 Eh     change       -0.8935662E-05 Eh
 * total energy  :   -80.1873809 Eh     change       -0.8578040E-05 Eh
 * total energy  :   -80.1873866 Eh     change       -0.5767858E-05 Eh
 * total energy  :   -80.1873901 Eh     change       -0.3521244E-05 Eh
   *** GEOMETRY OPTIMIZATION CONVERGED AFTER 75 ITERATIONS ***

 final structure:
================
47
 xtb: 6.5.1 (579679a)
C            6.35249507734771        1.81320754635967       -1.03362331984741
C            6.10713965986470        0.29047861997084       -0.82288000056240
C            4.79891070833047       -0.14714803168602       -1.44610449604579
C            3.71505647289563       -0.53987660280835       -0.71047534535531
C            2.43490667363651       -0.91488047326847       -1.43268242235048
N            1.28349994875568       -0.23759167782744       -0.84358962775128
C            0.14867448322928       -0.89498969230382       -0.52222603964213
O            0.03048786946144       -2.11643087183724       -0.66021483103425
C           -0.96624465374913       -0.06497810366551        0.01128863652484
N           -2.14250569879131       -0.75273664151490        0.17033889083321
C           -3.22113797304963       -0.19555128420504        0.61315629416045
C           -4.46388159129350       -1.07941370086089        0.66329783102370
C           -4.05564518003706       -2.54112043974170        0.41418613616262
C           -5.44989165232956       -0.63953130513170       -0.42828752756787
N           -5.11777997311345       -0.97297414615916        1.96847549652565
N           -3.25610586733756        1.13735405159694        0.96514683328558
C           -4.43792046728438        1.84622234510409        1.44962720071671
C           -2.11847027488881        1.93237084340114        0.83335951151016
O           -2.13527041877660        3.13828188428672        1.12412580621732
C           -0.94480124188305        1.27428676936498        0.34386000621206
O            0.15681996904954        2.07068922168260        0.23621956113297
C            3.75522311713106       -0.66878771335832        0.69292157600645
C            4.99085722358240       -0.44079668912103        1.34544136034083
C            6.06926489780183       -0.04701238737256        0.63604867211709
F            7.27814438280694        0.11574655439150        1.28149214465151
H            7.31032079138075        2.10380937037711       -0.60086750893273
H            5.55930398860148        2.38930335691690       -0.55675734792336
H            6.36163009537529        2.04376772181627       -2.09874974268349
H            6.95660035724321       -0.22701575591395       -1.30709995494802
H            4.74572419451951       -0.09265107987320       -2.52904926747083
H            2.50161636470717       -0.64902574925388       -2.49603545239714
H            2.25705169045694       -1.99599636892118       -1.36507979998378
H            1.32559451344728        0.76685437557102       -0.79521839266857
H           -3.61838357346973       -2.65120886176438       -0.57791928988171
H           -4.93462940123908       -3.17878221260474        0.48927937333699
H           -3.32456378776887       -2.85899592090032        1.15684265859178
H           -6.28710210642318       -1.33491614171152       -0.46809083368399
H           -4.95394171261255       -0.63214546268792       -1.39880046895966
H           -5.84055662332421        0.35543888810803       -0.22608065089602
H           -6.00615255028229       -1.45070113958589        1.93134880941453
H           -4.55351705993917       -1.42879707671299        2.67341893199442
H           -5.13025714409626        1.15149224835441        1.91672303982506
H           -4.92556587372919        2.36172378630096        0.62040462362533
H           -4.11548971260925        2.58768510111627        2.18229685370363
H           -0.10673117340377        2.96791034116883        0.51094365754675
H            2.88367144455500       -0.97956694850432        1.25492130903237
H            5.08355378724493       -0.61300054660070        2.41351110610195

          :  Hamiltonian                  GFN1-xTB          :
         :: total energy             -80.187390142680 Eh    ::
         :: gradient norm              0.000297959545 Eh/a0 ::
         :: HOMO-LUMO gap              0.104150033044 eV    ::
         :: SCC energy               -81.044457243198 Eh    ::
         :: -> Gsolv                  -0.104637013005 Eh    ::
         :: repulsion energy           0.886321990663 Eh    ::

    * Orbital Energies and Occupations

         #    Occupation            Energy/Eh            Energy/eV
      -------------------------------------------------------------
         1        2.0000           -0.8041730             -21.8827
       ...           ...                  ...                  ...
        56        2.0000           -0.4572229             -12.4417
        57        2.0000           -0.4436141             -12.0714
        58        2.0000           -0.4409459             -11.9987
        59        2.0000           -0.4368141             -11.8863
        60        2.0000           -0.4271865             -11.6243
        61        2.0000           -0.4235210             -11.5246
        62        2.0000           -0.4216101             -11.4726
        63        2.0000           -0.4119730             -11.2104
        64        2.0000           -0.4059850             -11.0474
        65        2.0000           -0.4043287             -11.0023
        66        2.0000           -0.3964640             -10.7883
        67        2.0000           -0.3835718             -10.4375
        68        1.7646           -0.2942133              -8.0060 (HOMO)
        69        0.2354           -0.2903859              -7.9018 (LUMO)
        70                         -0.2514178              -6.8414
        71                         -0.2016452              -5.4870
        72                         -0.1991495              -5.4191
        73                         -0.1306231              -3.5544
        74                         -0.1285415              -3.4978
        75                         -0.1227859              -3.3412
        76                         -0.1155733              -3.1449
        77                         -0.1090579              -2.9676
        78                         -0.0946008              -2.5742
        79                         -0.0936899              -2.5494
       ...                                ...                  ...
       144                          0.7101816              19.3250
      -------------------------------------------------------------
                  HL-Gap            0.0038274 Eh            0.1042 eV

Wiberg/Mayer (AO) data.
largest (>0.10) Wiberg bond orders for each atom

     #   Z sym  total        # sym  WBO       # sym  WBO       # sym  WBO
 ---------------------------------------------------------------------------
     1   6 C    3.971 --    27 H    0.989    28 H    0.988    26 H    0.988
                             2 C    0.964
     2   6 C    3.992 --    24 C    1.007     3 C    1.005     1 C    0.964
                            29 H    0.961
     3   6 C    3.814 --     4 C    1.591     2 C    1.005    30 H    0.974
     4   6 C    3.984 --     3 C    1.591    22 C    1.309     5 C    0.988
     5   6 C    3.942 --     4 C    0.988    31 H    0.974    32 H    0.968
                             6 N    0.938
     6   7 N    3.326 --     7 C    1.252     5 C    0.938    33 H    0.898
                             8 O    0.162
     7   6 C    3.881 --     8 O    1.527     6 N    1.252     9 C    1.023
     8   8 O    1.808 --     7 C    1.527     6 N    0.162
     9   6 C    3.868 --    20 C    1.422    10 N    1.185     7 C    1.023
    10   7 N    3.029 --    11 C    1.580     9 C    1.185
    11   6 C    3.894 --    10 N    1.580    16 N    1.146    12 C    0.975
    12   6 C    3.966 --    13 C    0.992    14 C    0.986    15 N    0.978
                            11 C    0.975
    13   6 C    3.995 --    12 C    0.992    35 H    0.986    36 H    0.984
                            34 H    0.983
    14   6 C    3.993 --    12 C    0.986    38 H    0.986    37 H    0.984
                            39 H    0.982
    15   7 N    2.992 --    12 C    0.978    41 H    0.942    40 H    0.942
    16   7 N    3.421 --    11 C    1.146    18 C    1.093    17 C    0.937
                            19 O    0.115
    17   6 C    3.933 --    43 H    0.978    44 H    0.977    42 H    0.970
                            16 N    0.937
    18   6 C    3.871 --    19 O    1.488    20 C    1.154    16 N    1.093
    19   8 O    1.817 --    18 C    1.488    16 N    0.115
    20   6 C    3.829 --     9 C    1.422    18 C    1.154    21 O    1.039
    21   8 O    2.023 --    20 C    1.039    45 H    0.815
    22   6 C    3.774 --     4 C    1.309    23 C    1.274    46 H    0.978
    23   6 C    3.990 --    24 C    1.624    22 C    1.274    47 H    0.971
    24   6 C    3.690 --    23 C    1.624     2 C    1.007    25 F    0.859
    25   9 F    0.965 --    24 C    0.859
    26   1 H    1.010 --     1 C    0.988
    27   1 H    1.017 --     1 C    0.989
    28   1 H    1.010 --     1 C    0.988
    29   1 H    1.006 --     2 C    0.961
    30   1 H    1.002 --     3 C    0.974
    31   1 H    1.010 --     5 C    0.974
    32   1 H    1.021 --     5 C    0.968
    33   1 H    0.959 --     6 N    0.898
    34   1 H    1.015 --    13 C    0.983
    35   1 H    1.005 --    13 C    0.986
    36   1 H    1.012 --    13 C    0.984
    37   1 H    1.001 --    14 C    0.984
    38   1 H    1.004 --    14 C    0.986
    39   1 H    1.005 --    14 C    0.982
    40   1 H    0.957 --    15 N    0.942
    41   1 H    0.959 --    15 N    0.942
    42   1 H    1.031 --    17 C    0.970
    43   1 H    1.004 --    17 C    0.978
    44   1 H    1.012 --    17 C    0.977
    45   1 H    0.861 --    21 O    0.815
    46   1 H    1.004 --    22 C    0.978
    47   1 H    1.006 --    23 C    0.971
 ---------------------------------------------------------------------------

           -------------------------------------------------
          | TOTAL ENERGY              -80.187390142680 Eh   |
          | GRADIENT NORM               0.000297959545 Eh/α |
          | HOMO-LUMO GAP               0.104150033044 eV   |
           -------------------------------------------------

 * finished run on 2023/06/20 at 15:07:12.085
