   * xtb version 6.5.1 (579679a) compiled by 'ehlert@majestix' on 2022-07-11
          program call               : /lustre/hpc/kemi/ree/PhD/git/ReactivityQM/dep/xtb-6.5.1/bin/xtb --gfn 1 /lustre/hpc/kemi/ree/PhD/git/ReactivityQM/calculations/R01/reac01prodE01/conf06/R01_reac01prodE01_conf06_gfn1.xyz --opt --vfukui --chrg -1 --uhf 0 --alpb DMSO

   ID    Z sym.   atoms
    1    6 C      1, 3, 4, 6, 9, 10
    2    8 O      2, 5, 11
    3    7 N      7, 8
    4    1 H      12-20

      * Solvation model:               ALPB
        Solvent                        DMSO
        Solvent mass                       7.8130E+01 g/mol
          :  Hamiltonian                  GFN1-xTB          :
 * total energy  :   -38.3288875 Eh     change       -0.4050094E-11 Eh
 * total energy  :   -38.3377011 Eh     change       -0.8813519E-02 Eh
 * total energy  :   -38.3408757 Eh     change       -0.3174649E-02 Eh
 * total energy  :   -38.3414544 Eh     change       -0.5787118E-03 Eh
 * total energy  :   -38.3417051 Eh     change       -0.2507060E-03 Eh
 * total energy  :   -38.3418086 Eh     change       -0.1034679E-03 Eh
 * total energy  :   -38.3418975 Eh     change       -0.8894493E-04 Eh
 * total energy  :   -38.3419730 Eh     change       -0.7550083E-04 Eh
 * total energy  :   -38.3420245 Eh     change       -0.5144666E-04 Eh
 * total energy  :   -38.3420668 Eh     change       -0.4230646E-04 Eh
 * total energy  :   -38.3443957 Eh     change       -0.1582807E-04 Eh
 * total energy  :   -38.3444258 Eh     change       -0.3008810E-04 Eh
 * total energy  :   -38.3444378 Eh     change       -0.1200953E-04 Eh
 * total energy  :   -38.3444596 Eh     change       -0.2178084E-04 Eh
 * total energy  :   -38.3444669 Eh     change       -0.7369304E-05 Eh
 * total energy  :   -38.3444685 Eh     change       -0.1541506E-05 Eh
 * total energy  :   -38.3444810 Eh     change       -0.1255638E-04 Eh
 * total energy  :   -38.3444865 Eh     change       -0.5498641E-05 Eh
 * total energy  :   -38.3444905 Eh     change       -0.3934377E-05 Eh
   *** GEOMETRY OPTIMIZATION CONVERGED AFTER 64 ITERATIONS ***

 final structure:
================
20
 xtb: 6.5.1 (579679a)
C           -2.56990302479290        1.36654789746297       -1.01418532961196
O           -2.11693641640030        0.04865918212569       -0.81950244326116
C           -1.35575987048760       -0.15379989390956        0.46952047953354
C           -1.36439194110952       -1.70548630711378        0.62110744913942
O           -1.79475973162517        0.52010762903594        1.47310082705263
C            0.11839166287271        0.25862805908644        0.07608493527814
N            0.51190106370944        1.35769414707794       -0.48611529532523
N            1.89279146830944        1.31997424644833       -0.53175059447897
C            2.24035651797051        0.20415866551117        0.01337387725842
C            3.61403255423199       -0.31861378407008        0.21286063067318
O            1.17554141706640       -0.51514970429018        0.42214876785022
H           -3.32667472198761        1.35109629717330       -1.80463742964241
H           -3.02680839697121        1.77762004105402       -0.10038364474067
H           -1.75259373248866        2.03901799169819       -1.32524226274503
H           -2.38849554275712       -2.02599776199195        0.80237100505483
H           -0.98471546479229       -2.18697561773118       -0.27789758069488
H           -0.74644900853061       -1.97995681285662        1.47325539674271
H            4.33012193630083        0.34656236991023       -0.26369579569557
H            3.70284647682957       -1.31564472637591       -0.21722369597275
H            3.84150475465251       -0.38844291824400        1.27680970358780

          :  Hamiltonian                  GFN1-xTB          :
         :: total energy             -38.344490473169 Eh    ::
         :: gradient norm              0.000863076618 Eh/a0 ::
         :: HOMO-LUMO gap              3.300261365281 eV    ::
         :: SCC energy               -38.654092351379 Eh    ::
         :: -> Gsolv                  -0.104108350503 Eh    ::
         :: repulsion energy           0.318121206452 Eh    ::

    * Orbital Energies and Occupations

         #    Occupation            Energy/Eh            Energy/eV
      -------------------------------------------------------------
         1        2.0000           -0.8216834             -22.3591
       ...           ...                  ...                  ...
        19        2.0000           -0.5106207             -13.8947
        20        2.0000           -0.5009056             -13.6303
        21        2.0000           -0.4793861             -13.0448
        22        2.0000           -0.4716947             -12.8355
        23        2.0000           -0.4632537             -12.6058
        24        2.0000           -0.4620967             -12.5743
        25        2.0000           -0.4467598             -12.1570
        26        2.0000           -0.4400712             -11.9749
        27        2.0000           -0.4172580             -11.3542
        28        2.0000           -0.4136789             -11.2568
        29        2.0000           -0.4046700             -11.0116
        30        2.0000           -0.3683104             -10.0222
        31        2.0000           -0.3498315              -9.5194 (HOMO)
        32                         -0.2285491              -6.2191 (LUMO)
        33                         -0.2127142              -5.7882
        34                         -0.1305470              -3.5524
        35                         -0.1003150              -2.7297
        36                         -0.0831649              -2.2630
        37                         -0.0633731              -1.7245
        38                         -0.0624661              -1.6998
        39                         -0.0375892              -1.0229
        40                         -0.0304307              -0.8281
        41                         -0.0282686              -0.7692
        42                         -0.0262774              -0.7150
       ...                                ...                  ...
        62                          0.6114791              16.6392
      -------------------------------------------------------------
                  HL-Gap            0.1212824 Eh            3.3003 eV

Wiberg/Mayer (AO) data.
largest (>0.10) Wiberg bond orders for each atom

     #   Z sym  total        # sym  WBO       # sym  WBO       # sym  WBO
 ---------------------------------------------------------------------------
     1   6 C    3.932 --    12 H    0.985    14 H    0.978    13 H    0.975
                             2 O    0.971
     2   8 O    1.943 --     1 C    0.971     3 C    0.789
     3   6 C    3.899 --     5 O    1.254     4 C    0.942     6 C    0.865
                             2 O    0.789
     4   6 C    3.994 --    16 H    0.990    17 H    0.987    15 H    0.987
                             3 C    0.942
     5   8 O    1.550 --     3 C    1.254
     6   6 C    3.803 --     7 N    1.659    11 O    1.045     3 C    0.865
     7   7 N    2.981 --     6 C    1.659     8 N    1.147
     8   7 N    2.976 --     9 C    1.657     7 N    1.147
     9   6 C    3.887 --     8 N    1.657    11 O    1.061    10 C    1.024
    10   6 C    3.993 --     9 C    1.024    18 H    0.985    19 H    0.972
                            20 H    0.968
    11   8 O    2.291 --     9 C    1.061     6 C    1.045
    12   1 H    1.023 --     1 C    0.985
    13   1 H    1.033 --     1 C    0.975
    14   1 H    1.034 --     1 C    0.978
    15   1 H    1.017 --     4 C    0.987
    16   1 H    1.012 --     4 C    0.990
    17   1 H    1.016 --     4 C    0.987
    18   1 H    1.002 --    10 C    0.985
    19   1 H    1.001 --    10 C    0.972
    20   1 H    1.002 --    10 C    0.968
 ---------------------------------------------------------------------------

           -------------------------------------------------
          | TOTAL ENERGY              -38.344490473169 Eh   |
          | GRADIENT NORM               0.000863076618 Eh/α |
          | HOMO-LUMO GAP               3.300261365281 eV   |
           -------------------------------------------------

 * finished run on 2023/06/20 at 14:52:36.759
