   * xtb version 6.5.1 (579679a) compiled by 'ehlert@majestix' on 2022-07-11
          program call               : /lustre/hpc/kemi/ree/PhD/git/ReactivityQM/dep/xtb-6.5.1/bin/xtb --gfn 1 /lustre/hpc/kemi/ree/PhD/git/ReactivityQM/calculations/RaltegravirCLI/reac02prodE10/conf12/RaltegravirCLI_reac02prodE10_conf12_gfn1.xyz --opt --vfukui --chrg -1 --uhf 0 --alpb DMSO

   ID    Z sym.   atoms
    1    6 C      1, 3, 5, 6, 8, 9, 12-16, 18, 19, 21-24
    2    7 N      2, 11, 20, 25
    3    8 O      4, 7, 10
    4    9 F      17
    5    1 H      26-47

      * Solvation model:               ALPB
        Solvent                        DMSO
        Solvent mass                       7.8130E+01 g/mol
          :  Hamiltonian                  GFN1-xTB          :
 * total energy  :   -80.2100185 Eh     change       -0.1635669E-10 Eh
 * total energy  :   -80.2203716 Eh     change       -0.1035314E-01 Eh
 * total energy  :   -80.2233636 Eh     change       -0.2991925E-02 Eh
 * total energy  :   -80.2238435 Eh     change       -0.4799863E-03 Eh
 * total energy  :   -80.2242288 Eh     change       -0.3852792E-03 Eh
 * total energy  :   -80.2243864 Eh     change       -0.1575944E-03 Eh
 * total energy  :   -80.2245679 Eh     change       -0.1814828E-03 Eh
 * total energy  :   -80.2246761 Eh     change       -0.1082232E-03 Eh
 * total energy  :   -80.2247484 Eh     change       -0.7224352E-04 Eh
 * total energy  :   -80.2247998 Eh     change       -0.5147120E-04 Eh
 * total energy  :   -80.2259649 Eh     change       -0.1239980E-04 Eh
 * total energy  :   -80.2259783 Eh     change       -0.1346904E-04 Eh
 * total energy  :   -80.2259841 Eh     change       -0.5806038E-05 Eh
 * total energy  :   -80.2259917 Eh     change       -0.7529380E-05 Eh
 * total energy  :   -80.2260042 Eh     change       -0.1255856E-04 Eh
 * total energy  :   -80.2260146 Eh     change       -0.1041399E-04 Eh
 * total energy  :   -80.2260207 Eh     change       -0.6002029E-05 Eh
 * total energy  :   -80.2260268 Eh     change       -0.6132252E-05 Eh
 * total energy  :   -80.2260305 Eh     change       -0.3711290E-05 Eh
   *** GEOMETRY OPTIMIZATION CONVERGED AFTER 54 ITERATIONS ***

 final structure:
================
47
 xtb: 6.5.1 (579679a)
C           -4.05026878524163       -0.12414897055824       -1.45729195733260
N           -2.65427776051244        0.02413206808892       -1.04203675586818
C           -1.75016118047408       -0.01531052204080       -2.04052587096452
O           -2.08046619784879       -0.14829882199060       -3.22790921974285
C           -0.26260412677819        0.07758538994052       -1.67987616205772
C            0.24931145340115       -1.36837965409225       -1.44670565237134
O            0.39690483327925        0.62141363195084       -2.81820523697498
C           -0.08252411425759        0.92518323249225       -0.43764844926136
C            1.13392370841269        1.52320900636183       -0.02833445964360
O            1.30120351179287        2.11689379621108        1.06172435812075
N            2.20223015884186        1.51777638963962       -0.96158976596015
C            3.54138695481206        1.68282553318254       -0.40992130796227
C            4.00836139765224        0.40358634666893        0.25412112188984
C            4.69703848273401       -0.55748399949544       -0.48365055236570
C            5.09713735205872       -1.75204225476129        0.10070549189150
C            4.78951131964398       -1.96296523452348        1.43160478105367
F            5.17780658265378       -3.11783864800572        2.00927096975294
C            4.10343923741310       -1.03595220243019        2.19512946622943
C            3.71283414916305        0.15180881963754        1.59333695225520
N           -1.09086602522396        0.92059031455864        0.48015735930365
C           -2.27313847487108        0.46433540144986        0.26709271613741
C           -3.23331754738469        0.35217575761933        1.44022675741913
C           -2.51989048836883        0.83904209793029        2.71395076108100
C           -3.67031175682456       -1.10641567019656        1.64521278998488
N           -4.43507402649784        1.17287359223623        1.22109818474706
H           -4.19719356830115        0.39496999399658       -2.40765657822891
H           -4.28380160039968       -1.18147833228066       -1.59860303855816
H           -4.71782560174743        0.30173400863838       -0.71264358734803
H            0.08440818101214       -1.97112393883319       -2.33867033403555
H           -0.28082284128962       -1.81543948897844       -0.60717618189198
H            1.31537245587622       -1.34488054799552       -1.22500838379790
H           -0.13132741602802        0.38085073656556       -3.59916210580752
H            2.16967576858457        0.76143696999975       -1.63423531878894
H            4.21842646077380        1.94882852982829       -1.22781578984214
H            3.52483249418525        2.50515178436899        0.31352716973707
H            4.93447313947866       -0.37247435421566       -1.52517700083536
H            5.63844462074082       -2.50154455000873       -0.46121803450427
H            3.88661992302409       -1.24191759916223        3.23540657815109
H            3.17139398522031        0.89367444947091        2.17151501395826
H           -2.17595980086222        1.86512375505706        2.58408791986739
H           -1.65788165436582        0.20807604962980        2.93051371306820
H           -3.20845228903171        0.80160777643688        3.55694605472844
H           -2.79386030113810       -1.73922564202123        1.78506926801945
H           -4.30218722502401       -1.18603835155833        2.52940868838149
H           -4.23286135377884       -1.47391533009046        0.78904883165591
H           -5.08615689255836        1.00888080375119        1.97494422807961
H           -4.18350514194512        2.15310587751882        1.24465556863282

          :  Hamiltonian                  GFN1-xTB          :
         :: total energy             -80.226030494206 Eh    ::
         :: gradient norm              0.000322412384 Eh/a0 ::
         :: HOMO-LUMO gap              1.605419318157 eV    ::
         :: SCC energy               -81.081177654584 Eh    ::
         :: -> Gsolv                  -0.106692138524 Eh    ::
         :: repulsion energy           0.886942885991 Eh    ::

    * Orbital Energies and Occupations

         #    Occupation            Energy/Eh            Energy/eV
      -------------------------------------------------------------
         1        2.0000           -0.8518444             -23.1799
       ...           ...                  ...                  ...
        56        2.0000           -0.4577369             -12.4557
        57        2.0000           -0.4556977             -12.4002
        58        2.0000           -0.4541207             -12.3573
        59        2.0000           -0.4432506             -12.0615
        60        2.0000           -0.4365969             -11.8804
        61        2.0000           -0.4226798             -11.5017
        62        2.0000           -0.4133801             -11.2486
        63        2.0000           -0.4069838             -11.0746
        64        2.0000           -0.3970335             -10.8038
        65        2.0000           -0.3925774             -10.6826
        66        2.0000           -0.3805735             -10.3559
        67        2.0000           -0.3744634             -10.1897
        68        2.0000           -0.3176381              -8.6434 (HOMO)
        69                         -0.2586400              -7.0380 (LUMO)
        70                         -0.2505392              -6.8175
        71                         -0.2351891              -6.3998
        72                         -0.1938987              -5.2763
        73                         -0.1384738              -3.7681
        74                         -0.1294625              -3.5229
        75                         -0.1177045              -3.2029
        76                         -0.1071677              -2.9162
        77                         -0.1030022              -2.8028
        78                         -0.1001034              -2.7240
        79                         -0.0981062              -2.6696
       ...                                ...                  ...
       144                          0.6727390              18.3062
      -------------------------------------------------------------
                  HL-Gap            0.0589981 Eh            1.6054 eV

Wiberg/Mayer (AO) data.
largest (>0.10) Wiberg bond orders for each atom

     #   Z sym  total        # sym  WBO       # sym  WBO       # sym  WBO
 ---------------------------------------------------------------------------
     1   6 C    3.949 --    27 H    0.983    26 H    0.979    28 H    0.973
                             2 N    0.943
     2   7 N    3.432 --     3 C    1.267    21 C    0.966     1 C    0.943
                             4 O    0.145
     3   6 C    3.898 --     4 O    1.521     2 N    1.267     5 C    0.939
     4   8 O    1.854 --     3 C    1.521     2 N    0.145
     5   6 C    3.907 --     8 C    0.969     6 C    0.958     7 O    0.942
                             3 C    0.939
     6   6 C    3.996 --    30 H    0.987    29 H    0.986    31 H    0.984
                             5 C    0.958
     7   8 O    1.898 --     5 C    0.942    32 H    0.842
     8   6 C    3.855 --     9 C    1.284    20 N    1.218     5 C    0.969
                            21 C    0.115    10 O    0.101
     9   6 C    3.912 --    10 O    1.448     8 C    1.284    11 N    1.045
    10   8 O    1.770 --     9 C    1.448     8 C    0.101
    11   7 N    3.154 --     9 C    1.045    12 C    0.966    33 H    0.922
    12   6 C    3.973 --    13 C    0.995    34 H    0.979    35 H    0.973
                            11 N    0.966
    13   6 C    3.986 --    14 C    1.417    19 C    1.412    12 C    0.995
    14   6 C    3.994 --    15 C    1.440    13 C    1.417    36 H    0.972
                            18 C    0.109
    15   6 C    3.992 --    14 C    1.440    16 C    1.404    37 H    0.971
                            19 C    0.111
    16   6 C    3.856 --    15 C    1.404    18 C    1.401    17 F    0.913
    17   9 F    1.038 --    16 C    0.913
    18   6 C    3.992 --    19 C    1.445    16 C    1.401    38 H    0.971
                            14 C    0.109
    19   6 C    3.992 --    18 C    1.445    13 C    1.412    39 H    0.968
                            15 C    0.111
    20   7 N    3.067 --    21 C    1.612     8 C    1.218
    21   6 C    3.892 --    20 N    1.612    22 C    0.983     2 N    0.966
                             8 C    0.115
    22   6 C    3.964 --    23 C    0.992    24 C    0.991    21 C    0.983
                            25 N    0.967
    23   6 C    3.997 --    22 C    0.992    42 H    0.987    41 H    0.984
                            40 H    0.984
    24   6 C    3.993 --    22 C    0.991    43 H    0.986    44 H    0.985
                            45 H    0.983
    25   7 N    2.990 --    22 C    0.967    46 H    0.948    47 H    0.947
    26   1 H    1.015 --     1 C    0.979
    27   1 H    1.011 --     1 C    0.983
    28   1 H    1.034 --     1 C    0.973
    29   1 H    1.007 --     6 C    0.986
    30   1 H    1.010 --     6 C    0.987
    31   1 H    1.014 --     6 C    0.984
    32   1 H    0.892 --     7 O    0.842
    33   1 H    0.978 --    11 N    0.922
    34   1 H    1.012 --    12 C    0.979
    35   1 H    1.024 --    12 C    0.973
    36   1 H    1.001 --    14 C    0.972
    37   1 H    1.000 --    15 C    0.971
    38   1 H    1.000 --    18 C    0.971
    39   1 H    1.020 --    19 C    0.968
    40   1 H    1.019 --    23 C    0.984
    41   1 H    1.015 --    23 C    0.984
    42   1 H    1.007 --    23 C    0.987
    43   1 H    1.008 --    24 C    0.986
    44   1 H    1.003 --    24 C    0.985
    45   1 H    1.007 --    24 C    0.983
    46   1 H    0.963 --    25 N    0.948
    47   1 H    0.966 --    25 N    0.947
 ---------------------------------------------------------------------------

           -------------------------------------------------
          | TOTAL ENERGY              -80.226030494206 Eh   |
          | GRADIENT NORM               0.000322412384 Eh/α |
          | HOMO-LUMO GAP               1.605419318157 eV   |
           -------------------------------------------------

 * finished run on 2023/06/20 at 15:10:32.410
