   * xtb version 6.5.1 (579679a) compiled by 'ehlert@majestix' on 2022-07-11
          program call               : /lustre/hpc/kemi/ree/PhD/git/ReactivityQM/dep/xtb-6.5.1/bin/xtb --gfn 1 /lustre/hpc/kemi/ree/PhD/git/ReactivityQM/calculations/R01/reac02prodE03/conf02/R01_reac02prodE03_conf02_gfn1.xyz --opt --vfukui --chrg -1 --uhf 0 --alpb DMSO

   ID    Z sym.   atoms
    1    6 C      1, 3, 5, 6, 8-11, 14, 16
    2    8 O      2, 4, 15, 17
    3    7 N      7, 12, 13
    4    1 H      18-33

      * Solvation model:               ALPB
        Solvent                        DMSO
        Solvent mass                       7.8130E+01 g/mol
          :  Hamiltonian                  GFN1-xTB          :
 * total energy  :   -58.5308677 Eh     change       -0.3964828E-11 Eh
 * total energy  :   -58.5446022 Eh     change       -0.1373448E-01 Eh
 * total energy  :   -58.5482769 Eh     change       -0.3674679E-02 Eh
 * total energy  :   -58.5488093 Eh     change       -0.5324283E-03 Eh
 * total energy  :   -58.5491270 Eh     change       -0.3177215E-03 Eh
 * total energy  :   -58.5492189 Eh     change       -0.9192002E-04 Eh
 * total energy  :   -58.5492863 Eh     change       -0.6731357E-04 Eh
 * total energy  :   -58.5493216 Eh     change       -0.3530900E-04 Eh
 * total energy  :   -58.5493515 Eh     change       -0.2997460E-04 Eh
 * total energy  :   -58.5493809 Eh     change       -0.2938281E-04 Eh
 * total energy  :   -58.5512073 Eh     change       -0.1612900E-04 Eh
 * total energy  :   -58.5512237 Eh     change       -0.1646385E-04 Eh
 * total energy  :   -58.5512311 Eh     change       -0.7358026E-05 Eh
 * total energy  :   -58.5512409 Eh     change       -0.9819523E-05 Eh
 * total energy  :   -58.5512504 Eh     change       -0.9460193E-05 Eh
 * total energy  :   -58.5512568 Eh     change       -0.6434758E-05 Eh
 * total energy  :   -58.5512624 Eh     change       -0.5628369E-05 Eh
 * total energy  :   -58.5512680 Eh     change       -0.5585971E-05 Eh
 * total energy  :   -58.5512721 Eh     change       -0.4115003E-05 Eh
   *** GEOMETRY OPTIMIZATION CONVERGED AFTER 58 ITERATIONS ***

 final structure:
================
33
 xtb: 6.5.1 (579679a)
C            2.76446244165243        1.39744577598403        1.95645579802641
O            1.83053123968509        0.84539551264281        1.03320940294201
C            2.34277624353664        0.38305673838852       -0.12485734176076
O            3.53617366259591        0.44456448548961       -0.36669913861351
C            1.31425515905642       -0.33798900995574       -1.00378748955879
C            1.77298268208963       -0.28474034553390       -2.46738966306932
N            0.00266999089594        0.29633829498187       -0.89219955745497
C           -0.81424948844371       -0.12685139237958       -0.00186660702017
C           -2.15526163823921        0.57752122254345        0.15874333551146
C           -2.23841888966916        1.19847342590241        1.56494798367322
C           -3.30899275405637       -0.40951880190811       -0.06159191796440
N           -2.25801738950116        1.61701028987163       -0.86223587877455
N           -0.55768778305469       -1.15521652181095        0.85479706562134
C            0.42424401933282       -2.16465449520927        0.48855194534457
O            0.31831642912208       -3.30167544935604        1.03182293016133
C            1.31427523782503       -1.73723943326539       -0.44586441811802
O            2.31858797616289       -2.60946287501868       -0.94347737989080
H            3.51513048618663        0.65297866894359        2.23864480800929
H            2.19995901162530        1.70749927960277        2.83409525522512
H            3.27015962940878        2.26198220203089        1.51621534866660
H            1.09643019243691       -0.87430376914104       -3.08491943421140
H            1.76623716470909        0.74588224032358       -2.82172548639184
H            2.78156398463756       -0.68679777848459       -2.55917820777900
H           -3.18179793516216        1.72976117613219        1.68070149534901
H           -2.17691929001675        0.42597155178687        2.33041348438805
H           -1.42067304607907        1.90424184426312        1.70911267012475
H           -4.26139816137864        0.10866182264300        0.04236885209641
H           -3.24926460977852       -0.83060883118137       -1.06558811058756
H           -3.27607747535907       -1.21850433724138        0.66649423276441
H           -1.46381690019965        2.24351384700624       -0.77806554324815
H           -3.09370071632587        2.15786756187238       -0.69293757839940
H           -1.30945812266899       -1.50872711997810        1.42404077858169
H            2.19697864897322       -3.45187577994479       -0.48371263364443

          :  Hamiltonian                  GFN1-xTB          :
         :: total energy             -58.551272134485 Eh    ::
         :: gradient norm              0.000256823808 Eh/a0 ::
         :: HOMO-LUMO gap              2.004013074671 eV    ::
         :: SCC energy               -59.094341744803 Eh    ::
         :: -> Gsolv                  -0.111335923322 Eh    ::
         :: repulsion energy           0.562849321309 Eh    ::

    * Orbital Energies and Occupations

         #    Occupation            Energy/Eh            Energy/eV
      -------------------------------------------------------------
         1        2.0000           -0.8092834             -22.0217
       ...           ...                  ...                  ...
        36        2.0000           -0.4810170             -13.0891
        37        2.0000           -0.4793956             -13.0450
        38        2.0000           -0.4748729             -12.9219
        39        2.0000           -0.4709449             -12.8151
        40        2.0000           -0.4626965             -12.5906
        41        2.0000           -0.4546195             -12.3708
        42        2.0000           -0.4480264             -12.1914
        43        2.0000           -0.4333130             -11.7910
        44        2.0000           -0.3926348             -10.6841
        45        2.0000           -0.3903043             -10.6207
        46        2.0000           -0.3835258             -10.4363
        47        2.0000           -0.3720016             -10.1227
        48        2.0000           -0.3069920              -8.3537 (HOMO)
        49                         -0.2333459              -6.3497 (LUMO)
        50                         -0.2113512              -5.7512
        51                         -0.1276209              -3.4727
        52                         -0.1263658              -3.4386
        53                         -0.1141713              -3.1068
        54                         -0.1082124              -2.9446
        55                         -0.0973929              -2.6502
        56                         -0.0915293              -2.4906
        57                         -0.0673862              -1.8337
        58                         -0.0663259              -1.8048
        59                         -0.0642236              -1.7476
       ...                                ...                  ...
       100                          0.7075599              19.2537
      -------------------------------------------------------------
                  HL-Gap            0.0736461 Eh            2.0040 eV

Wiberg/Mayer (AO) data.
largest (>0.10) Wiberg bond orders for each atom

     #   Z sym  total        # sym  WBO       # sym  WBO       # sym  WBO
 ---------------------------------------------------------------------------
     1   6 C    3.893 --    19 H    0.987    20 H    0.981    18 H    0.981
                             2 O    0.915
     2   8 O    2.172 --     3 C    1.075     1 C    0.915     4 O    0.115
     3   6 C    3.811 --     4 O    1.625     2 O    1.075     5 C    0.922
     4   8 O    1.894 --     3 C    1.625     2 O    0.115
     5   6 C    3.967 --     6 C    0.988     7 N    0.973    16 C    0.954
                             3 C    0.922
     6   6 C    3.997 --     5 C    0.988    22 H    0.988    21 H    0.988
                            23 H    0.985
     7   7 N    2.969 --     8 C    1.681     5 C    0.973    13 N    0.156
     8   6 C    3.946 --     7 N    1.681    13 N    1.178     9 C    0.971
     9   6 C    3.968 --    11 C    0.990    12 N    0.988    10 C    0.980
                             8 C    0.971
    10   6 C    3.996 --    26 H    0.986    24 H    0.985    25 H    0.984
                             9 C    0.980
    11   6 C    3.996 --     9 C    0.990    28 H    0.986    27 H    0.985
                            29 H    0.984
    12   7 N    2.955 --     9 C    0.988    31 H    0.953    30 H    0.945
    13   7 N    3.300 --     8 C    1.178    32 H    0.915    14 C    0.909
                             7 N    0.156
    14   6 C    3.919 --    16 C    1.516    15 O    1.359    13 N    0.909
    15   8 O    1.703 --    14 C    1.359    16 C    0.170
    16   6 C    3.790 --    14 C    1.516     5 C    0.954    17 O    0.941
                            15 O    0.170
    17   8 O    1.913 --    16 C    0.941    33 H    0.860
    18   1 H    1.012 --     1 C    0.981
    19   1 H    1.015 --     1 C    0.987
    20   1 H    1.012 --     1 C    0.981
    21   1 H    1.012 --     6 C    0.988
    22   1 H    1.011 --     6 C    0.988
    23   1 H    1.017 --     6 C    0.985
    24   1 H    1.005 --    10 C    0.985
    25   1 H    1.005 --    10 C    0.984
    26   1 H    1.007 --    10 C    0.986
    27   1 H    1.003 --    11 C    0.985
    28   1 H    1.010 --    11 C    0.986
    29   1 H    1.005 --    11 C    0.984
    30   1 H    0.980 --    12 N    0.945
    31   1 H    0.967 --    12 N    0.953
    32   1 H    0.967 --    13 N    0.915
    33   1 H    0.892 --    17 O    0.860
 ---------------------------------------------------------------------------

           -------------------------------------------------
          | TOTAL ENERGY              -58.551272134485 Eh   |
          | GRADIENT NORM               0.000256823808 Eh/α |
          | HOMO-LUMO GAP               2.004013074671 eV   |
           -------------------------------------------------

 * finished run on 2023/06/20 at 14:58:51.195
