   * xtb version 6.5.1 (579679a) compiled by 'ehlert@majestix' on 2022-07-11
          program call               : /lustre/hpc/kemi/ree/PhD/git/ReactivityQM/dep/xtb-6.5.1/bin/xtb --gfn 1 /lustre/hpc/kemi/ree/PhD/git/ReactivityQM/calculations/RaltegravirCLI/reac02prodE04/conf02/RaltegravirCLI_reac02prodE04_conf02_gfn1.xyz --opt --vfukui --chrg -1 --uhf 0 --alpb DMSO

   ID    Z sym.   atoms
    1    6 C      1, 3, 5, 7-9, 12-16, 18, 19, 21-24
    2    7 N      2, 11, 20, 25
    3    8 O      4, 6, 10
    4    9 F      17
    5    1 H      26-47

      * Solvation model:               ALPB
        Solvent                        DMSO
        Solvent mass                       7.8130E+01 g/mol
          :  Hamiltonian                  GFN1-xTB          :
 * total energy  :   -80.1758692 Eh     change       -0.3173284E-10 Eh
 * total energy  :   -80.1920751 Eh     change       -0.1620594E-01 Eh
 * total energy  :   -80.1965809 Eh     change       -0.4505723E-02 Eh
 * total energy  :   -80.1976347 Eh     change       -0.1053859E-02 Eh
 * total energy  :   -80.1988190 Eh     change       -0.1184238E-02 Eh
 * total energy  :   -80.1994709 Eh     change       -0.6519381E-03 Eh
 * total energy  :   -80.2000829 Eh     change       -0.6119688E-03 Eh
 * total energy  :   -80.2007528 Eh     change       -0.6699490E-03 Eh
 * total energy  :   -80.2014041 Eh     change       -0.6512395E-03 Eh
 * total energy  :   -80.2018407 Eh     change       -0.4366603E-03 Eh
 * total energy  :   -80.2036263 Eh     change       -0.4511113E-04 Eh
 * total energy  :   -80.2036505 Eh     change       -0.2420860E-04 Eh
 * total energy  :   -80.2036768 Eh     change       -0.2631256E-04 Eh
 * total energy  :   -80.2037037 Eh     change       -0.2695992E-04 Eh
 * total energy  :   -80.2037177 Eh     change       -0.1396508E-04 Eh
 * total energy  :   -80.2037314 Eh     change       -0.1371018E-04 Eh
 * total energy  :   -80.2037391 Eh     change       -0.7680085E-05 Eh
 * total energy  :   -80.2037442 Eh     change       -0.5141222E-05 Eh
 * total energy  :   -80.2037468 Eh     change       -0.2528293E-05 Eh
   *** GEOMETRY OPTIMIZATION CONVERGED AFTER 39 ITERATIONS ***

 final structure:
================
47
 xtb: 6.5.1 (579679a)
C           -3.95892502921858        1.52455127578192        0.65209527113877
N           -2.69699165282030        0.82840321247157        0.84300549159963
C           -1.72619388286318        1.51401294848697        1.70772903183296
O           -2.12106991495609        2.51352441739561        2.38547225918700
C           -0.49123939733033        0.95995443455705        1.71576467970684
O            0.53326125570040        1.54007118534695        2.52623882219305
C           -0.06148870270884       -0.17169332406975        0.84171598927870
C            0.85340628559936       -1.16618669915480        1.59479821018746
C            0.75479913185673        0.32599916880623       -0.38520244588216
O            0.56852340899542       -0.06265896420581       -1.53465615053888
N            1.69321432938665        1.25272725391649       -0.08960704632722
C            2.61684963870174        1.74284730883316       -1.09939079950063
C            3.90167801351431        0.93970347447450       -1.09922911049221
C            5.11416244427705        1.54248947266799       -0.77475057906371
C            6.29228989743866        0.80633579011615       -0.76498577003407
C            6.22642368707619       -0.53766631166200       -1.08132305545499
F            7.36200463873915       -1.25976280963640       -1.07152721740906
C            5.04004531271098       -1.16988651409180       -1.40997855191691
C            3.87479583231841       -0.41785417178941       -1.41895743992672
N           -1.21064151497490       -0.91362157456591        0.34910308458667
C           -2.38884084430583       -0.39949123288955        0.32937146170277
C           -3.47025888709055       -1.33041522893860       -0.25049239255035
C           -4.39093798776540       -1.83770345929804        0.87024062610462
C           -4.28507241846493       -0.70291631621324       -1.39776748074814
N           -2.77834307360145       -2.51489100425094       -0.77128439972045
H           -4.08605112774654        1.82215888696267       -0.39159752211767
H           -3.93893988470355        2.42836386224527        1.26747896917970
H           -4.81481402310802        0.92494668460867        0.96380874703053
H            0.11342813505883        2.28118374063577        2.98917669931246
H            1.74713106970596       -0.65997003694940        1.95659420921954
H            1.14520039961579       -1.98011678714883        0.93131632494489
H            0.31180260200110       -1.58094530734537        2.44501283370422
H            1.87048137397807        1.52121302940563        0.86788241998077
H            2.82893502875097        2.79670474766727       -0.90151829751366
H            2.12572606995243        1.65813125527980       -2.07601717452114
H            5.14722347779827        2.59822852265224       -0.53198126660040
H            7.24061722482976        1.26463154158496       -0.51781243026235
H            5.03423847406742       -2.22405010969436       -1.65470553366418
H            2.93390530644346       -0.89138751676661       -1.67861486829334
H           -3.79880217752544       -2.38119102645803        1.60754568500462
H           -4.91336827017419       -1.02485304558128        1.36967579481070
H           -5.13374169910618       -2.51709708785045        0.45306970163389
H           -5.10599807947916       -0.09180411603142       -1.03030047145319
H           -4.71728525149948       -1.49938383172930       -2.00355942551226
H           -3.64430869351420       -0.09678483259703       -2.03768420361351
H           -2.13369723633248       -2.22677663934868       -1.50195345534298
H           -3.46313328922687       -3.12707626562569       -1.19220022387996

          :  Hamiltonian                  GFN1-xTB          :
         :: total energy             -80.203746757384 Eh    ::
         :: gradient norm              0.000553813202 Eh/a0 ::
         :: HOMO-LUMO gap              0.902302355239 eV    ::
         :: SCC energy               -81.064995124396 Eh    ::
         :: -> Gsolv                  -0.109718908880 Eh    ::
         :: repulsion energy           0.892561364164 Eh    ::

    * Orbital Energies and Occupations

         #    Occupation            Energy/Eh            Energy/eV
      -------------------------------------------------------------
         1        2.0000           -0.8593829             -23.3850
       ...           ...                  ...                  ...
        56        2.0000           -0.4601941             -12.5225
        57        2.0000           -0.4549660             -12.3803
        58        2.0000           -0.4458866             -12.1332
        59        2.0000           -0.4449907             -12.1088
        60        2.0000           -0.4387068             -11.9378
        61        2.0000           -0.4319459             -11.7538
        62        2.0000           -0.4161788             -11.3248
        63        2.0000           -0.4135770             -11.2540
        64        2.0000           -0.3882450             -10.5647
        65        2.0000           -0.3756547             -10.2221
        66        2.0000           -0.3717534             -10.1159
        67        2.0000           -0.3617239              -9.8430
        68        2.0000           -0.3009462              -8.1892 (HOMO)
        69                         -0.2677872              -7.2869 (LUMO)
        70                         -0.2606073              -7.0915
        71                         -0.2172026              -5.9104
        72                         -0.2070653              -5.6345
        73                         -0.1398246              -3.8048
        74                         -0.1258434              -3.4244
        75                         -0.1186876              -3.2297
        76                         -0.1138539              -3.0981
        77                         -0.1091704              -2.9707
        78                         -0.0995567              -2.7091
        79                         -0.0979288              -2.6648
       ...                                ...                  ...
       144                          0.6946834              18.9033
      -------------------------------------------------------------
                  HL-Gap            0.0331590 Eh            0.9023 eV

Wiberg/Mayer (AO) data.
largest (>0.10) Wiberg bond orders for each atom

     #   Z sym  total        # sym  WBO       # sym  WBO       # sym  WBO
 ---------------------------------------------------------------------------
     1   6 C    3.961 --    26 H    0.983    28 H    0.977    27 H    0.970
                             2 N    0.961
     2   7 N    3.351 --    21 C    1.186     1 C    0.961     3 C    0.895
                            20 N    0.167
     3   6 C    3.919 --     5 C    1.555     4 O    1.338     2 N    0.895
     4   8 O    1.703 --     3 C    1.338     5 C    0.178
     5   6 C    3.778 --     3 C    1.555     7 C    0.989     6 O    0.925
                             4 O    0.178
     6   8 O    1.927 --     5 C    0.925    29 H    0.855
     7   6 C    3.968 --     5 C    0.989    20 N    0.980     8 C    0.966
                             9 C    0.908
     8   6 C    3.997 --    31 H    0.988    30 H    0.987    32 H    0.985
                             7 C    0.966
     9   6 C    3.866 --    10 O    1.583    11 N    1.254     7 C    0.908
    10   8 O    1.868 --     9 C    1.583    11 N    0.155
    11   7 N    3.321 --     9 C    1.254    12 C    0.951    33 H    0.895
                            10 O    0.155
    12   6 C    3.959 --    13 C    0.995    34 H    0.978    35 H    0.965
                            11 N    0.951
    13   6 C    3.988 --    14 C    1.423    19 C    1.411    12 C    0.995
    14   6 C    3.994 --    15 C    1.437    13 C    1.423    36 H    0.971
                            18 C    0.109
    15   6 C    3.991 --    14 C    1.437    16 C    1.406    37 H    0.970
                            19 C    0.111
    16   6 C    3.858 --    15 C    1.406    18 C    1.397    17 F    0.919
    17   9 F    1.046 --    16 C    0.919
    18   6 C    3.992 --    19 C    1.449    16 C    1.397    38 H    0.970
                            14 C    0.109
    19   6 C    3.992 --    18 C    1.449    13 C    1.411    39 H    0.969
                            15 C    0.111
    20   7 N    2.973 --    21 C    1.657     7 C    0.980     2 N    0.167
    21   6 C    3.946 --    20 N    1.657     2 N    1.186    22 C    0.964
    22   6 C    3.966 --    23 C    0.990    25 N    0.986    24 C    0.985
                            21 C    0.964
    23   6 C    3.996 --    22 C    0.990    40 H    0.986    42 H    0.986
                            41 H    0.980
    24   6 C    3.996 --    45 H    0.986    22 C    0.985    44 H    0.983
                            43 H    0.982
    25   7 N    2.957 --    22 C    0.986    47 H    0.955    46 H    0.946
    26   1 H    1.013 --     1 C    0.983
    27   1 H    1.025 --     1 C    0.970
    28   1 H    1.013 --     1 C    0.977
    29   1 H    0.893 --     6 O    0.855
    30   1 H    1.013 --     8 C    0.987
    31   1 H    1.012 --     8 C    0.988
    32   1 H    1.015 --     8 C    0.985
    33   1 H    0.962 --    11 N    0.895
    34   1 H    1.005 --    12 C    0.978
    35   1 H    1.015 --    12 C    0.965
    36   1 H    1.001 --    14 C    0.971
    37   1 H    0.999 --    15 C    0.970
    38   1 H    0.999 --    18 C    0.970
    39   1 H    1.011 --    19 C    0.969
    40   1 H    1.012 --    23 C    0.986
    41   1 H    1.008 --    23 C    0.980
    42   1 H    1.003 --    23 C    0.986
    43   1 H    1.008 --    24 C    0.982
    44   1 H    1.007 --    24 C    0.983
    45   1 H    1.006 --    24 C    0.986
    46   1 H    0.983 --    25 N    0.946
    47   1 H    0.972 --    25 N    0.955
 ---------------------------------------------------------------------------

           -------------------------------------------------
          | TOTAL ENERGY              -80.203746757384 Eh   |
          | GRADIENT NORM               0.000553813202 Eh/α |
          | HOMO-LUMO GAP               0.902302355239 eV   |
           -------------------------------------------------

 * finished run on 2023/06/20 at 14:59:53.496
