   * xtb version 6.5.1 (579679a) compiled by 'ehlert@majestix' on 2022-07-11
          program call               : /lustre/hpc/kemi/ree/PhD/git/ReactivityQM/dep/xtb-6.5.1/bin/xtb --gfn 1 /lustre/hpc/kemi/ree/PhD/git/ReactivityQM/calculations/R02oxygendeprot/reac01prodN06/conf17/R02oxygendeprot_reac01prodN06_conf17_gfn1.xyz --opt --vfukui --chrg 0 --uhf 0 --alpb DMSO

   ID    Z sym.   atoms
    1    6 C      1, 3, 5, 7-10, 12, 14, 16, 17, 20, 22, 24
    2    8 O      2, 4, 13, 15, 23, 25
    3    7 N      6, 11, 18, 19, 21
    4    1 H      26-42

      * Solvation model:               ALPB
        Solvent                        DMSO
        Solvent mass                       7.8130E+01 g/mol
          :  Hamiltonian                  GFN1-xTB          :
 * total energy  :   -82.9519316 Eh     change       -0.2073364E-10 Eh
 * total energy  :   -82.9668517 Eh     change       -0.1492011E-01 Eh
 * total energy  :   -82.9742402 Eh     change       -0.7388472E-02 Eh
 * total energy  :   -82.9761343 Eh     change       -0.1894135E-02 Eh
 * total energy  :   -82.9777111 Eh     change       -0.1576798E-02 Eh
 * total energy  :   -82.9785910 Eh     change       -0.8799468E-03 Eh
 * total energy  :   -82.9793514 Eh     change       -0.7603548E-03 Eh
 * total energy  :   -82.9800303 Eh     change       -0.6789406E-03 Eh
 * total energy  :   -82.9804821 Eh     change       -0.4517810E-03 Eh
 * total energy  :   -82.9806986 Eh     change       -0.2164659E-03 Eh
 * total energy  :   -82.9850795 Eh     change       -0.1058019E-04 Eh
 * total energy  :   -82.9850874 Eh     change       -0.7879598E-05 Eh
 * total energy  :   -82.9850948 Eh     change       -0.7456828E-05 Eh
 * total energy  :   -82.9851025 Eh     change       -0.7665254E-05 Eh
 * total energy  :   -82.9851108 Eh     change       -0.8281025E-05 Eh
 * total energy  :   -82.9851183 Eh     change       -0.7554148E-05 Eh
 * total energy  :   -82.9851240 Eh     change       -0.5721673E-05 Eh
 * total energy  :   -82.9851291 Eh     change       -0.5075173E-05 Eh
 * total energy  :   -82.9851334 Eh     change       -0.4312942E-05 Eh
   *** GEOMETRY OPTIMIZATION CONVERGED AFTER 60 ITERATIONS ***

 final structure:
================
42
 xtb: 6.5.1 (579679a)
C           -5.78653871572687       -1.27767991176282        1.81895401799000
O           -4.59304977364610       -0.70510234368459        1.29919870503387
C           -4.59387828260765       -0.45112294179236       -0.04160245708052
O           -5.57269605829187       -0.70983632818355       -0.72091539306744
C           -3.34008553675854        0.13627902130916       -0.49736566187032
N           -2.38334327247585        0.31857179717381        0.47935648560372
C           -1.25105654263442        0.83875350023650        0.18611120469418
C           -0.20633356397281        1.07919484885260        1.25390607938113
C           -0.13768665050246        2.56909292600516        1.59899804028174
C           -0.50935631800477        0.23843114204226        2.49528226061627
N            1.11355521278740        0.70088127634616        0.70947635778970
C            1.35586344022339       -0.51023268031196        0.20091315002470
O            0.57384337982759       -1.43914046156748        0.11248316176027
C            2.75768693094477       -0.64239701319901       -0.30938479235884
O            3.61698186978265        0.37060532745572       -0.34119232808827
C            4.75288571142488       -0.11973386485575       -0.86933404797353
C            5.93133197956675        0.74460629948781       -1.04776638302799
N            4.62858515251740       -1.37963409268003       -1.16086819087618
N            3.36780606563538       -1.69971482970622       -0.80495123901305
C            2.91636076777390       -3.06464802745678       -0.97840914391337
N           -0.93392944070732        1.24442849193342       -1.09300020520633
C           -1.77565924725828        1.09779147717563       -2.16902966229544
O           -1.41023509802884        1.46064006115826       -3.28196005200549
C           -3.12597399455476        0.48584516672479       -1.86053565703268
O           -3.93543663526717        0.33161338222643       -2.78848391807947
H           -5.63246246219567       -1.41565701565045        2.88822603368466
H           -5.99005583580991       -2.24390069188893        1.34611090586885
H           -6.64010612104181       -0.61308131238161        1.65024105420768
H           -1.09716937395060        2.89578014517044        1.99797005004280
H            0.63318413511129        2.74651339253870        2.34620970543887
H            0.09185096749786        3.15179305839732        0.70857183435899
H           -1.47683989546388        0.53754154004467        2.89671786045048
H           -0.55002996425201       -0.81825017543182        2.23532254818000
H            0.26033149380127        0.39457333061122        3.24741457627528
H            1.86317082041373        1.36699649656195        0.76714798089279
H            6.73900532732496        0.17957327451304       -1.50652853120444
H            6.25138919070359        1.12904837108308       -0.07877389445209
H            5.67028128457728        1.59878123169548       -1.67337048839832
H            3.62252889532879       -3.71995862650322       -0.47127277643757
H            2.90640378779197       -3.29255331415180       -2.04392708692898
H            1.91991298089936       -3.16368399758196       -0.55378976688048
H           -0.03103761077691        1.64899407007201       -1.26711033636693

          :  Hamiltonian                  GFN1-xTB          :
         :: total energy             -82.985133428884 Eh    ::
         :: gradient norm              0.000261356136 Eh/a0 ::
         :: HOMO-LUMO gap              0.209220885044 eV    ::
         :: SCC energy               -83.773811880065 Eh    ::
         :: -> Gsolv                  -0.123977539973 Eh    ::
         :: repulsion energy           0.814382001637 Eh    ::

    * Orbital Energies and Occupations

         #    Occupation            Energy/Eh            Energy/eV
      -------------------------------------------------------------
         1        2.0000           -0.9274465             -25.2371
       ...           ...                  ...                  ...
        55        2.0000           -0.5101693             -13.8824
        56        2.0000           -0.5067321             -13.7889
        57        2.0000           -0.5008757             -13.6295
        58        2.0000           -0.4911940             -13.3661
        59        2.0000           -0.4869533             -13.2507
        60        2.0000           -0.4733525             -12.8806
        61        2.0000           -0.4703181             -12.7980
        62        2.0000           -0.4654403             -12.6653
        63        2.0000           -0.4493862             -12.2284
        64        2.0000           -0.4444315             -12.0936
        65        2.0000           -0.4266982             -11.6110
        66        2.0000           -0.3866415             -10.5211
        67        1.9656           -0.3746152             -10.1938 (HOMO)
        68        0.0344           -0.3669264              -9.9846 (LUMO)
        69                         -0.3152655              -8.5788
        70                         -0.2780878              -7.5672
        71                         -0.2495233              -6.7899
        72                         -0.2447032              -6.6587
        73                         -0.2041785              -5.5560
        74                         -0.1668695              -4.5407
        75                         -0.1625178              -4.4223
        76                         -0.1363973              -3.7116
        77                         -0.1249463              -3.4000
        78                         -0.1243073              -3.3826
       ...                                ...                  ...
       134                          0.7624484              20.7473
      -------------------------------------------------------------
                  HL-Gap            0.0076887 Eh            0.2092 eV

Wiberg/Mayer (AO) data.
largest (>0.10) Wiberg bond orders for each atom

     #   Z sym  total        # sym  WBO       # sym  WBO       # sym  WBO
 ---------------------------------------------------------------------------
     1   6 C    3.896 --    26 H    0.987    27 H    0.980    28 H    0.980
                             2 O    0.923
     2   8 O    2.142 --     3 C    1.035     1 C    0.923     4 O    0.112
     3   6 C    3.847 --     4 O    1.603     5 C    1.103     2 O    1.035
     4   8 O    1.871 --     3 C    1.603     2 O    0.112
     5   6 C    3.885 --    24 C    1.253     6 N    1.169     3 C    1.103
                            25 O    0.120
     6   7 N    3.029 --     7 C    1.621     5 C    1.169
     7   6 C    3.920 --     6 N    1.621    21 N    1.097     8 C    0.972
     8   6 C    3.913 --    10 C    0.990     9 C    0.989     7 C    0.972
                            11 N    0.897
     9   6 C    3.988 --     8 C    0.989    31 H    0.983    30 H    0.983
                            29 H    0.982
    10   6 C    3.987 --     8 C    0.990    34 H    0.986    32 H    0.982
                            33 H    0.981
    11   7 N    3.390 --    12 C    1.303     8 C    0.897    35 H    0.888
                            13 O    0.198
    12   6 C    3.923 --    13 O    1.572    11 N    1.303    14 C    0.967
    13   8 O    1.920 --    12 C    1.572    11 N    0.198
    14   6 C    3.802 --    19 N    1.427    15 O    1.112    12 C    0.967
    15   8 O    2.350 --    14 C    1.112    16 C    1.065
    16   6 C    3.839 --    18 N    1.586    15 O    1.065    17 C    1.042
    17   6 C    3.972 --    16 C    1.042    36 H    0.978    38 H    0.951
                            37 H    0.950
    18   7 N    2.959 --    16 C    1.586    19 N    1.146
    19   7 N    3.616 --    14 C    1.427    18 N    1.146    20 C    0.912
    20   6 C    3.884 --    41 H    0.973    39 H    0.968    40 H    0.965
                            19 N    0.912
    21   7 N    3.421 --    22 C    1.152     7 C    1.097    42 H    0.897
                            23 O    0.133
    22   6 C    3.872 --    23 O    1.590    21 N    1.152    24 C    0.963
    23   8 O    1.862 --    22 C    1.590    21 N    0.133
    24   6 C    3.934 --    25 O    1.539     5 C    1.253    22 C    0.963
    25   8 O    1.822 --    24 C    1.539     5 C    0.120
    26   1 H    1.015 --     1 C    0.987
    27   1 H    1.013 --     1 C    0.980
    28   1 H    1.013 --     1 C    0.980
    29   1 H    1.000 --     9 C    0.982
    30   1 H    0.997 --     9 C    0.983
    31   1 H    0.999 --     9 C    0.983
    32   1 H    1.011 --    10 C    0.982
    33   1 H    1.011 --    10 C    0.981
    34   1 H    1.001 --    10 C    0.986
    35   1 H    0.926 --    11 N    0.888
    36   1 H    0.991 --    17 C    0.978
    37   1 H    0.989 --    17 C    0.950
    38   1 H    0.989 --    17 C    0.951
    39   1 H    0.992 --    20 C    0.968
    40   1 H    0.991 --    20 C    0.965
    41   1 H    1.005 --    20 C    0.973
    42   1 H    0.946 --    21 N    0.897
 ---------------------------------------------------------------------------

           -------------------------------------------------
          | TOTAL ENERGY              -82.985133428884 Eh   |
          | GRADIENT NORM               0.000261356136 Eh/α |
          | HOMO-LUMO GAP               0.209220885044 eV   |
           -------------------------------------------------

 * finished run on 2023/06/21 at 17:21:48.711
