   * xtb version 6.5.1 (579679a) compiled by 'ehlert@majestix' on 2022-07-11
          program call               : /lustre/hpc/kemi/ree/PhD/git/ReactivityQM/dep/xtb-6.5.1/bin/xtb --gfn 1 /lustre/hpc/kemi/ree/PhD/git/ReactivityQM/calculations/R02oxygendeprot/reac01prodE04/conf19/R02oxygendeprot_reac01prodE04_conf19_gfn1.xyz --opt --vfukui --chrg -2 --uhf 0 --alpb DMSO

   ID    Z sym.   atoms
    1    6 C      1, 3, 5, 6, 8-11, 13, 15, 18, 19, 22, 24
    2    8 O      2, 4, 14, 20, 23, 25
    3    7 N      7, 12, 16, 17, 21
    4    1 H      26-42

      * Solvation model:               ALPB
        Solvent                        DMSO
        Solvent mass                       7.8130E+01 g/mol
          :  Hamiltonian                  GFN1-xTB          :
 * total energy  :   -83.5771798 Eh     change       -0.8044765E-10 Eh
 * total energy  :   -83.5989318 Eh     change       -0.2175203E-01 Eh
 * total energy  :   -83.6060358 Eh     change       -0.7104016E-02 Eh
 * total energy  :   -83.6075617 Eh     change       -0.1525817E-02 Eh
 * total energy  :   -83.6084265 Eh     change       -0.8648543E-03 Eh
 * total energy  :   -83.6087767 Eh     change       -0.3501695E-03 Eh
 * total energy  :   -83.6090299 Eh     change       -0.2532556E-03 Eh
 * total energy  :   -83.6093536 Eh     change       -0.3236526E-03 Eh
 * total energy  :   -83.6097141 Eh     change       -0.3605465E-03 Eh
 * total energy  :   -83.6100376 Eh     change       -0.3234621E-03 Eh
 * total energy  :   -83.6150899 Eh     change       -0.1057094E-04 Eh
 * total energy  :   -83.6150995 Eh     change       -0.9631964E-05 Eh
 * total energy  :   -83.6151089 Eh     change       -0.9394469E-05 Eh
 * total energy  :   -83.6151184 Eh     change       -0.9477548E-05 Eh
 * total energy  :   -83.6151278 Eh     change       -0.9433027E-05 Eh
 * total energy  :   -83.6151369 Eh     change       -0.9067297E-05 Eh
 * total energy  :   -83.6151449 Eh     change       -0.7977854E-05 Eh
 * total energy  :   -83.6151513 Eh     change       -0.6476929E-05 Eh
 * total energy  :   -83.6151563 Eh     change       -0.4947841E-05 Eh
   *** GEOMETRY OPTIMIZATION CONVERGED AFTER 66 ITERATIONS ***

 final structure:
================
42
 xtb: 6.5.1 (579679a)
C           -6.00970455020459       -1.04207443875081       -0.73047929281960
O           -5.08878410346577       -0.15751921956296       -0.10709388343395
C           -3.78392746974070       -0.31108941003492       -0.45392098829301
O           -3.43707737772960       -1.15236327462149       -1.27108484263373
C           -2.85304864759188        0.55757178984555        0.37497169418243
C           -3.47741274601342        1.90997086008420        0.72802003508251
N           -1.61661413341145        0.77387062305812       -0.35793545359856
C           -0.73704427403051       -0.15942653544571       -0.32346359092507
C            0.48570180965320       -0.07223310251612       -1.22689240169597
C            0.31619872528679       -1.12533675960445       -2.33262690479956
C            0.59076597267732        1.33344858489890       -1.83317611090571
N            1.65893292741505       -0.37594588936274       -0.39991687997022
C            2.95036438611190       -0.25404744784381       -0.93801425772371
O            3.20304800390028       -0.39982024917043       -2.15157979171484
C            3.91626544661187        0.00359447725918        0.08380784134927
N            3.65770003522326        0.20154832018511        1.38017364525819
N            4.85992747075172        0.45666289448398        1.98085100894476
C            5.76779480377719        0.40795002073948        1.06218113761909
C            7.22558020359619        0.62576218620679        1.23455432224355
O            5.26850863812740        0.12786591753538       -0.16520312547696
N           -0.84109220524175       -1.27509834205834        0.44621781746245
C           -1.70351160081134       -1.33192511276541        1.59108796551812
O           -1.42640809258961       -2.20849715148508        2.46085217218381
C           -2.71773470545145       -0.34896417574118        1.63361080846003
O           -3.54393915319752       -0.17628856707948        2.59352589889662
H           -5.99225130665776       -0.91176678039372       -1.81700145140041
H           -6.99929840861614       -0.79505681175355       -0.34895610744452
H           -5.77085093253174       -2.08477001801293       -0.49685571260155
H           -2.75042138397214        2.51240116007730        1.27309762000152
H           -4.35704162187385        1.76783646024626        1.35517146734481
H           -3.76574722654522        2.44451342488140       -0.17640486477222
H           -0.64250333657977       -0.97398689991360       -2.82942185755185
H            0.33513077635588       -2.12631686712709       -1.90264003411849
H            1.11240547295890       -1.04454863007996       -3.06997490489862
H            1.42579208307106        1.38567803019398       -2.52985708141411
H            0.73596251527129        2.07204466011472       -1.04524493629889
H           -0.33071977672658        1.57069383282447       -2.36404827958630
H            1.60136067493096        0.03140214257623        0.52969968018163
H            7.56436812155798        1.44532309400525        0.60067075075573
H            7.43599809068531        0.86528088692305        2.27415469246125
H            7.78085194277506       -0.26907169251589        0.95240547011265
H           -0.04752704775815       -1.89727199029847        0.48742972602760

          :  Hamiltonian                  GFN1-xTB          :
         :: total energy             -83.615156283424 Eh    ::
         :: gradient norm              0.000192328134 Eh/a0 ::
         :: HOMO-LUMO gap              0.038039638072 eV    ::
         :: SCC energy               -84.341563257136 Eh    ::
         :: -> Gsolv                  -0.272146755193 Eh    ::
         :: repulsion energy           0.753035342830 Eh    ::

    * Orbital Energies and Occupations

         #    Occupation            Energy/Eh            Energy/eV
      -------------------------------------------------------------
         1        2.0000           -0.8032871             -21.8586
       ...           ...                  ...                  ...
        56        2.0000           -0.4469850             -12.1631
        57        2.0000           -0.4430989             -12.0573
        58        2.0000           -0.4313607             -11.7379
        59        2.0000           -0.4248750             -11.5614
        60        2.0000           -0.4102910             -11.1646
        61        2.0000           -0.4069020             -11.0724
        62        2.0000           -0.4060769             -11.0499
        63        2.0000           -0.3997682             -10.8782
        64        2.0000           -0.3906158             -10.6292
        65        2.0000           -0.3799059             -10.3378
        66        2.0000           -0.3758817             -10.2283
        67        2.0000           -0.3462667              -9.4224
        68        1.3521           -0.2704654              -7.3597 (HOMO)
        69        0.6479           -0.2690674              -7.3217 (LUMO)
        70                         -0.2221187              -6.0442
        71                         -0.2116423              -5.7591
        72                         -0.2021605              -5.5011
        73                         -0.1427948              -3.8856
        74                         -0.1248979              -3.3986
        75                         -0.1227755              -3.3409
        76                         -0.1151647              -3.1338
        77                         -0.0955046              -2.5988
        78                         -0.0929942              -2.5305
        79                         -0.0891657              -2.4263
       ...                                ...                  ...
       134                          0.7121648              19.3790
      -------------------------------------------------------------
                  HL-Gap            0.0013979 Eh            0.0380 eV

Wiberg/Mayer (AO) data.
largest (>0.10) Wiberg bond orders for each atom

     #   Z sym  total        # sym  WBO       # sym  WBO       # sym  WBO
 ---------------------------------------------------------------------------
     1   6 C    3.897 --    27 H    0.987    26 H    0.981    28 H    0.981
                             2 O    0.921
     2   8 O    2.153 --     3 C    1.045     1 C    0.921     4 O    0.108
     3   6 C    3.777 --     4 O    1.596     2 O    1.045     5 C    0.945
     4   8 O    1.853 --     3 C    1.596     2 O    0.108
     5   6 C    3.959 --     6 C    0.992     7 N    0.981     3 C    0.945
                            24 C    0.875
     6   6 C    3.990 --     5 C    0.992    31 H    0.989    29 H    0.987
                            30 H    0.983
     7   7 N    2.940 --     8 C    1.654     5 C    0.981    21 N    0.148
     8   6 C    3.932 --     7 N    1.654    21 N    1.175     9 C    0.970
     9   6 C    3.949 --    11 C    0.992    10 C    0.985     8 C    0.970
                            12 N    0.939
    10   6 C    3.994 --    32 H    0.987    33 H    0.986     9 C    0.985
                            34 H    0.980
    11   6 C    3.993 --     9 C    0.992    36 H    0.986    37 H    0.985
                            35 H    0.985
    12   7 N    3.141 --    13 C    1.076     9 C    0.939    38 H    0.919
                            14 O    0.107
    13   6 C    3.749 --    14 O    1.456    15 C    1.150    12 N    1.076
    14   8 O    1.696 --    13 C    1.456    12 N    0.107
    15   6 C    3.698 --    16 N    1.398    13 C    1.150    20 O    0.979
    16   7 N    2.749 --    15 C    1.398    17 N    1.185
    17   7 N    2.980 --    18 C    1.628    16 N    1.185
    18   6 C    3.821 --    17 N    1.628    20 O    1.051    19 C    1.024
    19   6 C    3.994 --    18 C    1.024    40 H    0.986    39 H    0.971
                            41 H    0.971
    20   8 O    2.187 --    18 C    1.051    15 C    0.979
    21   7 N    3.325 --     8 C    1.175    22 C    0.962    42 H    0.912
                             7 N    0.148
    22   6 C    3.746 --    23 O    1.390    24 C    1.243    21 N    0.962
    23   8 O    1.601 --    22 C    1.390
    24   6 C    3.730 --    25 O    1.372    22 C    1.243     5 C    0.875
    25   8 O    1.576 --    24 C    1.372
    26   1 H    1.013 --     1 C    0.981
    27   1 H    1.015 --     1 C    0.987
    28   1 H    1.012 --     1 C    0.981
    29   1 H    1.013 --     6 C    0.987
    30   1 H    1.027 --     6 C    0.983
    31   1 H    1.010 --     6 C    0.989
    32   1 H    1.010 --    10 C    0.987
    33   1 H    1.009 --    10 C    0.986
    34   1 H    1.023 --    10 C    0.980
    35   1 H    1.013 --    11 C    0.985
    36   1 H    1.011 --    11 C    0.986
    37   1 H    1.020 --    11 C    0.985
    38   1 H    0.981 --    12 N    0.919
    39   1 H    1.001 --    19 C    0.971
    40   1 H    1.004 --    19 C    0.986
    41   1 H    1.001 --    19 C    0.971
    42   1 H    0.971 --    21 N    0.912
 ---------------------------------------------------------------------------

           -------------------------------------------------
          | TOTAL ENERGY              -83.615156283424 Eh   |
          | GRADIENT NORM               0.000192328134 Eh/α |
          | HOMO-LUMO GAP               0.038039638072 eV   |
           -------------------------------------------------

 * finished run on 2023/06/21 at 17:05:01.681
