   * xtb version 6.5.1 (579679a) compiled by 'ehlert@majestix' on 2022-07-11
          program call               : /lustre/hpc/kemi/ree/PhD/git/ReactivityQM/dep/xtb-6.5.1/bin/xtb --gfn 1 /lustre/hpc/kemi/ree/PhD/git/ReactivityQM/calculations/R03/reac02prodN05/conf18/R03_reac02prodN05_conf18_gfn1.xyz --opt --vfukui --chrg 1 --uhf 0 --alpb DMSO

   ID    Z sym.   atoms
    1    6 C      1, 3, 5, 6, 8, 11-15, 17, 19, 22, 23, 26
    2    8 O      2, 4, 7, 9, 18, 24
    3    7 N      10, 16, 20, 21, 25
    4    1 H      27-46

      * Solvation model:               ALPB
        Solvent                        DMSO
        Solvent mass                       7.8130E+01 g/mol
          :  Hamiltonian                  GFN1-xTB          :
 * total energy  :   -86.3039266 Eh     change       -0.3323919E-10 Eh
 * total energy  :   -86.3245967 Eh     change       -0.2067004E-01 Eh
 * total energy  :   -86.3325591 Eh     change       -0.7962444E-02 Eh
 * total energy  :   -86.3343461 Eh     change       -0.1787034E-02 Eh
 * total energy  :   -86.3353917 Eh     change       -0.1045561E-02 Eh
 * total energy  :   -86.3359640 Eh     change       -0.5722916E-03 Eh
 * total energy  :   -86.3363874 Eh     change       -0.4234259E-03 Eh
 * total energy  :   -86.3367200 Eh     change       -0.3325687E-03 Eh
 * total energy  :   -86.3370175 Eh     change       -0.2975533E-03 Eh
 * total energy  :   -86.3373055 Eh     change       -0.2879882E-03 Eh
 * total energy  :   -86.3385912 Eh     change       -0.1349661E-04 Eh
 * total energy  :   -86.3386044 Eh     change       -0.1318057E-04 Eh
 * total energy  :   -86.3386158 Eh     change       -0.1137610E-04 Eh
 * total energy  :   -86.3386266 Eh     change       -0.1081677E-04 Eh
 * total energy  :   -86.3386378 Eh     change       -0.1124418E-04 Eh
 * total energy  :   -86.3386476 Eh     change       -0.9794949E-05 Eh
 * total energy  :   -86.3386554 Eh     change       -0.7760012E-05 Eh
 * total energy  :   -86.3386607 Eh     change       -0.5322103E-05 Eh
 * total energy  :   -86.3386637 Eh     change       -0.3047608E-05 Eh
   *** GEOMETRY OPTIMIZATION CONVERGED AFTER 41 ITERATIONS ***

 final structure:
================
46
 xtb: 6.5.1 (579679a)
C           -6.14240097296662       -2.22744206975396        0.36549513613666
O           -5.03745333602348       -1.37080183446820        0.72601302880252
C           -4.01327836861111       -1.36042415351432       -0.11367036996585
O           -3.95339452272868       -2.03829788367609       -1.10670698256698
C           -2.91409906997744       -0.44699248803353        0.35250918456404
C           -2.72011668759836       -0.12322278834837        1.66449519920052
O           -3.50194151566520       -0.45089535797155        2.67813704183343
C           -1.55663524054235        0.67518203572335        2.05910070531206
O           -1.36754192246614        1.11536189093217        3.16661187241672
N           -0.62172320167865        0.89600858015973        1.02506476678162
C            0.49537616876846        1.74393459215670        1.47875225619678
C           -0.77595904746762        0.46054872402959       -0.23940066815125
C            0.42350331958657        0.45898251879080       -1.20127903279685
C            0.39557864880327       -0.70712178318436       -2.20856459624097
C            0.55203111034960        1.80480187750176       -1.93303295624339
N            1.58369353273917        0.18993704287401       -0.34719719326068
C            2.87509723771973        0.42967897719646       -0.72682411562734
O            3.22384453635729        1.07378579049653       -1.69117565229274
C            3.80096529445851       -0.17621492908546        0.25582202096776
N            3.45489278604996       -0.84465730071818        1.31644028393855
N            4.60554489835008       -1.21185071539824        1.94015719868581
C            5.58360676781068       -0.74420146797690        1.22070529312747
C            7.03486114153813       -0.87701610807219        1.47173725835888
O            5.13620230374480       -0.08078922296033        0.14539331377860
N           -1.95790358650508       -0.05206690576567       -0.58940872934754
C           -2.40263924506282       -0.05544004411439       -1.99522338757107
H           -6.51199027322254       -1.94231175905375       -0.62039118097474
H           -5.80851638050367       -3.26592262831439        0.34949444354519
H           -6.90505643013135       -2.07559894346261        1.12448761352287
H           -4.30287806703968       -0.94029038224506        2.41447390574439
H            0.07363873612516        2.49173288196367        2.15070838801005
H            0.96358768455767        2.23630126518628        0.63773628698620
H            1.21747901356923        1.13651377655891        2.02208654069862
H            1.42358843222218       -0.90003870994414       -2.51375466723997
H           -0.00522692551973       -1.60813235627587       -1.75006999346983
H           -0.16910090619405       -0.46401106855114       -3.10314740576965
H            0.99814124980393        2.56281269844374       -1.29364015171732
H           -0.43024216972072        2.15039882011849       -2.24788214034360
H            1.18021111824042        1.68213053421842       -2.81310169616237
H            1.45993856913303       -0.54732285364970        0.33298102952882
H            7.49114647360215        0.11024619159111        1.54282571300592
H            7.19805578067173       -1.42443413844183        2.39684143170722
H            7.50647397975454       -1.40776081655775        0.64439941929456
H           -2.27756516059901       -1.04142615800347       -2.43560308423683
H           -1.84627833440173        0.69286510308595       -2.54698974043722
H           -3.45551541932963        0.21553856652612       -2.00540458772966

          :  Hamiltonian                  GFN1-xTB          :
         :: total energy             -86.338663746849 Eh    ::
         :: gradient norm              0.000435658182 Eh/a0 ::
         :: HOMO-LUMO gap              2.579360248171 eV    ::
         :: SCC energy               -87.172042776009 Eh    ::
         :: -> Gsolv                  -0.110519816046 Eh    ::
         :: repulsion energy           0.864004644906 Eh    ::

    * Orbital Energies and Occupations

         #    Occupation            Energy/Eh            Energy/eV
      -------------------------------------------------------------
         1        2.0000           -0.8902813             -24.2258
       ...           ...                  ...                  ...
        58        2.0000           -0.5319054             -14.4739
        59        2.0000           -0.5279900             -14.3673
        60        2.0000           -0.5227494             -14.2247
        61        2.0000           -0.5223041             -14.2126
        62        2.0000           -0.5171467             -14.0723
        63        2.0000           -0.5163811             -14.0514
        64        2.0000           -0.5005621             -13.6210
        65        2.0000           -0.4941994             -13.4478
        66        2.0000           -0.4829191             -13.1409
        67        2.0000           -0.4786934             -13.0259
        68        2.0000           -0.4758371             -12.9482
        69        2.0000           -0.4639134             -12.6237
        70        2.0000           -0.4619678             -12.5708 (HOMO)
        71                         -0.3671780              -9.9914 (LUMO)
        72                         -0.3629396              -9.8761
        73                         -0.3271210              -8.9014
        74                         -0.2856269              -7.7723
        75                         -0.2660572              -7.2398
        76                         -0.2205164              -6.0006
        77                         -0.2143266              -5.8321
        78                         -0.1650266              -4.4906
        79                         -0.1583690              -4.3094
        80                         -0.1505182              -4.0958
        81                         -0.1498600              -4.0779
       ...                                ...                  ...
       144                          0.7244370              19.7129
      -------------------------------------------------------------
                  HL-Gap            0.0947897 Eh            2.5794 eV

Wiberg/Mayer (AO) data.
largest (>0.10) Wiberg bond orders for each atom

     #   Z sym  total        # sym  WBO       # sym  WBO       # sym  WBO
 ---------------------------------------------------------------------------
     1   6 C    3.836 --    29 H    0.984    27 H    0.978    28 H    0.978
                             2 O    0.862
     2   8 O    2.230 --     3 C    1.133     1 C    0.862     4 O    0.138
     3   6 C    3.864 --     4 O    1.673     2 O    1.133     5 C    0.984
     4   8 O    1.969 --     3 C    1.673     2 O    0.138
     5   6 C    3.919 --     6 C    1.519    25 N    1.076     3 C    0.984
                             7 O    0.106
     6   6 C    3.927 --     5 C    1.519     7 O    1.153     8 C    1.038
     7   8 O    2.126 --     6 C    1.153    30 H    0.780     5 C    0.106
     8   6 C    3.903 --     9 O    1.672    10 N    1.050     6 C    1.038
     9   8 O    1.973 --     8 C    1.672    10 N    0.117
    10   7 N    3.531 --    12 C    1.300     8 C    1.050    11 C    0.906
                             9 O    0.117
    11   6 C    3.890 --    32 H    0.977    33 H    0.971    31 H    0.966
                            10 N    0.906
    12   6 C    3.897 --    25 N    1.367    10 N    1.300    13 C    0.970
    13   6 C    3.926 --    14 C    0.980    15 C    0.975    12 C    0.970
                            16 N    0.937
    14   6 C    3.982 --    35 H    0.983    13 C    0.980    36 H    0.979
                            34 H    0.976
    15   6 C    3.979 --    38 H    0.978    13 C    0.975    39 H    0.974
                            37 H    0.973
    16   7 N    3.293 --    17 C    1.187    13 C    0.937    40 H    0.892
                            18 O    0.163
    17   6 C    3.908 --    18 O    1.634    16 N    1.187    19 C    0.997
    18   8 O    1.942 --    17 C    1.634    16 N    0.163
    19   6 C    3.880 --    20 N    1.598    24 O    1.068    17 C    0.997
    20   7 N    3.024 --    19 C    1.598    21 N    1.210
    21   7 N    2.981 --    22 C    1.593    20 N    1.210
    22   6 C    3.867 --    21 N    1.593    24 O    1.086    23 C    1.033
    23   6 C    3.984 --    22 C    1.033    42 H    0.982    41 H    0.962
                            43 H    0.961
    24   8 O    2.337 --    22 C    1.086    19 C    1.068
    25   7 N    3.556 --    12 C    1.367     5 C    1.076    26 C    0.899
    26   6 C    3.888 --    45 H    0.977    46 H    0.971    44 H    0.967
                            25 N    0.899
    27   1 H    1.002 --     1 C    0.978
    28   1 H    1.002 --     1 C    0.978
    29   1 H    1.005 --     1 C    0.984
    30   1 H    0.831 --     7 O    0.780
    31   1 H    0.999 --    11 C    0.966
    32   1 H    1.006 --    11 C    0.977
    33   1 H    1.003 --    11 C    0.971
    34   1 H    0.996 --    14 C    0.976
    35   1 H    0.995 --    14 C    0.983
    36   1 H    0.998 --    14 C    0.979
    37   1 H    1.002 --    15 C    0.973
    38   1 H    1.000 --    15 C    0.978
    39   1 H    1.007 --    15 C    0.974
    40   1 H    0.949 --    16 N    0.892
    41   1 H    0.995 --    23 C    0.962
    42   1 H    0.998 --    23 C    0.982
    43   1 H    0.995 --    23 C    0.961
    44   1 H    1.006 --    26 C    0.967
    45   1 H    1.001 --    26 C    0.977
    46   1 H    0.995 --    26 C    0.971
 ---------------------------------------------------------------------------

           -------------------------------------------------
          | TOTAL ENERGY              -86.338663746849 Eh   |
          | GRADIENT NORM               0.000435658182 Eh/α |
          | HOMO-LUMO GAP               2.579360248171 eV   |
           -------------------------------------------------

 * finished run on 2023/06/20 at 15:40:13.341
