   * xtb version 6.5.1 (579679a) compiled by 'ehlert@majestix' on 2022-07-11
          program call               : /lustre/hpc/kemi/ree/PhD/git/ReactivityQM/dep/xtb-6.5.1/bin/xtb --gfn 1 /lustre/hpc/kemi/ree/PhD/git/ReactivityQM/calculations/R02oxygendeprot/reac01prodN13/conf18/R02oxygendeprot_reac01prodN13_conf18_gfn1.xyz --opt --vfukui --chrg 0 --uhf 0 --alpb DMSO

   ID    Z sym.   atoms
    1    6 C      1, 3, 5, 7-10, 12, 14, 17-19, 22, 24
    2    8 O      2, 4, 13, 20, 23, 25
    3    7 N      6, 11, 15, 16, 21
    4    1 H      26-42

      * Solvation model:               ALPB
        Solvent                        DMSO
        Solvent mass                       7.8130E+01 g/mol
          :  Hamiltonian                  GFN1-xTB          :
 * total energy  :   -82.9254861 Eh     change       -0.1947171E-09 Eh
 * total energy  :   -82.9352445 Eh     change       -0.9758375E-02 Eh
 * total energy  :   -82.9389750 Eh     change       -0.3730561E-02 Eh
 * total energy  :   -82.9394688 Eh     change       -0.4937259E-03 Eh
 * total energy  :   -82.9398564 Eh     change       -0.3876336E-03 Eh
 * total energy  :   -82.9400752 Eh     change       -0.2187889E-03 Eh
 * total energy  :   -82.9402719 Eh     change       -0.1967480E-03 Eh
 * total energy  :   -82.9404320 Eh     change       -0.1600330E-03 Eh
 * total energy  :   -82.9405719 Eh     change       -0.1399424E-03 Eh
 * total energy  :   -82.9407009 Eh     change       -0.1289992E-03 Eh
 * total energy  :   -82.9419072 Eh     change       -0.5650673E-05 Eh
 * total energy  :   -82.9419188 Eh     change       -0.1160477E-04 Eh
 * total energy  :   -82.9419316 Eh     change       -0.1274692E-04 Eh
 * total energy  :   -82.9419399 Eh     change       -0.8375589E-05 Eh
 * total energy  :   -82.9419465 Eh     change       -0.6527071E-05 Eh
 * total energy  :   -82.9419532 Eh     change       -0.6716472E-05 Eh
 * total energy  :   -82.9419608 Eh     change       -0.7628441E-05 Eh
 * total energy  :   -82.9419670 Eh     change       -0.6211268E-05 Eh
 * total energy  :   -82.9419714 Eh     change       -0.4353534E-05 Eh
   *** GEOMETRY OPTIMIZATION CONVERGED AFTER 52 ITERATIONS ***

 final structure:
================
42
 xtb: 6.5.1 (579679a)
C            3.27363820753340        3.71562168989560       -1.70558142702653
O            3.46061464035294        2.33669218300896       -1.38325695596841
C            2.40671223555108        1.70406537108118       -0.86677582283668
O            1.33702260991703        2.24963131477438       -0.68056198624030
C            2.65535193794269        0.28033484254197       -0.53126824327212
N            1.57367791355557       -0.32781061706382        0.00295280130842
C            1.61376627196542       -1.56876752319053        0.38956716694534
C            0.38480806436797       -2.18774087220775        1.01522512562742
C            0.64195677548606       -2.40747281210100        2.51526343379729
C            0.00751411654179       -3.50281321485510        0.31938329683511
N           -0.69287679359749       -1.22081045287137        0.83103565145913
C           -1.94127371540767       -1.38426673104584        1.29526622549567
O           -2.35417394453138       -2.33096055955755        1.94558281030125
C           -2.83385196769391       -0.25510294184015        0.91477154042345
N           -4.11542597608240       -0.12166430755970        1.29757407489607
N           -4.59059810730205        0.94328182708208        0.76582094581550
C           -3.57402204176304        1.56729475439451       -0.03954587987618
C           -4.00159132025576        1.57184911768651       -1.51009623078028
C           -3.25338631079693        2.97000312539545        0.47912405219830
O           -2.43818079115457        0.71429780920721        0.12667782527203
N            2.74434892050466       -2.31326827475067        0.28847323203527
C            3.93253106566965       -1.84315544332356       -0.25039284764538
O            4.89862119129379       -2.57634535908543       -0.32020539486628
C            3.90837110043425       -0.40065498591767       -0.71742862275457
O            4.92487147824319        0.08897732705042       -1.20518757837521
H            3.04600305228360        4.28524355419042       -0.80120102082915
H            4.20534177008927        4.06469156949117       -2.14696318275446
H            2.45105597705720        3.82910414652426       -2.41574462635628
H           -0.22945661896704       -2.86708337595975        2.97761142031575
H            0.84638653395089       -1.45397035730992        2.99929535154136
H            1.49914320281732       -3.06490193541406        2.64364242084879
H            0.81199010546535       -4.22642395684406        0.42885835231501
H           -0.89322069605384       -3.91049458886576        0.77476428255687
H           -0.17429056463665       -3.32508676421547       -0.73912504789632
H           -0.44497365104290       -0.37420522851876        0.32638104624287
H           -4.90984952754892        2.15996195545528       -1.61368540227801
H           -4.18793975219220        0.55018282484611       -1.83385417768116
H           -3.20878476177592        2.00684703036889       -2.11353278607789
H           -2.95651338728438        2.91147523924961        1.52394902894100
H           -4.13787189184650        3.59468639546842        0.38437327693483
H           -2.44089270700430        3.39103216598733       -0.10840432307906
H            2.75544735591563       -3.27227494120321        0.60034919449016

          :  Hamiltonian                  GFN1-xTB          :
         :: total energy             -82.941971386435 Eh    ::
         :: gradient norm              0.000259372740 Eh/a0 ::
         :: HOMO-LUMO gap              0.046914646032 eV    ::
         :: SCC energy               -83.707712618746 Eh    ::
         :: -> Gsolv                  -0.061754776218 Eh    ::
         :: repulsion energy           0.791567820817 Eh    ::

    * Orbital Energies and Occupations

         #    Occupation            Energy/Eh            Energy/eV
      -------------------------------------------------------------
         1        2.0000           -0.8818675             -23.9968
       ...           ...                  ...                  ...
        55        2.0000           -0.5117381             -13.9251
        56        2.0000           -0.5102009             -13.8833
        57        2.0000           -0.5080745             -13.8254
        58        2.0000           -0.5024203             -13.6716
        59        2.0000           -0.4899871             -13.3332
        60        2.0000           -0.4865332             -13.2392
        61        2.0000           -0.4802160             -13.0673
        62        2.0000           -0.4735759             -12.8867
        63        2.0000           -0.4671083             -12.7107
        64        2.0000           -0.4643790             -12.6364
        65        2.0000           -0.4612745             -12.5519
        66        2.0000           -0.4236952             -11.5293
        67        1.4249           -0.4066089             -11.0644 (HOMO)
        68        0.5751           -0.4048848             -11.0175 (LUMO)
        69                         -0.3203473              -8.7171
        70                         -0.3093636              -8.4182
        71                         -0.2841251              -7.7314
        72                         -0.2344502              -6.3797
        73                         -0.2204859              -5.9997
        74                         -0.1560120              -4.2453
        75                         -0.1436734              -3.9096
        76                         -0.1435192              -3.9054
        77                         -0.1381329              -3.7588
        78                         -0.1327940              -3.6135
       ...                                ...                  ...
       134                          0.7478878              20.3511
      -------------------------------------------------------------
                  HL-Gap            0.0017241 Eh            0.0469 eV

Wiberg/Mayer (AO) data.
largest (>0.10) Wiberg bond orders for each atom

     #   Z sym  total        # sym  WBO       # sym  WBO       # sym  WBO
 ---------------------------------------------------------------------------
     1   6 C    3.875 --    27 H    0.986    28 H    0.979    26 H    0.979
                             2 O    0.902
     2   8 O    2.194 --     3 C    1.109     1 C    0.902     4 O    0.131
     3   6 C    3.842 --     4 O    1.630     2 O    1.109     5 C    1.025
     4   8 O    1.878 --     3 C    1.630     2 O    0.131
     5   6 C    3.713 --     6 N    1.284    24 C    1.169     3 C    1.025
     6   7 N    3.013 --     7 C    1.480     5 C    1.284
     7   6 C    3.798 --     6 N    1.480    21 N    1.191     8 C    0.989
     8   6 C    3.930 --     7 C    0.989    10 C    0.975     9 C    0.967
                            11 N    0.934
     9   6 C    3.974 --    30 H    0.985    31 H    0.984    29 H    0.978
                             8 C    0.967
    10   6 C    3.977 --    34 H    0.985    32 H    0.982    33 H    0.978
                             8 C    0.975
    11   7 N    3.358 --    12 C    1.276     8 C    0.934    35 H    0.867
                            13 O    0.194
    12   6 C    3.915 --    13 O    1.571    11 N    1.276    14 C    0.986
    13   8 O    1.884 --    12 C    1.571    11 N    0.194
    14   6 C    3.629 --    15 N    1.310    20 O    1.184    12 C    0.986
    15   7 N    2.994 --    16 N    1.545    14 C    1.310
    16   7 N    2.690 --    15 N    1.545    17 C    1.024
    17   6 C    3.835 --    16 N    1.024    19 C    0.940    18 C    0.936
                            20 O    0.872
    18   6 C    3.937 --    37 H    0.982    36 H    0.982    38 H    0.980
                            17 C    0.936
    19   6 C    3.940 --    39 H    0.982    40 H    0.982    41 H    0.980
                            17 C    0.940
    20   8 O    2.212 --    14 C    1.184    17 C    0.872
    21   7 N    3.422 --     7 C    1.191    22 C    1.104    42 H    0.882
                            23 O    0.113
    22   6 C    3.840 --    23 O    1.654    21 N    1.104    24 C    0.949
    23   8 O    1.877 --    22 C    1.654    21 N    0.113
    24   6 C    3.868 --    25 O    1.611     5 C    1.169    22 C    0.949
    25   8 O    1.792 --    24 C    1.611
    26   1 H    1.007 --     1 C    0.979
    27   1 H    1.011 --     1 C    0.986
    28   1 H    1.008 --     1 C    0.979
    29   1 H    1.006 --     9 C    0.978
    30   1 H    1.000 --     9 C    0.985
    31   1 H    0.999 --     9 C    0.984
    32   1 H    0.998 --    10 C    0.982
    33   1 H    1.004 --    10 C    0.978
    34   1 H    0.999 --    10 C    0.985
    35   1 H    0.953 --    11 N    0.867
    36   1 H    0.997 --    18 C    0.982
    37   1 H    0.996 --    18 C    0.982
    38   1 H    0.996 --    18 C    0.980
    39   1 H    0.996 --    19 C    0.982
    40   1 H    0.997 --    19 C    0.982
    41   1 H    0.996 --    19 C    0.980
    42   1 H    0.929 --    21 N    0.882
 ---------------------------------------------------------------------------

           -------------------------------------------------
          | TOTAL ENERGY              -82.941971386435 Eh   |
          | GRADIENT NORM               0.000259372740 Eh/α |
          | HOMO-LUMO GAP               0.046914646032 eV   |
           -------------------------------------------------

 * finished run on 2023/06/21 at 17:29:00.499
