   * xtb version 6.5.1 (579679a) compiled by 'ehlert@majestix' on 2022-07-11
          program call               : /lustre/hpc/kemi/ree/PhD/git/ReactivityQM/dep/xtb-6.5.1/bin/xtb --gfn 1 /lustre/hpc/kemi/ree/PhD/git/ReactivityQM/calculations/R02methylcation/reac01prodN19/conf19/R02methylcation_reac01prodN19_conf19_gfn1.xyz --opt --vfukui --chrg 0 --uhf 0 --alpb DMSO

   ID    Z sym.   atoms
    1    6 C      1, 3, 5, 7-10, 12, 14, 17, 18, 21, 23, 24
    2    8 O      2, 4, 13, 19, 22, 25
    3    7 N      6, 11, 15, 16, 20
    4    1 H      26-42

      * Solvation model:               ALPB
        Solvent                        DMSO
        Solvent mass                       7.8130E+01 g/mol
          :  Hamiltonian                  GFN1-xTB          :
 * total energy  :   -82.9766986 Eh     change       -0.4149570E-10 Eh
 * total energy  :   -82.9909453 Eh     change       -0.1424670E-01 Eh
 * total energy  :   -82.9965255 Eh     change       -0.5580232E-02 Eh
 * total energy  :   -82.9979720 Eh     change       -0.1446464E-02 Eh
 * total energy  :   -82.9987509 Eh     change       -0.7789768E-03 Eh
 * total energy  :   -82.9990795 Eh     change       -0.3285123E-03 Eh
 * total energy  :   -82.9993295 Eh     change       -0.2500450E-03 Eh
 * total energy  :   -82.9995530 Eh     change       -0.2234578E-03 Eh
 * total energy  :   -82.9997354 Eh     change       -0.1824340E-03 Eh
 * total energy  :   -82.9998556 Eh     change       -0.1202355E-03 Eh
 * total energy  :   -83.0006871 Eh     change       -0.2237306E-04 Eh
 * total energy  :   -83.0007129 Eh     change       -0.2570282E-04 Eh
 * total energy  :   -83.0007253 Eh     change       -0.1244575E-04 Eh
 * total energy  :   -83.0007336 Eh     change       -0.8274862E-05 Eh
 * total energy  :   -83.0007437 Eh     change       -0.1015097E-04 Eh
 * total energy  :   -83.0007495 Eh     change       -0.5762446E-05 Eh
 * total energy  :   -83.0007565 Eh     change       -0.6968563E-05 Eh
 * total energy  :   -83.0007552 Eh     change        0.1273171E-05 Eh
 * total energy  :   -83.0007595 Eh     change       -0.4287305E-05 Eh
   *** GEOMETRY OPTIMIZATION CONVERGED AFTER 43 ITERATIONS ***

 final structure:
================
42
 xtb: 6.5.1 (579679a)
C           -6.12268757658947       -0.84227924950134       -1.61061004714996
O           -4.92299710489237       -0.17136734115496       -1.22531459984339
C           -3.92519721114533       -0.94337147758286       -0.78750393369784
O           -4.01918780453441       -2.15286437106757       -0.71420757681787
C           -2.70513174441185       -0.19566054095876       -0.39685592439404
N           -1.72145560552747       -1.00062964523633        0.06600453588337
C           -0.58952319865682       -0.52194935433573        0.46441023928152
C            0.49125468192399       -1.41132087045498        1.03261479862346
C            0.51216212032034       -1.24072072520675        2.56021521024301
C            0.22783420694939       -2.86784133236810        0.63893497792134
N            1.76955031646182       -0.95868477769478        0.46805371719558
C            2.96218171593041       -1.49943503960862        0.80154029382946
O            3.13349980918155       -2.39714020749221        1.60759705382772
C            4.08837871046706       -0.86074491507302        0.07426377796972
N            5.34475472106895       -1.17721520644779        0.11054200594375
N            5.99551889609121       -0.30128791583786       -0.70629328264850
C            5.09666262501840        0.49765233649917       -1.18979875602852
C            5.28885704012774        1.63039803105824       -2.12079749450609
O            3.86715450272861        0.19661738008222       -0.73809196615537
N           -0.37083490583069        0.83559820859718        0.44445129128551
C           -1.27286451230864        1.70219502203287       -0.00811309943315
O           -0.86663683649659        2.95848894443626        0.05013226178971
C           -1.67333419386205        4.05125260663863       -0.41119032343195
C           -2.57535707726107        1.22671298679702       -0.49145462848619
O           -3.42791604552682        2.01918621125318       -0.91837871393079
H           -6.55779181138294       -1.36205524040410       -0.75280685719758
H           -6.80684642497807       -0.07708284340996       -1.97240759393576
H           -5.91409400821065       -1.56777799308786       -2.40133956125350
H            1.25537669030486       -1.90068253767845        3.00355416483238
H           -0.46896035937419       -1.48631889022755        2.96403912050229
H            0.75296687194584       -0.21007124762923        2.81384724283673
H            0.98084333155830       -3.51605287362115        1.08290659932533
H           -0.75768981543451       -3.16424307877619        0.99558861147589
H            0.25716409463834       -2.97013222815013       -0.44472171553572
H            1.75007797966091       -0.27944059239034       -0.27286283009455
H            6.34170684788213        1.72168391104999       -2.37781925436363
H            4.70146491620947        1.47177532603112       -3.02555047531902
H            4.94347169870977        2.55353897275274       -1.65483664102851
H            0.50625029823654        1.21438704063157        0.77185530685360
H           -2.59679674161076        4.11799613065345        0.16672852908005
H           -1.90549511350580        3.93624494383370       -1.47123395313176
H           -1.06633298388836        4.94264344304065       -0.25439951033563

          :  Hamiltonian                  GFN1-xTB          :
         :: total energy             -83.000759467476 Eh    ::
         :: gradient norm              0.000720940848 Eh/a0 ::
         :: HOMO-LUMO gap              2.210887411748 eV    ::
         :: SCC energy               -83.779512973982 Eh    ::
         :: -> Gsolv                  -0.065881949123 Eh    ::
         :: repulsion energy           0.803589724504 Eh    ::

    * Orbital Energies and Occupations

         #    Occupation            Energy/Eh            Energy/eV
      -------------------------------------------------------------
         1        2.0000           -0.8669919             -23.5921
       ...           ...                  ...                  ...
        55        2.0000           -0.5058948             -13.7661
        56        2.0000           -0.5024996             -13.6737
        57        2.0000           -0.4925227             -13.4022
        58        2.0000           -0.4872134             -13.2578
        59        2.0000           -0.4813361             -13.0978
        60        2.0000           -0.4699584             -12.7882
        61        2.0000           -0.4689306             -12.7602
        62        2.0000           -0.4647402             -12.6462
        63        2.0000           -0.4623799             -12.5820
        64        2.0000           -0.4532310             -12.3330
        65        2.0000           -0.4508581             -12.2685
        66        2.0000           -0.4234755             -11.5234
        67        2.0000           -0.4131876             -11.2434 (HOMO)
        68                         -0.3319390              -9.0325 (LUMO)
        69                         -0.3126032              -8.5064
        70                         -0.2826976              -7.6926
        71                         -0.2578816              -7.0173
        72                         -0.2410895              -6.5604
        73                         -0.2007710              -5.4633
        74                         -0.1538021              -4.1852
        75                         -0.1427513              -3.8845
        76                         -0.1422994              -3.8722
        77                         -0.1328971              -3.6163
        78                         -0.1321453              -3.5959
       ...                                ...                  ...
       134                          0.7301519              19.8684
      -------------------------------------------------------------
                  HL-Gap            0.0812486 Eh            2.2109 eV

Wiberg/Mayer (AO) data.
largest (>0.10) Wiberg bond orders for each atom

     #   Z sym  total        # sym  WBO       # sym  WBO       # sym  WBO
 ---------------------------------------------------------------------------
     1   6 C    3.879 --    27 H    0.986    28 H    0.980    26 H    0.980
                             2 O    0.905
     2   8 O    2.201 --     3 C    1.104     1 C    0.905     4 O    0.129
     3   6 C    3.853 --     4 O    1.629     2 O    1.104     5 C    1.030
     4   8 O    1.897 --     3 C    1.629     2 O    0.129
     5   6 C    3.948 --     6 N    1.279    24 C    1.218     3 C    1.030
                            25 O    0.130
     6   7 N    3.046 --     7 C    1.547     5 C    1.279
     7   6 C    3.914 --     6 N    1.547    20 N    1.117     8 C    0.984
     8   6 C    3.932 --    10 C    0.991     7 C    0.984     9 C    0.977
                            11 N    0.920
     9   6 C    3.985 --    30 H    0.985    31 H    0.985    29 H    0.978
                             8 C    0.977
    10   6 C    3.988 --     8 C    0.991    34 H    0.985    33 H    0.983
                            32 H    0.982
    11   7 N    3.337 --    12 C    1.248     8 C    0.920    35 H    0.894
                            13 O    0.175
    12   6 C    3.915 --    13 O    1.592    11 N    1.248    14 C    0.992
    13   8 O    1.908 --    12 C    1.592    11 N    0.175
    14   6 C    3.872 --    15 N    1.625    19 O    1.045    12 C    0.992
    15   7 N    3.000 --    14 C    1.625    16 N    1.197
    16   7 N    2.982 --    17 C    1.612    15 N    1.197
    17   6 C    3.868 --    16 N    1.612    19 O    1.070    18 C    1.032
    18   6 C    3.986 --    17 C    1.032    36 H    0.982    37 H    0.963
                            38 H    0.962
    19   8 O    2.314 --    17 C    1.070    14 C    1.045
    20   7 N    3.528 --    21 C    1.321     7 C    1.117    39 H    0.877
    21   6 C    3.857 --    20 N    1.321    22 O    1.144    24 C    1.069
    22   8 O    2.229 --    21 C    1.144    23 C    0.876
    23   6 C    3.846 --    42 H    0.984    41 H    0.977    40 H    0.977
                            22 O    0.876
    24   6 C    3.951 --    25 O    1.508     5 C    1.218    21 C    1.069
    25   8 O    1.858 --    24 C    1.508     5 C    0.130
    26   1 H    1.008 --     1 C    0.980
    27   1 H    1.012 --     1 C    0.986
    28   1 H    1.009 --     1 C    0.980
    29   1 H    1.008 --     9 C    0.978
    30   1 H    1.001 --     9 C    0.985
    31   1 H    1.001 --     9 C    0.985
    32   1 H    1.008 --    10 C    0.982
    33   1 H    1.010 --    10 C    0.983
    34   1 H    1.004 --    10 C    0.985
    35   1 H    0.938 --    11 N    0.894
    36   1 H    0.998 --    18 C    0.982
    37   1 H    0.997 --    18 C    0.963
    38   1 H    0.997 --    18 C    0.962
    39   1 H    0.923 --    20 N    0.877
    40   1 H    1.015 --    23 C    0.977
    41   1 H    1.014 --    23 C    0.977
    42   1 H    1.009 --    23 C    0.984
 ---------------------------------------------------------------------------

           -------------------------------------------------
          | TOTAL ENERGY              -83.000759467476 Eh   |
          | GRADIENT NORM               0.000720940848 Eh/α |
          | HOMO-LUMO GAP               2.210887411748 eV   |
           -------------------------------------------------

 * finished run on 2023/06/21 at 18:03:04.241
