   * xtb version 6.5.1 (579679a) compiled by 'ehlert@majestix' on 2022-07-11
          program call               : /lustre/hpc/kemi/ree/PhD/git/ReactivityQM/dep/xtb-6.5.1/bin/xtb --gfn 1 /lustre/hpc/kemi/ree/PhD/git/ReactivityQM/calculations/R03/reac02prodE10/conf16/R03_reac02prodE10_conf16_gfn1.xyz --opt --vfukui --chrg -1 --uhf 0 --alpb DMSO

   ID    Z sym.   atoms
    1    6 C      1, 3, 5, 7-10, 12, 14, 17-19, 22, 23, 25
    2    8 O      2, 4, 13, 20, 24, 26
    3    7 N      6, 11, 15, 16, 21
    4    1 H      27-46

      * Solvation model:               ALPB
        Solvent                        DMSO
        Solvent mass                       7.8130E+01 g/mol
          :  Hamiltonian                  GFN1-xTB          :
 * total energy  :   -86.9815221 Eh     change       -0.5442473E-09 Eh
 * total energy  :   -86.9961029 Eh     change       -0.1458075E-01 Eh
 * total energy  :   -87.0019838 Eh     change       -0.5880908E-02 Eh
 * total energy  :   -87.0027888 Eh     change       -0.8049950E-03 Eh
 * total energy  :   -87.0032518 Eh     change       -0.4630089E-03 Eh
 * total energy  :   -87.0033436 Eh     change       -0.9182329E-04 Eh
 * total energy  :   -87.0034201 Eh     change       -0.7646594E-04 Eh
 * total energy  :   -87.0034583 Eh     change       -0.3820783E-04 Eh
 * total energy  :   -87.0034886 Eh     change       -0.3029975E-04 Eh
 * total energy  :   -87.0035096 Eh     change       -0.2097284E-04 Eh
 * total energy  :   -87.0038625 Eh     change       -0.1916792E-04 Eh
 * total energy  :   -87.0038823 Eh     change       -0.1974344E-04 Eh
 * total energy  :   -87.0039083 Eh     change       -0.2602297E-04 Eh
 * total energy  :   -87.0039271 Eh     change       -0.1881774E-04 Eh
 * total energy  :   -87.0039491 Eh     change       -0.2197785E-04 Eh
 * total energy  :   -87.0039467 Eh     change        0.2388397E-05 Eh
 * total energy  :   -87.0039586 Eh     change       -0.1195337E-04 Eh
 * total energy  :   -87.0039628 Eh     change       -0.4126424E-05 Eh
 * total energy  :   -87.0039658 Eh     change       -0.3060157E-05 Eh
   *** GEOMETRY OPTIMIZATION CONVERGED AFTER 42 ITERATIONS ***

 final structure:
================
46
 xtb: 6.5.1 (579679a)
C           -6.36303035753088       -2.48468245433382       -0.02403224461498
O           -5.46151685556430       -1.53989876602594       -0.59058397964736
C           -4.34944583691506       -1.25786627844388        0.17826607589136
O           -4.19646608379241       -1.80738785386305        1.26866346192460
C           -3.44846969126920       -0.30137570995228       -0.41668936815171
N           -2.34927053128339       -0.01010604257883        0.36526219286293
C           -1.43453548089145        0.81456741732246       -0.01680238327787
C           -0.31126727610264        1.08946457261657        0.98686340069172
C           -0.46958511170443        0.12984790039656        2.18052087430547
C           -0.43619438187047        2.53912371596033        1.48643385321789
N            0.97420454916271        0.85666184249290        0.31732547457264
C            2.17907817636044        0.92389879265856        1.09545032907292
O            2.27197845064082        1.64117455452540        2.12479617112836
C            3.19968916878232        0.17048816446153        0.52225063533109
N            3.12798563078139       -0.63274943949334       -0.60189146644718
N            4.35605703198225       -1.14674705356991       -0.70342881215831
C            4.66303312660041       -2.04433621438876       -1.79213103064106
C            5.16880294487327       -0.73803833648984        0.24267498497550
C            6.59329692477447       -1.09515161795912        0.43744347267815
O            4.51937556156679        0.10179574183101        1.06765604459367
N           -1.49716767785513        1.45012467934715       -1.23789107311174
C           -0.50226361780557        2.39126884689797       -1.74478882336895
C           -2.60433777105192        1.27258397704580       -2.10552970289430
O           -2.63905349682013        1.91423757737539       -3.17040315688358
C           -3.58662482752024        0.34736430337405       -1.65530965395447
O           -4.64764270732914        0.16519110985018       -2.50304713953525
H           -7.20249720397331       -2.57812949661326       -0.71096330629625
H           -6.71951860948160       -2.14060585337711        0.95228007091088
H           -5.87497926993791       -3.45696629767295        0.09852537569554
H           -0.40964124921559       -0.90404086009324        1.84213407213176
H            0.31836700109156        0.31387553249332        2.90917351837079
H           -1.43647924288906        0.28496508232276        2.65785601073001
H            0.18806094758512        2.69175154396593        2.36516407631621
H           -1.47330616744932        2.73986750140866        1.75585286761053
H           -0.12852434549006        3.24904771143539        0.72167414011299
H            0.95168899185116       -0.00132512510896       -0.22514894471427
H            5.36927583975103       -1.56744170136816       -2.47107197593917
H            3.73699632943984       -2.26916651053364       -2.31611951026728
H            5.10334216815616       -2.95812951290927       -1.39697054738842
H            6.70888024603508       -2.17390593036563        0.55141617462168
H            7.18996337639427       -0.78412617061426       -0.42129237488018
H            6.96769535042292       -0.59858558811472        1.33036533599802
H            0.44519486212121        2.26674708393522       -1.22781240308633
H           -0.35392899378543        2.19938750790171       -2.80956324272885
H           -0.86228150621939        3.41617162970795       -1.62459844039754
H           -5.27494138462502       -0.47884297545400       -2.13690303335584

          :  Hamiltonian                  GFN1-xTB          :
         :: total energy             -87.003965834894 Eh    ::
         :: gradient norm              0.000554412350 Eh/a0 ::
         :: HOMO-LUMO gap              0.038889729541 eV    ::
         :: SCC energy               -87.793295957717 Eh    ::
         :: -> Gsolv                  -0.128455330952 Eh    ::
         :: repulsion energy           0.817793576611 Eh    ::

    * Orbital Energies and Occupations

         #    Occupation            Energy/Eh            Energy/eV
      -------------------------------------------------------------
         1        2.0000           -0.8396550             -22.8482
       ...           ...                  ...                  ...
        59        2.0000           -0.4709462             -12.8151
        60        2.0000           -0.4653948             -12.6640
        61        2.0000           -0.4641913             -12.6313
        62        2.0000           -0.4465096             -12.1501
        63        2.0000           -0.4377131             -11.9108
        64        2.0000           -0.4276628             -11.6373
        65        2.0000           -0.4198021             -11.4234
        66        2.0000           -0.4142592             -11.2726
        67        2.0000           -0.4040568             -10.9949
        68        2.0000           -0.4027449             -10.9592
        69        2.0000           -0.3875818             -10.5466
        70        2.0000           -0.3824106             -10.4059
        71        1.3593           -0.2904911              -7.9047 (HOMO)
        72        0.6407           -0.2890619              -7.8658 (LUMO)
        73                         -0.2613463              -7.1116
        74                         -0.2372275              -6.4553
        75                         -0.1957359              -5.3262
        76                         -0.1538530              -4.1866
        77                         -0.1463525              -3.9825
        78                         -0.1392487              -3.7891
        79                         -0.1206412              -3.2828
        80                         -0.1176684              -3.2019
        81                         -0.1118785              -3.0444
        82                         -0.0996413              -2.7114
       ...                                ...                  ...
       144                          0.6974855              18.9795
      -------------------------------------------------------------
                  HL-Gap            0.0014292 Eh            0.0389 eV

Wiberg/Mayer (AO) data.
largest (>0.10) Wiberg bond orders for each atom

     #   Z sym  total        # sym  WBO       # sym  WBO       # sym  WBO
 ---------------------------------------------------------------------------
     1   6 C    3.892 --    27 H    0.987    29 H    0.981    28 H    0.981
                             2 O    0.918
     2   8 O    2.115 --     3 C    0.987     1 C    0.918
     3   6 C    3.733 --     4 O    1.542     5 C    1.137     2 O    0.987
     4   8 O    1.765 --     3 C    1.542
     5   6 C    3.817 --    25 C    1.308     6 N    1.148     3 C    1.137
     6   7 N    3.010 --     7 C    1.598     5 C    1.148
     7   6 C    3.903 --     6 N    1.598    21 N    1.143     8 C    0.971
     8   6 C    3.956 --     9 C    0.991    10 C    0.986     7 C    0.971
                            11 N    0.950
     9   6 C    3.993 --     8 C    0.991    30 H    0.986    32 H    0.985
                            31 H    0.983
    10   6 C    3.992 --    34 H    0.988     8 C    0.986    35 H    0.982
                            33 H    0.978
    11   7 N    3.100 --    12 C    0.994     8 C    0.950    36 H    0.930
    12   6 C    3.805 --    13 O    1.398    14 C    1.313    11 N    0.994
    13   8 O    1.655 --    12 C    1.398
    14   6 C    3.559 --    12 C    1.313    15 N    1.180    20 O    0.883
    15   7 N    2.678 --    14 C    1.180    16 N    1.158    18 C    0.198
    16   7 N    3.639 --    18 C    1.409    15 N    1.158    17 C    0.940
    17   6 C    3.936 --    38 H    0.983    39 H    0.980    37 H    0.977
                            16 N    0.940
    18   6 C    3.794 --    16 N    1.409    20 O    1.083    19 C    1.028
                            15 N    0.198
    19   6 C    3.987 --    18 C    1.028    42 H    0.981    40 H    0.966
                            41 H    0.966
    20   8 O    2.127 --    18 C    1.083    14 C    0.883
    21   7 N    3.359 --     7 C    1.143    23 C    1.033    22 C    0.946
                            24 O    0.103
    22   6 C    3.942 --    45 H    0.980    44 H    0.978    43 H    0.974
                            21 N    0.946
    23   6 C    3.838 --    24 O    1.477    25 C    1.205    21 N    1.033
    24   8 O    1.753 --    23 C    1.477    21 N    0.103
    25   6 C    3.727 --     5 C    1.308    23 C    1.205    26 O    1.032
    26   8 O    1.980 --    25 C    1.032    46 H    0.824
    27   1 H    1.014 --     1 C    0.987
    28   1 H    1.013 --     1 C    0.981
    29   1 H    1.012 --     1 C    0.981
    30   1 H    1.014 --     9 C    0.986
    31   1 H    1.015 --     9 C    0.983
    32   1 H    1.018 --     9 C    0.985
    33   1 H    1.025 --    10 C    0.978
    34   1 H    1.007 --    10 C    0.988
    35   1 H    1.008 --    10 C    0.982
    36   1 H    0.978 --    11 N    0.930
    37   1 H    0.999 --    17 C    0.977
    38   1 H    1.006 --    17 C    0.983
    39   1 H    0.999 --    17 C    0.980
    40   1 H    0.996 --    19 C    0.966
    41   1 H    0.996 --    19 C    0.966
    42   1 H    0.998 --    19 C    0.981
    43   1 H    1.027 --    22 C    0.974
    44   1 H    1.015 --    22 C    0.978
    45   1 H    1.006 --    22 C    0.980
    46   1 H    0.879 --    26 O    0.824
 ---------------------------------------------------------------------------

           -------------------------------------------------
          | TOTAL ENERGY              -87.003965834894 Eh   |
          | GRADIENT NORM               0.000554412350 Eh/α |
          | HOMO-LUMO GAP               0.038889729541 eV   |
           -------------------------------------------------

 * finished run on 2023/06/20 at 15:30:05.336
