   * xtb version 6.5.1 (579679a) compiled by 'ehlert@majestix' on 2022-07-11
          program call               : /lustre/hpc/kemi/ree/PhD/git/ReactivityQM/dep/xtb-6.5.1/bin/xtb --gfn 1 /lustre/hpc/kemi/ree/PhD/git/ReactivityQM/calculations/R02deprot/reac01prodN05/conf02/R02deprot_reac01prodN05_conf02_gfn1.xyz --opt --vfukui --chrg 0 --uhf 0 --alpb DMSO

   ID    Z sym.   atoms
    1    6 C      1, 3, 5, 7-10, 12, 14, 17, 18, 21, 23, 25
    2    8 O      2, 4, 13, 19, 22, 24
    3    7 N      6, 11, 15, 16, 20
    4    1 H      26-42

      * Solvation model:               ALPB
        Solvent                        DMSO
        Solvent mass                       7.8130E+01 g/mol
          :  Hamiltonian                  GFN1-xTB          :
 * total energy  :   -82.9273033 Eh     change       -0.2127365E-10 Eh
 * total energy  :   -82.9431566 Eh     change       -0.1585327E-01 Eh
 * total energy  :   -82.9505706 Eh     change       -0.7413953E-02 Eh
 * total energy  :   -82.9531208 Eh     change       -0.2550259E-02 Eh
 * total energy  :   -82.9552298 Eh     change       -0.2109032E-02 Eh
 * total energy  :   -82.9566472 Eh     change       -0.1417345E-02 Eh
 * total energy  :   -82.9577709 Eh     change       -0.1123690E-02 Eh
 * total energy  :   -82.9595907 Eh     change       -0.1819812E-02 Eh
 * total energy  :   -82.9607129 Eh     change       -0.1122159E-02 Eh
 * total energy  :   -82.9619019 Eh     change       -0.1189002E-02 Eh
 * total energy  :   -82.9734553 Eh     change       -0.2001283E-04 Eh
 * total energy  :   -82.9734643 Eh     change       -0.9078453E-05 Eh
 * total energy  :   -82.9734753 Eh     change       -0.1098071E-04 Eh
 * total energy  :   -82.9734876 Eh     change       -0.1231757E-04 Eh
 * total energy  :   -82.9734983 Eh     change       -0.1062792E-04 Eh
 * total energy  :   -82.9735067 Eh     change       -0.8471555E-05 Eh
 * total energy  :   -82.9735132 Eh     change       -0.6499090E-05 Eh
 * total energy  :   -82.9735192 Eh     change       -0.5962029E-05 Eh
 * total energy  :   -82.9735233 Eh     change       -0.4141929E-05 Eh
   *** GEOMETRY OPTIMIZATION CONVERGED AFTER 86 ITERATIONS ***

 final structure:
================
42
 xtb: 6.5.1 (579679a)
C            4.92018480294956        2.83630141079758        1.83323945418648
O            3.77880181621822        2.10199522096663        1.36737834479961
C            3.93506759184955        1.18330037801006        0.47233594407718
O            5.14300602157821        0.97228989901603        0.04273265407658
C            2.78126014440248        0.47107115925873        0.01388575503140
N            1.60161553183170        0.84137182207493        0.59293652018502
C            0.52097690734066        0.21248610237820        0.17936750910664
C           -0.77608622123984        0.63709452234966        0.85111789581601
C           -0.96511869254555        2.14995775174902        0.67496618181039
C           -0.70248108539366        0.26673518900053        2.33974772444412
N           -1.86636461141030       -0.08496959895775        0.20531942086220
C           -3.15946345879255        0.04192625307800        0.53161614863400
O           -3.60907810054069        0.76312800186108        1.40998805218085
C           -4.01681285467506       -0.81934997649796       -0.33051666746021
N           -3.61103498645197       -1.60639308723149       -1.28025717542065
N           -4.72399077965411       -2.19209333562312       -1.80875718414332
C           -5.73692265384670       -1.72382451612666       -1.14686001902799
C           -7.16854108972325       -2.04500895320401       -1.33960190334733
O           -5.35666327908591       -0.85287303135388       -0.20011701733395
N            0.46074231016628       -0.74164651659453       -0.73887864357835
C            1.57736053356477       -1.18387072443756       -1.37166545673031
O            1.53931261179220       -2.07014732901861       -2.23133147498781
C            2.83535535628898       -0.52627735308245       -0.95811804217370
O            4.04033907208568       -0.83242074544271       -1.47232129540189
C            4.20858686989215       -1.84440732913282       -2.47800122439546
H            5.62733093647803        2.15440450067599        2.30727662209883
H            4.54135030882845        3.55981033707332        2.55155087906889
H            5.40174601184747        3.33965541401352        0.99392452727767
H           -1.84615388982676        2.49015195718674        1.21669760001616
H           -1.07887087401511        2.39094154979713       -0.38132317718897
H           -0.08599504172230        2.66322735212114        1.06156871084562
H           -1.59704845180605        0.60390855329464        2.86108028374296
H            0.17096723012059        0.74565422582059        2.77960096790072
H           -0.60799619613884       -0.81273691596794        2.45146362819977
H           -1.59249361460319       -0.72422524963390       -0.53718055308715
H           -7.27194723491115       -2.80526592243982       -2.10983537047721
H           -7.71468357398038       -1.14977158783010       -1.63663527907936
H           -7.59806928633209       -2.40758464558051       -0.40628492782740
H            5.18920544480240        0.26571692187900       -0.64226984312296
H            3.65659590945674       -1.58277728788175       -3.38262249478873
H            5.27700545568186       -1.86949327273888       -2.68818352896971
H            3.87900310951106       -2.81599114363114       -2.10538654582990

          :  Hamiltonian                  GFN1-xTB          :
         :: total energy             -82.973523343260 Eh    ::
         :: gradient norm              0.000507496307 Eh/a0 ::
         :: HOMO-LUMO gap              1.524910718629 eV    ::
         :: SCC energy               -83.741222578217 Eh    ::
         :: -> Gsolv                  -0.061668369226 Eh    ::
         :: repulsion energy           0.792537577754 Eh    ::

    * Orbital Energies and Occupations

         #    Occupation            Energy/Eh            Energy/eV
      -------------------------------------------------------------
         1        2.0000           -0.8855694             -24.0976
       ...           ...                  ...                  ...
        55        2.0000           -0.4999203             -13.6035
        56        2.0000           -0.4913928             -13.3715
        57        2.0000           -0.4907388             -13.3537
        58        2.0000           -0.4776589             -12.9978
        59        2.0000           -0.4660765             -12.6826
        60        2.0000           -0.4601846             -12.5223
        61        2.0000           -0.4575617             -12.4509
        62        2.0000           -0.4538538             -12.3500
        63        2.0000           -0.4460328             -12.1372
        64        2.0000           -0.4364382             -11.8761
        65        2.0000           -0.4322936             -11.7633
        66        2.0000           -0.4059286             -11.0459
        67        2.0000           -0.4050512             -11.0220 (HOMO)
        68                         -0.3490117              -9.4971 (LUMO)
        69                         -0.3027044              -8.2370
        70                         -0.2612965              -7.1102
        71                         -0.2531687              -6.8891
        72                         -0.2390450              -6.5047
        73                         -0.1909453              -5.1959
        74                         -0.1554330              -4.2295
        75                         -0.1469403              -3.9985
        76                         -0.1413134              -3.8453
        77                         -0.1305096              -3.5513
        78                         -0.1162407              -3.1631
       ...                                ...                  ...
       134                          0.7254068              19.7393
      -------------------------------------------------------------
                  HL-Gap            0.0560394 Eh            1.5249 eV

Wiberg/Mayer (AO) data.
largest (>0.10) Wiberg bond orders for each atom

     #   Z sym  total        # sym  WBO       # sym  WBO       # sym  WBO
 ---------------------------------------------------------------------------
     1   6 C    3.841 --    27 H    0.983    28 H    0.975    26 H    0.975
                             2 O    0.869
     2   8 O    2.292 --     3 C    1.241     1 C    0.869
     3   6 C    3.806 --     2 O    1.241     4 O    1.221     5 C    1.166
     4   8 O    2.170 --     3 C    1.221    39 H    0.748
     5   6 C    3.957 --    23 C    1.362     6 N    1.194     3 C    1.166
     6   7 N    2.991 --     7 C    1.447     5 C    1.194
     7   6 C    3.951 --     6 N    1.447    20 N    1.374     8 C    0.977
     8   6 C    3.935 --     9 C    0.983    10 C    0.980     7 C    0.977
                            11 N    0.929
     9   6 C    3.992 --    30 H    0.986    31 H    0.984     8 C    0.983
                            29 H    0.982
    10   6 C    3.992 --    34 H    0.986    33 H    0.985    32 H    0.982
                             8 C    0.980
    11   7 N    3.374 --    12 C    1.286     8 C    0.929    35 H    0.875
                            13 O    0.185
    12   6 C    3.922 --    13 O    1.572    11 N    1.286    14 C    0.983
    13   8 O    1.891 --    12 C    1.572    11 N    0.185
    14   6 C    3.872 --    15 N    1.617    19 O    1.062    12 C    0.983
    15   7 N    3.011 --    14 C    1.617    16 N    1.194
    16   7 N    2.980 --    17 C    1.611    15 N    1.194
    17   6 C    3.873 --    16 N    1.611    19 O    1.081    18 C    1.030
    18   6 C    3.987 --    17 C    1.030    36 H    0.983    38 H    0.965
                            37 H    0.963
    19   8 O    2.326 --    17 C    1.081    14 C    1.062
    20   7 N    3.024 --     7 C    1.374    21 C    1.232    22 O    0.131
    21   6 C    3.930 --    22 O    1.517    20 N    1.232    23 C    1.051
    22   8 O    1.852 --    21 C    1.517    20 N    0.131
    23   6 C    3.884 --     5 C    1.362    24 O    1.086    21 C    1.051
    24   8 O    2.222 --    23 C    1.086    25 C    0.875
    25   6 C    3.853 --    41 H    0.985    42 H    0.977    40 H    0.977
                            24 O    0.875
    26   1 H    1.000 --     1 C    0.975
    27   1 H    1.005 --     1 C    0.983
    28   1 H    1.000 --     1 C    0.975
    29   1 H    1.011 --     9 C    0.982
    30   1 H    1.004 --     9 C    0.986
    31   1 H    1.013 --     9 C    0.984
    32   1 H    1.010 --    10 C    0.982
    33   1 H    1.011 --    10 C    0.985
    34   1 H    1.004 --    10 C    0.986
    35   1 H    0.975 --    11 N    0.875
    36   1 H    0.999 --    18 C    0.983
    37   1 H    0.997 --    18 C    0.963
    38   1 H    0.997 --    18 C    0.965
    39   1 H    0.821 --     4 O    0.748
    40   1 H    1.017 --    25 C    0.977
    41   1 H    1.010 --    25 C    0.985
    42   1 H    1.017 --    25 C    0.977
 ---------------------------------------------------------------------------

           -------------------------------------------------
          | TOTAL ENERGY              -82.973523343260 Eh   |
          | GRADIENT NORM               0.000507496307 Eh/α |
          | HOMO-LUMO GAP               1.524910718629 eV   |
           -------------------------------------------------

 * finished run on 2023/06/20 at 18:10:30.744
