   * xtb version 6.5.1 (579679a) compiled by 'ehlert@majestix' on 2022-07-11
          program call               : /lustre/hpc/kemi/ree/PhD/git/ReactivityQM/dep/xtb-6.5.1/bin/xtb --gfn 1 /lustre/hpc/kemi/ree/PhD/git/ReactivityQM/calculations/R03/reac02prodN14/conf17/R03_reac02prodN14_conf17_gfn1.xyz --opt --vfukui --chrg 1 --uhf 0 --alpb DMSO

   ID    Z sym.   atoms
    1    6 C      1, 3, 5, 6, 8, 9, 12-16, 18, 20, 23, 24
    2    8 O      2, 4, 7, 10, 19, 25
    3    7 N      11, 17, 21, 22, 26
    4    1 H      27-46

      * Solvation model:               ALPB
        Solvent                        DMSO
        Solvent mass                       7.8130E+01 g/mol
          :  Hamiltonian                  GFN1-xTB          :
 * total energy  :   -86.1947747 Eh     change       -0.5930190E-10 Eh
 * total energy  :   -86.2157520 Eh     change       -0.2097730E-01 Eh
 * total energy  :   -86.2313557 Eh     change       -0.1560367E-01 Eh
 * total energy  :   -86.2357006 Eh     change       -0.4344868E-02 Eh
 * total energy  :   -86.2393190 Eh     change       -0.3618416E-02 Eh
 * total energy  :   -86.2413377 Eh     change       -0.2018669E-02 Eh
 * total energy  :   -86.2433613 Eh     change       -0.2023641E-02 Eh
 * total energy  :   -86.2454045 Eh     change       -0.2043244E-02 Eh
 * total energy  :   -86.2471606 Eh     change       -0.1756019E-02 Eh
 * total energy  :   -86.2486510 Eh     change       -0.1490450E-02 Eh
 * total energy  :   -86.3043029 Eh     change       -0.8836286E-05 Eh
 * total energy  :   -86.3043105 Eh     change       -0.7620996E-05 Eh
 * total energy  :   -86.3043185 Eh     change       -0.7970332E-05 Eh
 * total energy  :   -86.3043252 Eh     change       -0.6722045E-05 Eh
 * total energy  :   -86.3043310 Eh     change       -0.5742529E-05 Eh
 * total energy  :   -86.3043379 Eh     change       -0.6933515E-05 Eh
 * total energy  :   -86.3043373 Eh     change        0.5889603E-06 Eh
 * total energy  :   -86.3043413 Eh     change       -0.3965800E-05 Eh
 * total energy  :   -86.3043435 Eh     change       -0.2260055E-05 Eh
   *** GEOMETRY OPTIMIZATION CONVERGED AFTER 94 ITERATIONS ***

 final structure:
================
46
 xtb: 6.5.1 (579679a)
C           -6.09622301414449       -1.30397459163119        1.68918981902465
O           -5.00220122969332       -0.95102075860855        0.81784719967677
C           -3.78674431384648       -1.07051445023133        1.31224731441971
O           -3.50668654194092       -1.47009709065712        2.40685291317112
C           -2.73439175660200       -0.61792612041238        0.31177756491360
C           -3.03049710435755       -0.51622132454501       -1.15471904319988
O           -3.87114207842586       -1.49123382186731       -1.66078161410855
C           -1.75694906010677       -0.50514263914900       -1.96461982546915
C           -3.63199484413868        0.91387443126979       -1.35193610646540
O           -1.62868225695050       -0.84344010983793       -3.09635910730087
N           -0.62915682514619        0.11059217078373       -1.27829049616612
C            0.44430902815887        0.48148642261021       -2.20506482948923
C           -0.56814872110639        0.17423737173383        0.03495748219390
C            0.58947227122926        0.73310686272131        0.82315895448017
C            0.42158358025081        2.26643185957503        0.75611935057598
C            0.54072473985505        0.26318050778173        2.28423650899429
N            1.84327356610947        0.29046738689170        0.22575055827345
C            3.05644387420170        0.79310283189955        0.61289934395722
O            3.22225808804820        1.78496144891164        1.28784099825187
C            4.14610203787889       -0.04003844975352        0.06154648653989
N            3.99543502073567       -1.15421426910150       -0.59266655702112
N            5.24218411315781       -1.60228514829612       -0.89421283640542
C            6.07827212528132       -0.73396517580450       -0.40348855634860
C            7.55526267480524       -0.76248108073681       -0.47015882028414
O            5.44375133399119        0.27240480170634        0.21329105247099
N           -1.61339445887241       -0.23556696181677        0.81167632549109
H           -6.01830811737480       -0.73531481978906        2.61707634700509
H           -7.00546885895294       -1.04862721994899        1.15191976575758
H           -6.05624859369211       -2.37299146650547        1.90393368148439
H           -4.75407721148254       -1.44315803213699       -1.26575462696676
H           -4.55691167513725        0.97737107453289       -0.78403904973951
H           -2.93572843616059        1.67620859879146       -1.01268819203395
H           -3.84294610964715        1.04297507837092       -2.41179123128829
H            1.11677230462206        1.18672778417086       -1.73360702901699
H           -0.02108706350343        0.92679251996455       -3.08285515441418
H            0.97981857608074       -0.42079441262359       -2.49843081471356
H            1.11038329749268        2.73442186986272        1.45630624071464
H            0.62447951702118        2.63417827856953       -0.24631149700344
H           -0.59834055709980        2.52704007947802        1.03322542538591
H            0.57557313078044       -0.82351601062542        2.32965098605145
H           -0.37219021208883        0.61329046333147        2.76080660623486
H            1.40053739595918        0.67413991149960        2.81072011270098
H            1.85735772705962       -0.64725890729408       -0.15000951946853
H            7.88331864267153       -1.68269030012897       -0.94725743532686
H            7.97400496529855       -0.69734020125701        0.53385533317912
H            7.91620002978031        0.09281960830262       -1.04184102871477

          :  Hamiltonian                  GFN1-xTB          :
         :: total energy             -86.304343531862 Eh    ::
         :: gradient norm              0.000342307439 Eh/a0 ::
         :: HOMO-LUMO gap              0.960801765933 eV    ::
         :: SCC energy               -87.133853509090 Eh    ::
         :: -> Gsolv                  -0.109414827197 Eh    ::
         :: repulsion energy           0.859472709201 Eh    ::

    * Orbital Energies and Occupations

         #    Occupation            Energy/Eh            Energy/eV
      -------------------------------------------------------------
         1        2.0000           -0.9006926             -24.5091
       ...           ...                  ...                  ...
        58        2.0000           -0.5364060             -14.5964
        59        2.0000           -0.5325938             -14.4926
        60        2.0000           -0.5285691             -14.3831
        61        2.0000           -0.5257155             -14.3054
        62        2.0000           -0.5241370             -14.2625
        63        2.0000           -0.5175504             -14.0833
        64        2.0000           -0.5133202             -13.9682
        65        2.0000           -0.4956846             -13.4883
        66        2.0000           -0.4916510             -13.3785
        67        2.0000           -0.4841586             -13.1746
        68        2.0000           -0.4784583             -13.0195
        69        2.0000           -0.4648819             -12.6501
        70        2.0000           -0.4630893             -12.6013 (HOMO)
        71                         -0.4277805             -11.6405 (LUMO)
        72                         -0.3550218              -9.6606
        73                         -0.3288200              -8.9476
        74                         -0.3141015              -8.5471
        75                         -0.2674444              -7.2775
        76                         -0.2666753              -7.2566
        77                         -0.2159335              -5.8758
        78                         -0.1709213              -4.6510
        79                         -0.1597377              -4.3467
        80                         -0.1522831              -4.1438
        81                         -0.1478167              -4.0223
       ...                                ...                  ...
       144                          0.7234697              19.6866
      -------------------------------------------------------------
                  HL-Gap            0.0353088 Eh            0.9608 eV

Wiberg/Mayer (AO) data.
largest (>0.10) Wiberg bond orders for each atom

     #   Z sym  total        # sym  WBO       # sym  WBO       # sym  WBO
 ---------------------------------------------------------------------------
     1   6 C    3.833 --    28 H    0.984    27 H    0.976    29 H    0.975
                             2 O    0.861
     2   8 O    2.241 --     3 C    1.150     1 C    0.861     4 O    0.154
     3   6 C    3.863 --     4 O    1.709     2 O    1.150     5 C    0.936
     4   8 O    1.982 --     3 C    1.709     2 O    0.154
     5   6 C    3.907 --    26 N    1.661     6 C    0.988     3 C    0.936
     6   6 C    3.941 --     7 O    1.003     5 C    0.988     8 C    0.957
                             9 C    0.867
     7   8 O    1.924 --     6 C    1.003    30 H    0.820
     8   6 C    3.853 --    10 O    1.817     6 C    0.957    11 N    0.938
     9   6 C    3.963 --    32 H    0.984    31 H    0.974    33 H    0.971
                             6 C    0.867
    10   8 O    2.062 --     8 C    1.817
    11   7 N    3.569 --    13 C    1.461     8 C    0.938    12 C    0.906
    12   6 C    3.882 --    34 H    0.974    35 H    0.967    36 H    0.959
                            11 N    0.906
    13   6 C    3.884 --    11 N    1.461    26 N    1.180    14 C    1.000
    14   6 C    3.931 --    13 C    1.000    16 C    0.978    17 N    0.940
                            15 C    0.937
    15   6 C    3.972 --    39 H    0.982    38 H    0.980    37 H    0.964
                            14 C    0.937
    16   6 C    3.980 --    40 H    0.983    41 H    0.982    42 H    0.979
                            14 C    0.978
    17   7 N    3.294 --    18 C    1.181    14 C    0.940    43 H    0.891
                            19 O    0.159
    18   6 C    3.907 --    19 O    1.635    17 N    1.181    20 C    1.000
    19   8 O    1.944 --    18 C    1.635    17 N    0.159
    20   6 C    3.880 --    21 N    1.597    25 O    1.068    18 C    1.000
    21   7 N    3.025 --    20 C    1.597    22 N    1.212
    22   7 N    2.982 --    23 C    1.591    21 N    1.212
    23   6 C    3.866 --    22 N    1.591    25 O    1.086    24 C    1.033
    24   6 C    3.984 --    23 C    1.033    44 H    0.982    45 H    0.963
                            46 H    0.960
    25   8 O    2.337 --    23 C    1.086    20 C    1.068
    26   7 N    3.057 --     5 C    1.661    13 C    1.180
    27   1 H    1.000 --     1 C    0.976
    28   1 H    1.004 --     1 C    0.984
    29   1 H    1.000 --     1 C    0.975
    30   1 H    0.850 --     7 O    0.820
    31   1 H    0.998 --     9 C    0.974
    32   1 H    0.993 --     9 C    0.984
    33   1 H    0.991 --     9 C    0.971
    34   1 H    1.005 --    12 C    0.974
    35   1 H    0.993 --    12 C    0.967
    36   1 H    0.993 --    12 C    0.959
    37   1 H    1.006 --    15 C    0.964
    38   1 H    0.997 --    15 C    0.980
    39   1 H    0.997 --    15 C    0.982
    40   1 H    0.999 --    16 C    0.983
    41   1 H    1.006 --    16 C    0.982
    42   1 H    0.999 --    16 C    0.979
    43   1 H    0.948 --    17 N    0.891
    44   1 H    0.997 --    24 C    0.982
    45   1 H    0.995 --    24 C    0.963
    46   1 H    0.995 --    24 C    0.960
 ---------------------------------------------------------------------------

           -------------------------------------------------
          | TOTAL ENERGY              -86.304343531862 Eh   |
          | GRADIENT NORM               0.000342307439 Eh/α |
          | HOMO-LUMO GAP               0.960801765933 eV   |
           -------------------------------------------------

 * finished run on 2023/06/20 at 15:50:26.647
