   * xtb version 6.5.1 (579679a) compiled by 'ehlert@majestix' on 2022-07-11
          program call               : /lustre/hpc/kemi/ree/PhD/git/ReactivityQM/dep/xtb-6.5.1/bin/xtb --gfn 1 /lustre/hpc/kemi/ree/PhD/git/ReactivityQM/calculations/R03/reac01prodE02/conf01/R03_reac01prodE02_conf01_gfn1.xyz --opt --vfukui --chrg -1 --uhf 0 --alpb DMSO

   ID    Z sym.   atoms
    1    6 C      1-4, 6-9
    2    9 F      5
    3    7 N      10
    4    1 H      11-21

      * Solvation model:               ALPB
        Solvent                        DMSO
        Solvent mass                       7.8130E+01 g/mol
          :  Hamiltonian                  GFN1-xTB          :
 * total energy  :   -31.4564065 Eh     change       -0.4458656E-11 Eh
 * total energy  :   -31.4616054 Eh     change       -0.5198947E-02 Eh
 * total energy  :   -31.4626235 Eh     change       -0.1018054E-02 Eh
 * total energy  :   -31.4627624 Eh     change       -0.1388780E-03 Eh
 * total energy  :   -31.4628924 Eh     change       -0.1300030E-03 Eh
 * total energy  :   -31.4629766 Eh     change       -0.8419668E-04 Eh
 * total energy  :   -31.4630631 Eh     change       -0.8648374E-04 Eh
 * total energy  :   -31.4631364 Eh     change       -0.7334844E-04 Eh
 * total energy  :   -31.4631903 Eh     change       -0.5389814E-04 Eh
 * total energy  :   -31.4632391 Eh     change       -0.4883864E-04 Eh
 * total energy  :   -31.4632919 Eh     change       -0.3042036E-04 Eh
 * total energy  :   -31.4633133 Eh     change       -0.2138147E-04 Eh
 * total energy  :   -31.4633304 Eh     change       -0.1711793E-04 Eh
 * total energy  :   -31.4633490 Eh     change       -0.1862157E-04 Eh
 * total energy  :   -31.4633719 Eh     change       -0.2286975E-04 Eh
 * total energy  :   -31.4633953 Eh     change       -0.2341552E-04 Eh
 * total energy  :   -31.4634091 Eh     change       -0.1384214E-04 Eh
 * total energy  :   -31.4634159 Eh     change       -0.6752339E-05 Eh
 * total energy  :   -31.4634195 Eh     change       -0.3572069E-05 Eh
   *** GEOMETRY OPTIMIZATION CONVERGED AFTER 20 ITERATIONS ***

 final structure:
================
21
 xtb: 6.5.1 (579679a)
C            0.07279364277883       -1.56667359513977       -1.18708657970400
C            0.57059709240783       -0.90783261679432        0.13729697371459
C            1.99736912577385       -0.42030355178503       -0.02178533661748
C            2.24773517868663        0.90283536236049       -0.18223278521800
F            3.55060830027077        1.27277392167453       -0.43510682249967
C            1.31736618993030        1.93823559955782       -0.04208343422691
C            0.03358951292384        1.54367786610024        0.40045689248955
C           -0.33777847212262        0.23928508706646        0.56133260591313
C           -1.69497844086649       -0.11037034300559        1.13362445080588
N           -2.80596165813855        0.04974063278037        0.16742664903307
H            0.73482997507387       -2.38683455801139       -1.47124743684893
H            0.06538338800552       -0.83018427112511       -1.99124041486762
H           -0.93636211516117       -1.96176102251141       -1.06303184700959
H            0.53842761843110       -1.71035724111067        0.90177886354018
H            2.78850108327390       -1.15826784817137       -0.08871260344329
H            1.59862683725582        2.97654605932190       -0.15062078382646
H           -0.67640745099441        2.32805425000715        0.66641923935338
H           -1.71431317816957       -1.15180331883627        1.48366627962615
H           -1.93056595168757        0.53019870625856        1.99757299372305
H           -2.64493860744951       -0.57186187660359       -0.61791076212220
H           -2.77452107022253        0.99490375796702       -0.19851614181460

          :  Hamiltonian                  GFN1-xTB          :
         :: total energy             -31.463419452799 Eh    ::
         :: gradient norm              0.000408393236 Eh/a0 ::
         :: HOMO-LUMO gap              2.665400639616 eV    ::
         :: SCC energy               -31.834274074204 Eh    ::
         :: -> Gsolv                  -0.075770568781 Eh    ::
         :: repulsion energy           0.381299089440 Eh    ::

    * Orbital Energies and Occupations

         #    Occupation            Energy/Eh            Energy/eV
      -------------------------------------------------------------
         1        2.0000           -0.7884676             -21.4553
       ...           ...                  ...                  ...
        16        2.0000           -0.4791940             -13.0395
        17        2.0000           -0.4777872             -13.0013
        18        2.0000           -0.4686361             -12.7522
        19        2.0000           -0.4614911             -12.5578
        20        2.0000           -0.4538593             -12.3501
        21        2.0000           -0.4443632             -12.0917
        22        2.0000           -0.4307969             -11.7226
        23        2.0000           -0.4225847             -11.4991
        24        2.0000           -0.4030857             -10.9685
        25        2.0000           -0.3992041             -10.8629
        26        2.0000           -0.3731211             -10.1531
        27        2.0000           -0.3571521              -9.7186
        28        2.0000           -0.2764910              -7.5237 (HOMO)
        29                         -0.1785394              -4.8583 (LUMO)
        30                         -0.1086279              -2.9559
        31                         -0.0856086              -2.3295
        32                         -0.0791280              -2.1532
        33                         -0.0698935              -1.9019
        34                         -0.0591798              -1.6104
        35                         -0.0468863              -1.2758
        36                         -0.0375266              -1.0212
        37                         -0.0261222              -0.7108
        38                         -0.0205355              -0.5588
        39                         -0.0153622              -0.4180
       ...                                ...                  ...
        62                          0.6582771              17.9126
      -------------------------------------------------------------
                  HL-Gap            0.0979517 Eh            2.6654 eV

Wiberg/Mayer (AO) data.
largest (>0.10) Wiberg bond orders for each atom

     #   Z sym  total        # sym  WBO       # sym  WBO       # sym  WBO
 ---------------------------------------------------------------------------
     1   6 C    3.992 --    12 H    0.989    11 H    0.987    13 H    0.984
                             2 C    0.967
     2   6 C    3.992 --     3 C    1.005     8 C    0.997    14 H    0.969
                             1 C    0.967
     3   6 C    3.901 --     4 C    1.586     2 C    1.005    15 H    0.975
                             6 C    0.108
     4   6 C    3.824 --     3 C    1.586     6 C    1.299     5 F    0.852
     5   9 F    0.960 --     4 C    0.852
     6   6 C    3.875 --     4 C    1.299     7 C    1.292    16 H    0.977
                             3 C    0.108     8 C    0.106
     7   6 C    3.994 --     8 C    1.617     6 C    1.292    17 H    0.972
     8   6 C    3.930 --     7 C    1.617     9 C    1.002     2 C    0.997
                             6 C    0.106
     9   6 C    3.967 --     8 C    1.002    18 H    0.982    19 H    0.980
                            10 N    0.967
    10   7 N    2.947 --     9 C    0.967    21 H    0.957    20 H    0.957
    11   1 H    1.015 --     1 C    0.987
    12   1 H    1.023 --     1 C    0.989
    13   1 H    1.014 --     1 C    0.984
    14   1 H    1.022 --     2 C    0.969
    15   1 H    1.004 --     3 C    0.975
    16   1 H    1.005 --     6 C    0.977
    17   1 H    1.006 --     7 C    0.972
    18   1 H    1.016 --     9 C    0.982
    19   1 H    1.020 --     9 C    0.980
    20   1 H    0.985 --    10 N    0.957
    21   1 H    0.981 --    10 N    0.957
 ---------------------------------------------------------------------------

           -------------------------------------------------
          | TOTAL ENERGY              -31.463419452799 Eh   |
          | GRADIENT NORM               0.000408393236 Eh/α |
          | HOMO-LUMO GAP               2.665400639616 eV   |
           -------------------------------------------------

 * finished run on 2023/06/20 at 15:12:59.070
