   * xtb version 6.5.1 (579679a) compiled by 'ehlert@majestix' on 2022-07-11
          program call               : /lustre/hpc/kemi/ree/PhD/git/ReactivityQM/dep/xtb-6.5.1/bin/xtb --gfn 1 /lustre/hpc/kemi/ree/PhD/git/ReactivityQM/calculations/RaltegravirCLI/reac02prodN12/conf12/RaltegravirCLI_reac02prodN12_conf12_gfn1.xyz --opt --vfukui --chrg 1 --uhf 0 --alpb DMSO

   ID    Z sym.   atoms
    1    6 C      1, 3, 5, 6, 8, 9, 12-16, 18, 19, 21-24
    2    7 N      2, 11, 20, 25
    3    8 O      4, 7, 10
    4    9 F      17
    5    1 H      26-47

      * Solvation model:               ALPB
        Solvent                        DMSO
        Solvent mass                       7.8130E+01 g/mol
          :  Hamiltonian                  GFN1-xTB          :
 * total energy  :   -79.4694497 Eh     change       -0.1787726E-10 Eh
 * total energy  :   -79.4808141 Eh     change       -0.1136437E-01 Eh
 * total energy  :   -79.4857465 Eh     change       -0.4932448E-02 Eh
 * total energy  :   -79.4868812 Eh     change       -0.1134648E-02 Eh
 * total energy  :   -79.4877170 Eh     change       -0.8358303E-03 Eh
 * total energy  :   -79.4881185 Eh     change       -0.4015005E-03 Eh
 * total energy  :   -79.4884856 Eh     change       -0.3671034E-03 Eh
 * total energy  :   -79.4888606 Eh     change       -0.3749835E-03 Eh
 * total energy  :   -79.4891779 Eh     change       -0.3173187E-03 Eh
 * total energy  :   -79.4894142 Eh     change       -0.2362920E-03 Eh
 * total energy  :   -79.4906502 Eh     change       -0.1249142E-04 Eh
 * total energy  :   -79.4906638 Eh     change       -0.1356891E-04 Eh
 * total energy  :   -79.4906763 Eh     change       -0.1251316E-04 Eh
 * total energy  :   -79.4906817 Eh     change       -0.5378853E-05 Eh
 * total energy  :   -79.4906956 Eh     change       -0.1391210E-04 Eh
 * total energy  :   -79.4907023 Eh     change       -0.6717375E-05 Eh
 * total energy  :   -79.4907100 Eh     change       -0.7730673E-05 Eh
 * total energy  :   -79.4907171 Eh     change       -0.7018628E-05 Eh
 * total energy  :   -79.4907219 Eh     change       -0.4837806E-05 Eh
   *** GEOMETRY OPTIMIZATION CONVERGED AFTER 49 ITERATIONS ***

 final structure:
================
47
 xtb: 6.5.1 (579679a)
C           -4.29057071451391        0.35522804367469       -1.47999096972912
N           -2.88895306671539        0.40179293803846       -1.05245310999389
C           -1.96065236764858        0.21029843663181       -2.11988442769994
O           -2.33453709781747        0.13117445883101       -3.25188582069528
C           -0.52530698584520       -0.05411357325769       -1.68800072563921
C           -0.47670951673231       -1.56850336240372       -1.33165391713694
O            0.35736773043131        0.23940288939926       -2.72132588863925
C           -0.22660115689262        0.73962102780676       -0.45824164912641
C            1.11290586517626        1.34496583869666       -0.08437693105985
O            1.18057055168137        2.15184259323559        0.82576932556693
N            2.15809401378111        0.91016774770863       -0.79822859070616
C            3.51707022729440        1.34222309320837       -0.48943499595216
C            4.26826692053796        0.24415315165000        0.23214589757134
C            5.45807397032131       -0.25570329304846       -0.28950849564232
C            6.15391576802696       -1.25540450608734        0.37702160836786
C            5.63164394566427       -1.74010737287680        1.56231750473563
F            6.29625299246026       -2.70685088223834        2.21079872265780
C            4.44814766359427       -1.26944650232677        2.10432157599188
C            3.76743259226005       -0.26849075362639        1.42760191790017
N           -1.16853478895418        0.89873924690304        0.40907501484366
C           -2.45994674652509        0.56552257181118        0.19376863595279
C           -3.32504252571760        0.44101155404044        1.42615721134701
C           -2.53806291726903        0.86184470653055        2.67409116546253
C           -3.72167129571729       -1.04341396449564        1.53017821563523
N           -4.52848186191029        1.24262505403865        1.27792158887057
H           -4.39700550190569        1.00443334250012       -2.34841330801037
H           -4.52983130517509       -0.66903710303916       -1.76163346427203
H           -4.92422857722317        0.69130284318461       -0.66355489946080
H           -0.78735213255149       -2.14300716876048       -2.20124204580243
H           -1.13057463773152       -1.78488931566427       -0.49083240910870
H            0.54986269470096       -1.82234842389681       -1.07808370296562
H            0.00871456229011       -0.06211365686490       -3.57385557867016
H            2.04365255895648        0.23288297918220       -1.53378695112556
H            4.01314465548617        1.59627771241368       -1.42903101117186
H            3.44707846773775        2.23713552683643        0.13723555131278
H            5.84608027896542        0.13528170587388       -1.22246139367450
H            7.07901117701513       -1.65469553991607       -0.01797134972709
H            4.06888148956439       -1.67979177006044        3.03100328907996
H            2.83677741272988        0.11451237877088        1.82877173309859
H           -2.21427890151301        1.89724350106912        2.58285651939795
H           -1.66331930077400        0.22602224322946        2.80078932137230
H           -3.18045802511950        0.76521278948985        3.54680262260707
H           -2.83246250974998       -1.67111284450882        1.55867837142503
H           -4.28863804073760       -1.19002285553477        2.44766093686040
H           -4.33732588260380       -1.33463333765235        0.68229144287939
H           -5.20038361823506        0.96999720577080        1.98060604100519
H           -4.31201606308558        2.22276864573292        1.39568042206727

          :  Hamiltonian                  GFN1-xTB          :
         :: total energy             -79.490721899154 Eh    ::
         :: gradient norm              0.000487253152 Eh/a0 ::
         :: HOMO-LUMO gap              0.701543265094 eV    ::
         :: SCC energy               -80.383319678261 Eh    ::
         :: -> Gsolv                  -0.108577932686 Eh    ::
         :: repulsion energy           0.923793326571 Eh    ::

    * Orbital Energies and Occupations

         #    Occupation            Energy/Eh            Energy/eV
      -------------------------------------------------------------
         1        2.0000           -0.8869687             -24.1356
       ...           ...                  ...                  ...
        55        2.0000           -0.5242348             -14.2652
        56        2.0000           -0.5206873             -14.1686
        57        2.0000           -0.5177856             -14.0897
        58        2.0000           -0.5117972             -13.9267
        59        2.0000           -0.5107312             -13.8977
        60        2.0000           -0.5042057             -13.7201
        61        2.0000           -0.4976464             -13.5416
        62        2.0000           -0.4815786             -13.1044
        63        2.0000           -0.4779038             -13.0044
        64        2.0000           -0.4676763             -12.7261
        65        2.0000           -0.4595029             -12.5037
        66        2.0000           -0.4451563             -12.1133
        67        2.0000           -0.4418662             -12.0238 (HOMO)
        68        0.0000           -0.4160850             -11.3222 (LUMO)
        69                         -0.3427792              -9.3275
        70                         -0.3012711              -8.1980
        71                         -0.2814522              -7.6587
        72                         -0.2758281              -7.5057
        73                         -0.2431511              -6.6165
        74                         -0.1636369              -4.4528
        75                         -0.1584854              -4.3126
        76                         -0.1542101              -4.1963
        77                         -0.1433234              -3.9000
        78                         -0.1355935              -3.6897
       ...                                ...                  ...
       144                          0.6893701              18.7587
      -------------------------------------------------------------
                  HL-Gap            0.0257812 Eh            0.7015 eV

Wiberg/Mayer (AO) data.
largest (>0.10) Wiberg bond orders for each atom

     #   Z sym  total        # sym  WBO       # sym  WBO       # sym  WBO
 ---------------------------------------------------------------------------
     1   6 C    3.879 --    26 H    0.969    27 H    0.966    28 H    0.959
                             2 N    0.901
     2   7 N    3.556 --    21 C    1.387     3 C    1.000     1 C    0.901
     3   6 C    3.858 --     4 O    1.780     2 N    1.000     5 C    0.933
     4   8 O    2.041 --     3 C    1.780
     5   6 C    3.935 --     8 C    1.000     7 O    0.989     3 C    0.933
                             6 C    0.893
     6   6 C    3.970 --    30 H    0.984    29 H    0.977    31 H    0.976
                             5 C    0.893
     7   8 O    1.926 --     5 C    0.989    32 H    0.812
     8   6 C    3.899 --    20 N    1.636     5 C    1.000     9 C    0.958
     9   6 C    3.921 --    10 O    1.589    11 N    1.296     8 C    0.958
    10   8 O    1.911 --     9 C    1.589    11 N    0.204
    11   7 N    3.420 --     9 C    1.296    12 C    0.933    33 H    0.882
                            10 O    0.204
    12   6 C    3.929 --    13 C    0.988    34 H    0.969    35 H    0.963
                            11 N    0.933
    13   6 C    3.983 --    14 C    1.422    19 C    1.413    12 C    0.988
    14   6 C    3.993 --    15 C    1.440    13 C    1.422    36 H    0.970
                            18 C    0.109
    15   6 C    3.990 --    14 C    1.440    16 C    1.402    37 H    0.968
                            19 C    0.111
    16   6 C    3.862 --    15 C    1.402    18 C    1.396    17 F    0.931
    17   9 F    1.060 --    16 C    0.931
    18   6 C    3.991 --    19 C    1.449    16 C    1.396    38 H    0.969
                            14 C    0.109
    19   6 C    3.993 --    18 C    1.449    13 C    1.413    39 H    0.971
                            15 C    0.111
    20   7 N    3.123 --     8 C    1.636    21 C    1.244
    21   6 C    3.869 --     2 N    1.387    20 N    1.244    22 C    0.990
    22   6 C    3.955 --    21 C    0.990    23 C    0.987    25 N    0.984
                            24 C    0.950
    23   6 C    3.988 --    22 C    0.987    42 H    0.983    40 H    0.982
                            41 H    0.981
    24   6 C    3.985 --    43 H    0.984    45 H    0.983    44 H    0.974
                            22 C    0.950
    25   7 N    3.007 --    22 C    0.984    47 H    0.928    46 H    0.924
    26   1 H    0.997 --     1 C    0.969
    27   1 H    0.994 --     1 C    0.966
    28   1 H    1.020 --     1 C    0.959
    29   1 H    0.993 --     6 C    0.977
    30   1 H    0.997 --     6 C    0.984
    31   1 H    0.996 --     6 C    0.976
    32   1 H    0.835 --     7 O    0.812
    33   1 H    0.939 --    11 N    0.882
    34   1 H    0.997 --    12 C    0.969
    35   1 H    1.006 --    12 C    0.963
    36   1 H    0.998 --    14 C    0.970
    37   1 H    0.996 --    15 C    0.968
    38   1 H    0.997 --    18 C    0.969
    39   1 H    1.001 --    19 C    0.971
    40   1 H    1.004 --    23 C    0.982
    41   1 H    1.004 --    23 C    0.981
    42   1 H    0.999 --    23 C    0.983
    43   1 H    0.999 --    24 C    0.984
    44   1 H    0.994 --    24 C    0.974
    45   1 H    0.998 --    24 C    0.983
    46   1 H    0.940 --    25 N    0.924
    47   1 H    0.943 --    25 N    0.928
 ---------------------------------------------------------------------------

           -------------------------------------------------
          | TOTAL ENERGY              -79.490721899154 Eh   |
          | GRADIENT NORM               0.000487253152 Eh/α |
          | HOMO-LUMO GAP               0.701543265094 eV   |
           -------------------------------------------------

 * finished run on 2023/06/20 at 15:33:25.521
