   * xtb version 6.5.1 (579679a) compiled by 'ehlert@majestix' on 2022-07-11
          program call               : /lustre/hpc/kemi/ree/PhD/git/ReactivityQM/dep/xtb-6.5.1/bin/xtb --gfn 1 /lustre/hpc/kemi/ree/PhD/git/ReactivityQM/calculations/R02methylcation/reac01prodN03/conf09/R02methylcation_reac01prodN03_conf09_gfn1.xyz --opt --vfukui --chrg 0 --uhf 0 --alpb DMSO

   ID    Z sym.   atoms
    1    6 C      1, 3, 5, 6, 8-11, 13, 15, 18, 19, 22, 24
    2    8 O      2, 4, 14, 20, 23, 25
    3    7 N      7, 12, 16, 17, 21
    4    1 H      26-42

      * Solvation model:               ALPB
        Solvent                        DMSO
        Solvent mass                       7.8130E+01 g/mol
          :  Hamiltonian                  GFN1-xTB          :
 * total energy  :   -82.9837259 Eh     change       -0.7062795E-11 Eh
 * total energy  :   -82.9952888 Eh     change       -0.1156286E-01 Eh
 * total energy  :   -83.0002643 Eh     change       -0.4975520E-02 Eh
 * total energy  :   -83.0013321 Eh     change       -0.1067727E-02 Eh
 * total energy  :   -83.0018217 Eh     change       -0.4896890E-03 Eh
 * total energy  :   -83.0020491 Eh     change       -0.2273632E-03 Eh
 * total energy  :   -83.0021715 Eh     change       -0.1223637E-03 Eh
 * total energy  :   -83.0022349 Eh     change       -0.6346946E-04 Eh
 * total energy  :   -83.0022786 Eh     change       -0.4367553E-04 Eh
 * total energy  :   -83.0023211 Eh     change       -0.4253281E-04 Eh
 * total energy  :   -83.0028611 Eh     change       -0.1062860E-04 Eh
 * total energy  :   -83.0028709 Eh     change       -0.9814414E-05 Eh
 * total energy  :   -83.0028868 Eh     change       -0.1580025E-04 Eh
 * total energy  :   -83.0028937 Eh     change       -0.6926621E-05 Eh
 * total energy  :   -83.0029038 Eh     change       -0.1009500E-04 Eh
 * total energy  :   -83.0029109 Eh     change       -0.7133243E-05 Eh
 * total energy  :   -83.0029163 Eh     change       -0.5429487E-05 Eh
 * total energy  :   -83.0029304 Eh     change       -0.1401974E-04 Eh
 * total energy  :   -83.0029351 Eh     change       -0.4696359E-05 Eh
   *** GEOMETRY OPTIMIZATION CONVERGED AFTER 34 ITERATIONS ***

 final structure:
================
42
 xtb: 6.5.1 (579679a)
C           -2.96001468433835        2.26412916239023        2.45512237420002
O           -2.75981023491234        1.26015416180584        1.44468603103670
C           -2.81858369354941        1.65883635644848        0.18940049965528
O           -3.05031363190400        2.77812971866880       -0.17597571097434
C           -2.56079717043369        0.48000601004448       -0.79382392274469
C           -2.54809887703410        1.01701563464364       -2.22562767548187
N           -1.25702211362564       -0.04695467457176       -0.45652098434875
C           -1.12533054839552       -1.04988383997371        0.30765704499513
C            0.25832484843351       -1.54689859265230        0.68024420393401
C            0.45346864024530       -1.45775991591854        2.20050095787318
C            0.44858217417579       -2.98428025854186        0.17537242218942
N            1.20748783806111       -0.66281363665516        0.01329061967379
C            2.54507029238771       -0.79155674777381        0.09593045220968
O            3.13999155082054       -1.64433223440103        0.73240176282906
C            3.22710666799557        0.25817075947196       -0.70543094309446
N            2.64890153534341        1.17073533738299       -1.42693834656890
N            3.64239139618573        1.91536041732386       -1.98852049465996
C            4.76391653553605        1.40891521833507       -1.57318375845214
C            6.13525085920736        1.86233595663569       -1.89408304900042
O            4.56730892744500        0.36011134027208       -0.76081710400979
N           -2.19087728123928       -1.75534816854522        0.84753246135034
C           -3.49607337683592       -1.55736780246994        0.50460249831072
O           -4.40034846855262       -2.19617119818151        0.99061854959527
C           -3.70743108299822       -0.48632087479367       -0.57178066367579
O           -4.74448438073064       -0.41003936576946       -1.17676523165453
H           -2.19973900658122        3.04080555457871        2.35723025146465
H           -2.86696248198424        1.75727147016884        3.41230056752842
H           -3.95289928364875        2.70439481972301        2.34666261976614
H           -1.78572571790941        1.78755404634708       -2.31643046379944
H           -2.32721510479848        0.20726846178363       -2.91745147733638
H           -3.52183738830506        1.44184306211449       -2.46396694018813
H            0.29539602518352       -0.43400353132367        2.53589355599719
H            1.46520217860590       -1.76767950647906        2.45669837811721
H           -0.25047588603134       -2.11297739460448        2.70872699761948
H           -0.29949302575698       -3.63712669925910        0.61955462784888
H            1.43789643653897       -3.34214947926182        0.45491566278086
H            0.34991195788466       -3.01359676833139       -0.90863963361631
H            0.81341489010024        0.08949566389110       -0.54148273120051
H            6.72222181028402        1.02819707728088       -2.27835298291986
H            6.09437810928238        2.65505306133696       -2.63736469507765
H            6.62508918278110        2.23253022718371       -0.99294255675490
H           -2.01777541693227       -2.48105282832329        1.52618282658331

          :  Hamiltonian                  GFN1-xTB          :
         :: total energy             -83.002935050535 Eh    ::
         :: gradient norm              0.000824310369 Eh/a0 ::
         :: HOMO-LUMO gap              2.454351004686 eV    ::
         :: SCC energy               -83.790303211781 Eh    ::
         :: -> Gsolv                  -0.050693059206 Eh    ::
         :: repulsion energy           0.814264593912 Eh    ::

    * Orbital Energies and Occupations

         #    Occupation            Energy/Eh            Energy/eV
      -------------------------------------------------------------
         1        2.0000           -0.8643654             -23.5206
       ...           ...                  ...                  ...
        55        2.0000           -0.5141934             -13.9919
        56        2.0000           -0.5076073             -13.8127
        57        2.0000           -0.5064348             -13.7808
        58        2.0000           -0.5057070             -13.7610
        59        2.0000           -0.4993333             -13.5876
        60        2.0000           -0.4834748             -13.1560
        61        2.0000           -0.4739411             -12.8966
        62        2.0000           -0.4648309             -12.6487
        63        2.0000           -0.4635028             -12.6126
        64        2.0000           -0.4600471             -12.5185
        65        2.0000           -0.4527889             -12.3210
        66        2.0000           -0.4482347             -12.1971
        67        2.0000           -0.4446683             -12.1000 (HOMO)
        68                         -0.3544726              -9.6457 (LUMO)
        69                         -0.3108154              -8.4577
        70                         -0.3017902              -8.2121
        71                         -0.2736187              -7.4455
        72                         -0.2576371              -7.0107
        73                         -0.2293873              -6.2419
        74                         -0.1987624              -5.4086
        75                         -0.1486546              -4.0451
        76                         -0.1440267              -3.9192
        77                         -0.1428849              -3.8881
        78                         -0.1283239              -3.4919
       ...                                ...                  ...
       134                          0.7586744              20.6446
      -------------------------------------------------------------
                  HL-Gap            0.0901957 Eh            2.4544 eV

Wiberg/Mayer (AO) data.
largest (>0.10) Wiberg bond orders for each atom

     #   Z sym  total        # sym  WBO       # sym  WBO       # sym  WBO
 ---------------------------------------------------------------------------
     1   6 C    3.853 --    27 H    0.985    26 H    0.980    28 H    0.980
                             2 O    0.875
     2   8 O    2.213 --     3 C    1.150     1 C    0.875     4 O    0.139
     3   6 C    3.843 --     4 O    1.706     2 O    1.150     5 C    0.864
     4   8 O    1.986 --     3 C    1.706     2 O    0.139
     5   6 C    3.962 --     6 C    0.981     7 N    0.974    24 C    0.956
                             3 C    0.864
     6   6 C    3.984 --    30 H    0.985    29 H    0.984    31 H    0.982
                             5 C    0.981
     7   7 N    3.046 --     8 C    1.748     5 C    0.974
     8   6 C    3.927 --     7 N    1.748    21 N    1.074     9 C    0.980
     9   6 C    3.939 --     8 C    0.980    11 C    0.978    10 C    0.977
                            12 N    0.938
    10   6 C    3.988 --    32 H    0.985    34 H    0.982     9 C    0.977
                            33 H    0.977
    11   6 C    3.987 --    37 H    0.985    35 H    0.984     9 C    0.978
                            36 H    0.977
    12   7 N    3.352 --    13 C    1.260     9 C    0.938    38 H    0.877
                            14 O    0.179
    13   6 C    3.918 --    14 O    1.588    12 N    1.260    15 C    0.988
    14   8 O    1.908 --    13 C    1.588    12 N    0.179
    15   6 C    3.875 --    16 N    1.611    20 O    1.064    13 C    0.988
    16   7 N    3.014 --    15 C    1.611    17 N    1.199
    17   7 N    2.980 --    18 C    1.605    16 N    1.199
    18   6 C    3.871 --    17 N    1.605    20 O    1.083    19 C    1.031
    19   6 C    3.986 --    18 C    1.031    40 H    0.982    39 H    0.966
                            41 H    0.961
    20   8 O    2.330 --    18 C    1.083    15 C    1.064
    21   7 N    3.428 --    22 C    1.180     8 C    1.074    42 H    0.880
                            23 O    0.147
    22   6 C    3.891 --    23 O    1.678    21 N    1.180    24 C    0.907
    23   8 O    1.961 --    22 C    1.678    21 N    0.147
    24   6 C    3.848 --    25 O    1.812     5 C    0.956    22 C    0.907
    25   8 O    2.024 --    24 C    1.812
    26   1 H    1.003 --     1 C    0.980
    27   1 H    1.008 --     1 C    0.985
    28   1 H    1.003 --     1 C    0.980
    29   1 H    1.004 --     6 C    0.984
    30   1 H    1.000 --     6 C    0.985
    31   1 H    1.005 --     6 C    0.982
    32   1 H    1.001 --    10 C    0.985
    33   1 H    1.006 --    10 C    0.977
    34   1 H    0.998 --    10 C    0.982
    35   1 H    0.999 --    11 C    0.984
    36   1 H    1.007 --    11 C    0.977
    37   1 H    1.001 --    11 C    0.985
    38   1 H    0.967 --    12 N    0.877
    39   1 H    0.997 --    19 C    0.966
    40   1 H    0.998 --    19 C    0.982
    41   1 H    0.997 --    19 C    0.961
    42   1 H    0.928 --    21 N    0.880
 ---------------------------------------------------------------------------

           -------------------------------------------------
          | TOTAL ENERGY              -83.002935050535 Eh   |
          | GRADIENT NORM               0.000824310369 Eh/α |
          | HOMO-LUMO GAP               2.454351004686 eV   |
           -------------------------------------------------

 * finished run on 2023/06/21 at 17:32:35.347
