   * xtb version 6.5.1 (579679a) compiled by 'ehlert@majestix' on 2022-07-11
          program call               : /lustre/hpc/kemi/ree/PhD/git/ReactivityQM/dep/xtb-6.5.1/bin/xtb --gfn 1 /lustre/hpc/kemi/ree/PhD/git/ReactivityQM/calculations/R01/reac01/conf09/R01_reac01_conf09_gfn1.xyz --opt --vfukui --chrg 0 --uhf 0 --alpb DMSO

   ID    Z sym.   atoms
    1    6 C      1, 3, 5, 8, 9
    2    8 O      2, 4, 10
    3    7 N      6, 7
    4    1 H      11-16

      * Solvation model:               ALPB
        Solvent                        DMSO
        Solvent mass                       7.8130E+01 g/mol
          :  Hamiltonian                  GFN1-xTB          :
 * total energy  :   -34.2876655 Eh     change       -0.2167155E-11 Eh
 * total energy  :   -34.2930718 Eh     change       -0.5406371E-02 Eh
 * total energy  :   -34.2951199 Eh     change       -0.2048100E-02 Eh
 * total energy  :   -34.2956753 Eh     change       -0.5553927E-03 Eh
 * total energy  :   -34.2960732 Eh     change       -0.3979190E-03 Eh
 * total energy  :   -34.2962909 Eh     change       -0.2176792E-03 Eh
 * total energy  :   -34.2964384 Eh     change       -0.1474924E-03 Eh
 * total energy  :   -34.2965363 Eh     change       -0.9785675E-04 Eh
 * total energy  :   -34.2965852 Eh     change       -0.4894736E-04 Eh
 * total energy  :   -34.2966053 Eh     change       -0.2007120E-04 Eh
 * total energy  :   -34.2966700 Eh     change       -0.1902539E-04 Eh
 * total energy  :   -34.2966877 Eh     change       -0.1770964E-04 Eh
 * total energy  :   -34.2967128 Eh     change       -0.2501325E-04 Eh
 * total energy  :   -34.2967292 Eh     change       -0.1639672E-04 Eh
 * total energy  :   -34.2967403 Eh     change       -0.1115557E-04 Eh
 * total energy  :   -34.2967473 Eh     change       -0.7002771E-05 Eh
 * total energy  :   -34.2967601 Eh     change       -0.1280423E-04 Eh
 * total energy  :   -34.2967653 Eh     change       -0.5154560E-05 Eh
 * total energy  :   -34.2967696 Eh     change       -0.4291183E-05 Eh
   *** GEOMETRY OPTIMIZATION CONVERGED AFTER 23 ITERATIONS ***

 final structure:
================
16
 xtb: 6.5.1 (579679a)
C            3.29735689306444        0.11627103633352        0.55676179866060
O            1.87734341493353        0.24564302876693        0.41816518039460
C            1.37845676348204        0.06410188282018       -0.79574095574447
O            2.03132520815449       -0.19879290075225       -1.77680211177850
C           -0.09520643746078        0.22464217421659       -0.82244106935344
N           -0.86352539731476        0.13607317615645       -1.86682686511728
N           -2.13285932976231        0.35480985290443       -1.43907514807005
C           -2.06551538255189        0.56409665724399       -0.15770842957727
C           -3.18197618718065        0.84245715142497        0.77048164474058
O           -0.80573611667145        0.49546554192383        0.29137850480858
H            3.52947550411151        0.36308899799169        1.59007086654516
H            3.60035266881024       -0.90842696215539        0.33134354470725
H            3.80258294862601        0.80388869123286       -0.12475893284061
H           -2.97219261509373        1.74329052780686        1.34553351183850
H           -4.10320109500977        0.97040927930187        0.20764385324207
H           -3.29668084013688        0.01567286478352        1.47197460754433

          :  Hamiltonian                  GFN1-xTB          :
         :: total energy             -34.296769563483 Eh    ::
         :: gradient norm              0.000480767691 Eh/a0 ::
         :: HOMO-LUMO gap              3.730336099225 eV    ::
         :: SCC energy               -34.589973002357 Eh    ::
         :: -> Gsolv                  -0.021532411672 Eh    ::
         :: repulsion energy           0.299161450954 Eh    ::

    * Orbital Energies and Occupations

         #    Occupation            Energy/Eh            Energy/eV
      -------------------------------------------------------------
         1        2.0000           -0.8706497             -23.6916
       ...           ...                  ...                  ...
        15        2.0000           -0.5965953             -16.2342
        16        2.0000           -0.5707967             -15.5322
        17        2.0000           -0.5647646             -15.3680
        18        2.0000           -0.5496028             -14.9555
        19        2.0000           -0.5484623             -14.9244
        20        2.0000           -0.5371911             -14.6177
        21        2.0000           -0.5203575             -14.1596
        22        2.0000           -0.5120746             -13.9343
        23        2.0000           -0.5037974             -13.7090
        24        2.0000           -0.4942714             -13.4498
        25        2.0000           -0.4837171             -13.1626
        26        2.0000           -0.4620017             -12.5717
        27        2.0000           -0.4604090             -12.5284 (HOMO)
        28                         -0.3233216              -8.7980 (LUMO)
        29                         -0.2623998              -7.1403
        30                         -0.2088818              -5.6840
        31                         -0.1450620              -3.9473
        32                         -0.1402707              -3.8170
        33                         -0.0770993              -2.0980
        34                         -0.0768752              -2.0919
        35                         -0.0764614              -2.0806
        36                         -0.0754527              -2.0532
        37                          0.0031021               0.0844
        38                          0.0390874               1.0636
       ...                                ...                  ...
        52                          0.7373262              20.0637
      -------------------------------------------------------------
                  HL-Gap            0.1370873 Eh            3.7303 eV

Wiberg/Mayer (AO) data.
largest (>0.10) Wiberg bond orders for each atom

     #   Z sym  total        # sym  WBO       # sym  WBO       # sym  WBO
 ---------------------------------------------------------------------------
     1   6 C    3.861 --    11 H    0.985    13 H    0.979    12 H    0.979
                             2 O    0.887
     2   8 O    2.217 --     3 C    1.133     1 C    0.887     4 O    0.142
     3   6 C    3.866 --     4 O    1.660     2 O    1.133     5 C    0.991
     4   8 O    1.931 --     3 C    1.660     2 O    0.142
     5   6 C    3.880 --     6 N    1.608    10 O    1.056     3 C    0.991
     6   7 N    3.005 --     5 C    1.608     7 N    1.216
     7   7 N    2.981 --     8 C    1.591     6 N    1.216
     8   6 C    3.869 --     7 N    1.591    10 O    1.088     9 C    1.033
     9   6 C    3.985 --     8 C    1.033    15 H    0.982    14 H    0.965
                            16 H    0.959
    10   8 O    2.328 --     8 C    1.088     5 C    1.056
    11   1 H    1.009 --     1 C    0.985
    12   1 H    1.004 --     1 C    0.979
    13   1 H    1.005 --     1 C    0.979
    14   1 H    0.996 --     9 C    0.965
    15   1 H    0.998 --     9 C    0.982
    16   1 H    0.996 --     9 C    0.959
 ---------------------------------------------------------------------------

           -------------------------------------------------
          | TOTAL ENERGY              -34.296769563483 Eh   |
          | GRADIENT NORM               0.000480767691 Eh/α |
          | HOMO-LUMO GAP               3.730336099225 eV   |
           -------------------------------------------------

 * finished run on 2023/06/20 at 14:51:56.635
