   * xtb version 6.5.1 (579679a) compiled by 'ehlert@majestix' on 2022-07-11
          program call               : /lustre/hpc/kemi/ree/PhD/git/ReactivityQM/dep/xtb-6.5.1/bin/xtb --gfn 1 /lustre/hpc/kemi/ree/PhD/git/ReactivityQM/calculations/R03/reac02prodE12/conf02/R03_reac02prodE12_conf02_gfn1.xyz --opt --vfukui --chrg -1 --uhf 0 --alpb DMSO

   ID    Z sym.   atoms
    1    6 C      1, 3, 5, 6, 8, 9, 12-16, 18, 20, 23, 24
    2    8 O      2, 4, 7, 10, 19, 25
    3    7 N      11, 17, 21, 22, 26
    4    1 H      27-46

      * Solvation model:               ALPB
        Solvent                        DMSO
        Solvent mass                       7.8130E+01 g/mol
          :  Hamiltonian                  GFN1-xTB          :
 * total energy  :   -87.0128878 Eh     change       -0.6671996E-10 Eh
 * total energy  :   -87.0272400 Eh     change       -0.1435222E-01 Eh
 * total energy  :   -87.0343983 Eh     change       -0.7158260E-02 Eh
 * total energy  :   -87.0363722 Eh     change       -0.1973925E-02 Eh
 * total energy  :   -87.0375388 Eh     change       -0.1166645E-02 Eh
 * total energy  :   -87.0380917 Eh     change       -0.5529174E-03 Eh
 * total energy  :   -87.0385559 Eh     change       -0.4641161E-03 Eh
 * total energy  :   -87.0389381 Eh     change       -0.3822290E-03 Eh
 * total energy  :   -87.0392910 Eh     change       -0.3528891E-03 Eh
 * total energy  :   -87.0396480 Eh     change       -0.3569857E-03 Eh
 * total energy  :   -87.0416148 Eh     change       -0.2212275E-04 Eh
 * total energy  :   -87.0416431 Eh     change       -0.2835896E-04 Eh
 * total energy  :   -87.0416628 Eh     change       -0.1968587E-04 Eh
 * total energy  :   -87.0416671 Eh     change       -0.4231889E-05 Eh
 * total energy  :   -87.0416802 Eh     change       -0.1316752E-04 Eh
 * total energy  :   -87.0416907 Eh     change       -0.1049268E-04 Eh
 * total energy  :   -87.0416975 Eh     change       -0.6753730E-05 Eh
 * total energy  :   -87.0417030 Eh     change       -0.5485160E-05 Eh
 * total energy  :   -87.0417073 Eh     change       -0.4329016E-05 Eh
   *** GEOMETRY OPTIMIZATION CONVERGED AFTER 43 ITERATIONS ***

 final structure:
================
46
 xtb: 6.5.1 (579679a)
C           -2.92990468125061        0.67422908465634       -4.50705796109925
O           -3.05862460184310        0.50524086294642       -3.09569596939139
C           -1.89046516662932        0.31155494798566       -2.41834538439331
O           -0.82596862276767        0.30473265128717       -3.01007605049127
C           -2.05942310922728        0.11519577054635       -0.97913108890243
C           -3.22506123850345        0.13113838235287       -0.28024666717227
O           -4.44484581448643        0.34181062056092       -0.80397617827199
C           -3.25102113296993       -0.01230399555244        1.27547458180452
C           -2.88724694313027        1.40540633144719        1.85041725681821
O           -4.29642478322715       -0.55111195521194        1.78068044093291
N           -1.93635648456141       -0.88579920266193        1.55907966915690
C           -2.03866474259685       -1.65571261061128        2.78381532070060
C           -0.81831092515846       -0.64628445572499        0.85923518114007
C            0.59502933868843       -1.01927429110913        1.35664555407385
C            0.85930996369964       -0.61504419518536        2.81208973322759
C            0.86850467620225       -2.51292320619916        1.11984948106375
N            1.50982403897882       -0.25232075694943        0.50097849897814
C            2.84296559868168       -0.31840387684726        0.52292933084680
O            3.52917042730586       -0.96099409321061        1.30808177239158
C            3.43794475692598        0.53198485754936       -0.55018876602497
N            2.79118344238874        1.23702972961194       -1.42687158150375
N            3.72730260308218        1.84647573957828       -2.21188680924088
C            4.88434003496980        1.47284984321574       -1.76217658142375
C            6.21901928140191        1.86047990726665       -2.27058554695034
O            4.77137765651837        0.64265979189975       -0.71384725248826
N           -0.83358575496355       -0.12544267935266       -0.33196618219762
H           -2.32182613986884        1.55489342429856       -4.73255600255862
H           -3.93397254041706        0.80435186092570       -4.90515933223593
H           -2.46207395108875       -0.20740844604817       -4.95448461129013
H           -4.42527698752640        0.45808624112468       -1.76750588041210
H           -3.69414351194707        2.09140592544612        1.59722905819840
H           -2.81037970182985        1.33367510408508        2.93355496081765
H           -1.95047524545831        1.77870667479841        1.44174911463451
H           -1.79244908342836       -1.05471785612160        3.66480416297369
H           -1.39974837108884       -2.53592283678477        2.75287776306015
H           -3.07860683268693       -1.98677633374753        2.87935724067451
H            0.46738850309208        0.38333836448321        3.00309542675487
H            0.40407390355437       -1.31807574463191        3.50383413481170
H            1.93131781530141       -0.61271705964853        3.00277972527852
H            0.16476952325498       -3.12863402520565        1.67449710292773
H            1.87688824309565       -2.76336903529563        1.44588926790678
H            0.77181922427972       -2.73819213958785        0.05818039827746
H            1.04464436514719        0.24924907261568       -0.26127218593496
H            6.76381975413727        2.41233836630606       -1.50437968470733
H            6.79718300682860        0.97063068551751       -2.51883722775703
H            6.10697520912050        2.48396755517555       -3.15398323301031

          :  Hamiltonian                  GFN1-xTB          :
         :: total energy             -87.041707289110 Eh    ::
         :: gradient norm              0.000979140243 Eh/a0 ::
         :: HOMO-LUMO gap              1.355119974081 eV    ::
         :: SCC energy               -87.838189428732 Eh    ::
         :: -> Gsolv                  -0.118751324991 Eh    ::
         :: repulsion energy           0.826184340934 Eh    ::

    * Orbital Energies and Occupations

         #    Occupation            Energy/Eh            Energy/eV
      -------------------------------------------------------------
         1        2.0000           -0.8543888             -23.2491
       ...           ...                  ...                  ...
        59        2.0000           -0.4676392             -12.7251
        60        2.0000           -0.4633526             -12.6085
        61        2.0000           -0.4567212             -12.4280
        62        2.0000           -0.4498287             -12.2405
        63        2.0000           -0.4492536             -12.2248
        64        2.0000           -0.4433297             -12.0636
        65        2.0000           -0.4381533             -11.9228
        66        2.0000           -0.4294831             -11.6868
        67        2.0000           -0.4138670             -11.2619
        68        2.0000           -0.3943533             -10.7309
        69        2.0000           -0.3719660             -10.1217
        70        2.0000           -0.3584797              -9.7547
        71        2.0000           -0.3455903              -9.4040 (HOMO)
        72                         -0.2957906              -8.0489 (LUMO)
        73                         -0.2666642              -7.2563
        74                         -0.2487981              -6.7701
        75                         -0.2223631              -6.0508
        76                         -0.1844165              -5.0182
        77                         -0.1396587              -3.8003
        78                         -0.1393992              -3.7932
        79                         -0.1272318              -3.4622
        80                         -0.1239899              -3.3739
        81                         -0.1136564              -3.0927
        82                         -0.0992556              -2.7009
       ...                                ...                  ...
       144                          0.7308860              19.8884
      -------------------------------------------------------------
                  HL-Gap            0.0497997 Eh            1.3551 eV

Wiberg/Mayer (AO) data.
largest (>0.10) Wiberg bond orders for each atom

     #   Z sym  total        # sym  WBO       # sym  WBO       # sym  WBO
 ---------------------------------------------------------------------------
     1   6 C    3.884 --    28 H    0.987    27 H    0.981    29 H    0.981
                             2 O    0.908
     2   8 O    2.165 --     3 C    1.030     1 C    0.908     4 O    0.110
     3   6 C    3.837 --     4 O    1.618     5 C    1.078     2 O    1.030
     4   8 O    1.890 --     3 C    1.618     2 O    0.110
     5   6 C    3.944 --     6 C    1.567     3 C    1.078    26 N    1.064
     6   6 C    3.871 --     5 C    1.567     7 O    1.095     8 C    0.899
     7   8 O    2.082 --     6 C    1.095    30 H    0.820
     8   6 C    3.923 --    10 O    1.292     9 C    0.922     6 C    0.899
                            11 N    0.723
     9   6 C    3.989 --    33 H    0.990    31 H    0.985    32 H    0.985
                             8 C    0.922
    10   8 O    1.583 --     8 C    1.292
    11   7 N    3.349 --    13 C    1.286    12 C    0.966     8 C    0.723
                            26 N    0.175
    12   6 C    3.960 --    35 H    0.979    34 H    0.978    36 H    0.968
                            11 N    0.966
    13   6 C    3.951 --    26 N    1.538    11 N    1.286    14 C    0.956
    14   6 C    3.930 --    15 C    0.992    16 C    0.983    13 C    0.956
                            17 N    0.923
    15   6 C    3.993 --    14 C    0.992    37 H    0.986    38 H    0.982
                            39 H    0.979
    16   6 C    3.993 --    42 H    0.986    14 C    0.983    41 H    0.981
                            40 H    0.979
    17   7 N    3.385 --    18 C    1.306    14 C    0.923    43 H    0.859
                            19 O    0.189
    18   6 C    3.924 --    19 O    1.557    17 N    1.306    20 C    0.980
    19   8 O    1.883 --    18 C    1.557    17 N    0.189
    20   6 C    3.869 --    21 N    1.621    25 O    1.059    18 C    0.980
    21   7 N    3.011 --    20 C    1.621    22 N    1.191
    22   7 N    2.980 --    23 C    1.616    21 N    1.191
    23   6 C    3.875 --    22 N    1.616    25 O    1.080    24 C    1.030
    24   6 C    3.988 --    23 C    1.030    46 H    0.983    45 H    0.966
                            44 H    0.964
    25   8 O    2.322 --    23 C    1.080    20 C    1.059
    26   7 N    3.005 --    13 C    1.538     5 C    1.064    11 N    0.175
    27   1 H    1.012 --     1 C    0.981
    28   1 H    1.013 --     1 C    0.987
    29   1 H    1.012 --     1 C    0.981
    30   1 H    0.876 --     7 O    0.820
    31   1 H    1.013 --     9 C    0.985
    32   1 H    1.013 --     9 C    0.985
    33   1 H    1.009 --     9 C    0.990
    34   1 H    1.010 --    12 C    0.978
    35   1 H    1.012 --    12 C    0.979
    36   1 H    1.029 --    12 C    0.968
    37   1 H    1.005 --    15 C    0.986
    38   1 H    1.007 --    15 C    0.982
    39   1 H    1.011 --    15 C    0.979
    40   1 H    1.008 --    16 C    0.979
    41   1 H    1.010 --    16 C    0.981
    42   1 H    1.007 --    16 C    0.986
    43   1 H    0.984 --    17 N    0.859
    44   1 H    0.998 --    24 C    0.964
    45   1 H    0.998 --    24 C    0.966
    46   1 H    0.999 --    24 C    0.983
 ---------------------------------------------------------------------------

           -------------------------------------------------
          | TOTAL ENERGY              -87.041707289110 Eh   |
          | GRADIENT NORM               0.000979140243 Eh/α |
          | HOMO-LUMO GAP               1.355119974081 eV   |
           -------------------------------------------------

 * finished run on 2023/06/20 at 15:32:31.425
