   * xtb version 6.5.1 (579679a) compiled by 'ehlert@majestix' on 2022-07-11
          program call               : /lustre/hpc/kemi/ree/PhD/git/ReactivityQM/dep/xtb-6.5.1/bin/xtb --gfn 1 /lustre/hpc/kemi/ree/PhD/git/ReactivityQM/calculations/R02oxygendeprot/reac01prodN10/conf10/R02oxygendeprot_reac01prodN10_conf10_gfn1.xyz --opt --vfukui --chrg 0 --uhf 0 --alpb DMSO

   ID    Z sym.   atoms
    1    6 C      1, 3, 5, 6, 8, 11-15, 17, 19, 22, 23
    2    8 O      2, 4, 7, 9, 18, 24
    3    7 N      10, 16, 20, 21, 25
    4    1 H      26-42

      * Solvation model:               ALPB
        Solvent                        DMSO
        Solvent mass                       7.8130E+01 g/mol
          :  Hamiltonian                  GFN1-xTB          :
 * total energy  :   -82.9656293 Eh     change       -0.1264766E-10 Eh
 * total energy  :   -82.9765386 Eh     change       -0.1090930E-01 Eh
 * total energy  :   -82.9808433 Eh     change       -0.4304699E-02 Eh
 * total energy  :   -82.9814919 Eh     change       -0.6486622E-03 Eh
 * total energy  :   -82.9819778 Eh     change       -0.4858438E-03 Eh
 * total energy  :   -82.9823808 Eh     change       -0.4029682E-03 Eh
 * total energy  :   -82.9828146 Eh     change       -0.4338050E-03 Eh
 * total energy  :   -82.9832230 Eh     change       -0.4084484E-03 Eh
 * total energy  :   -82.9835217 Eh     change       -0.2986932E-03 Eh
 * total energy  :   -82.9836876 Eh     change       -0.1659086E-03 Eh
 * total energy  :   -82.9843262 Eh     change       -0.8401349E-05 Eh
 * total energy  :   -82.9843350 Eh     change       -0.8727626E-05 Eh
 * total energy  :   -82.9843438 Eh     change       -0.8887423E-05 Eh
 * total energy  :   -82.9843535 Eh     change       -0.9668931E-05 Eh
 * total energy  :   -82.9843633 Eh     change       -0.9818870E-05 Eh
 * total energy  :   -82.9843737 Eh     change       -0.1036733E-04 Eh
 * total energy  :   -82.9843828 Eh     change       -0.9075393E-05 Eh
 * total energy  :   -82.9843884 Eh     change       -0.5643746E-05 Eh
 * total energy  :   -82.9843924 Eh     change       -0.4015354E-05 Eh
   *** GEOMETRY OPTIMIZATION CONVERGED AFTER 41 ITERATIONS ***

 final structure:
================
42
 xtb: 6.5.1 (579679a)
C            3.42244848093996        3.61311113217770       -1.91892431997721
O            2.80359661642170        2.83144561744581       -0.88858192614002
C            2.74351073732334        1.52719513210680       -1.08180265054281
O            3.16032861822301        0.95541395162624       -2.05717151212303
C            2.06363669123677        0.80770814402732        0.06732798716948
C            1.92466951302535        1.43911882766625        1.41275159601454
O            2.67253523063956        2.27514913002655        1.84830750123420
C            0.75488072389542        0.87759813921560        2.22662397541351
O            0.21657321784509        1.49170695781057        3.12338159126687
N            0.35676909634965       -0.34962608523677        1.82603193769570
C            1.02049412892247       -1.17549523662268        0.82933432104292
C            2.12662038061436       -1.99119039364925        1.51496359530780
C           -0.04773917142747       -2.05169750995200        0.10090957332388
C            0.57430673536844       -2.74107085507277       -1.11790910401978
C           -0.68619844141112       -3.08688789625192        1.03152271418732
N           -1.07566679331036       -1.10279415492494       -0.34136608108230
C           -2.16712900998189       -1.45436807627390       -1.05206478644523
O           -2.38749997810281       -2.55876994449631       -1.52052468118748
C           -3.11085614999794       -0.32278541126895       -1.23993353118265
N           -4.21916488517179       -0.32430406656144       -1.91273829264212
N           -4.75102928530183        0.92483914805147       -1.79901938988451
C           -3.93618880245259        1.61273769561318       -1.06162806074581
C           -4.07091889112499        3.02416069171866       -0.64080309957535
O           -2.87563967391049        0.88269635675563       -0.67523148393712
N            1.66135230631456       -0.37652175527712       -0.17384175236648
H            3.41114439812615        4.64409281019911       -1.57247335271914
H            4.44735038783137        3.27215966215533       -2.07891697081120
H            2.85684039315793        3.51499505175413       -2.84765425390762
H           -0.33921566799930       -0.79415124949486        2.40440798104929
H            1.69791210357778       -2.61260271502542        2.29662559307301
H            2.64377903440371       -2.61698524905616        0.79151798425209
H            2.84023192661430       -1.30160242164173        1.96287044588439
H           -0.17610166143571       -3.34656810636243       -1.62258953530121
H            0.96283872210713       -1.99912728292441       -1.81382689067755
H            1.38663049017598       -3.39245203536800       -0.80231384028029
H           -1.11624396264549       -2.61159713399968        1.91034207908948
H           -1.47996815749454       -3.60687764398809        0.49639299922694
H            0.05289654347335       -3.81956912539988        1.34800463956437
H           -1.05876362850081       -0.18593952811333        0.07906696514133
H           -4.17543212170769        3.08058663459829        0.44277281060845
H           -4.94696747064310        3.46340887169311       -1.11206009440779
H           -3.18061772397152        3.58485792230378       -0.92352168059037

          :  Hamiltonian                  GFN1-xTB          :
         :: total energy             -82.984392431188 Eh    ::
         :: gradient norm              0.000502676152 Eh/a0 ::
         :: HOMO-LUMO gap              1.771608177794 eV    ::
         :: SCC energy               -83.765275868486 Eh    ::
         :: -> Gsolv                  -0.058114559892 Eh    ::
         :: repulsion energy           0.808345063896 Eh    ::

    * Orbital Energies and Occupations

         #    Occupation            Energy/Eh            Energy/eV
      -------------------------------------------------------------
         1        2.0000           -0.8671210             -23.5956
       ...           ...                  ...                  ...
        55        2.0000           -0.5069686             -13.7953
        56        2.0000           -0.5061052             -13.7718
        57        2.0000           -0.5058207             -13.7641
        58        2.0000           -0.5029440             -13.6858
        59        2.0000           -0.4962428             -13.5035
        60        2.0000           -0.4820336             -13.1168
        61        2.0000           -0.4809959             -13.0886
        62        2.0000           -0.4696750             -12.7805
        63        2.0000           -0.4636511             -12.6166
        64        2.0000           -0.4618153             -12.5666
        65        2.0000           -0.4531116             -12.3298
        66        2.0000           -0.4496350             -12.2352
        67        2.0000           -0.4380121             -11.9189 (HOMO)
        68                         -0.3729067             -10.1473 (LUMO)
        69                         -0.3205356              -8.7222
        70                         -0.3123252              -8.4988
        71                         -0.2583394              -7.0298
        72                         -0.2503690              -6.8129
        73                         -0.2064977              -5.6191
        74                         -0.2004690              -5.4550
        75                         -0.1441801              -3.9233
        76                         -0.1435410              -3.9060
        77                         -0.1423594              -3.8738
        78                         -0.1373618              -3.7378
       ...                                ...                  ...
       134                          0.7675580              20.8863
      -------------------------------------------------------------
                  HL-Gap            0.0651054 Eh            1.7716 eV

Wiberg/Mayer (AO) data.
largest (>0.10) Wiberg bond orders for each atom

     #   Z sym  total        # sym  WBO       # sym  WBO       # sym  WBO
 ---------------------------------------------------------------------------
     1   6 C    3.859 --    26 H    0.985    27 H    0.979    28 H    0.978
                             2 O    0.884
     2   8 O    2.226 --     3 C    1.148     1 C    0.884     4 O    0.147
     3   6 C    3.854 --     4 O    1.684     2 O    1.148     5 C    0.945
     4   8 O    1.948 --     3 C    1.684     2 O    0.147
     5   6 C    3.953 --    25 N    1.800     6 C    0.989     3 C    0.945
     6   6 C    3.854 --     7 O    1.810     5 C    0.989     8 C    0.904
     7   8 O    2.014 --     6 C    1.810
     8   6 C    3.903 --     9 O    1.641    10 N    1.242     6 C    0.904
     9   8 O    1.933 --     8 C    1.641    10 N    0.183
    10   7 N    3.357 --     8 C    1.242    11 C    0.934    29 H    0.881
                             9 O    0.183
    11   6 C    3.913 --    25 N    0.996    12 C    0.951    13 C    0.936
                            10 N    0.934
    12   6 C    3.982 --    32 H    0.981    31 H    0.979    30 H    0.979
                            11 C    0.951
    13   6 C    3.928 --    14 C    0.997    15 C    0.995    11 C    0.936
                            16 N    0.927
    14   6 C    3.988 --    13 C    0.997    34 H    0.982    35 H    0.982
                            33 H    0.977
    15   6 C    3.988 --    13 C    0.995    38 H    0.982    36 H    0.980
                            37 H    0.976
    16   7 N    3.347 --    17 C    1.256    13 C    0.927    39 H    0.893
                            18 O    0.176
    17   6 C    3.917 --    18 O    1.586    16 N    1.256    19 C    0.992
    18   8 O    1.905 --    17 C    1.586    16 N    0.176
    19   6 C    3.872 --    20 N    1.624    24 O    1.046    17 C    0.992
    20   7 N    3.000 --    19 C    1.624    21 N    1.198
    21   7 N    2.982 --    22 C    1.612    20 N    1.198
    22   6 C    3.868 --    21 N    1.612    24 O    1.071    23 C    1.032
    23   6 C    3.986 --    22 C    1.032    41 H    0.982    42 H    0.965
                            40 H    0.961
    24   8 O    2.314 --    22 C    1.071    19 C    1.046
    25   7 N    3.052 --     5 C    1.800    11 C    0.996
    26   1 H    1.008 --     1 C    0.985
    27   1 H    1.004 --     1 C    0.979
    28   1 H    1.004 --     1 C    0.978
    29   1 H    0.927 --    10 N    0.881
    30   1 H    0.999 --    12 C    0.979
    31   1 H    0.999 --    12 C    0.979
    32   1 H    0.999 --    12 C    0.981
    33   1 H    1.010 --    14 C    0.977
    34   1 H    1.014 --    14 C    0.982
    35   1 H    1.002 --    14 C    0.982
    36   1 H    0.999 --    15 C    0.980
    37   1 H    1.004 --    15 C    0.976
    38   1 H    1.000 --    15 C    0.982
    39   1 H    0.947 --    16 N    0.893
    40   1 H    0.996 --    23 C    0.961
    41   1 H    0.998 --    23 C    0.982
    42   1 H    0.997 --    23 C    0.965
 ---------------------------------------------------------------------------

           -------------------------------------------------
          | TOTAL ENERGY              -82.984392431188 Eh   |
          | GRADIENT NORM               0.000502676152 Eh/α |
          | HOMO-LUMO GAP               1.771608177794 eV   |
           -------------------------------------------------

 * finished run on 2023/06/21 at 17:25:27.796
