   * xtb version 6.5.1 (579679a) compiled by 'ehlert@majestix' on 2022-07-11
          program call               : /lustre/hpc/kemi/ree/PhD/git/ReactivityQM/dep/xtb-6.5.1/bin/xtb --gfn 1 /lustre/hpc/kemi/ree/PhD/git/ReactivityQM/calculations/R01/reac01prodN05/conf08/R01_reac01prodN05_conf08_gfn1.xyz --opt --vfukui --chrg 1 --uhf 0 --alpb DMSO

   ID    Z sym.   atoms
    1    6 C      1, 3, 4, 6, 9, 10
    2    8 O      2, 5, 11
    3    7 N      7, 8
    4    1 H      12-20

      * Solvation model:               ALPB
        Solvent                        DMSO
        Solvent mass                       7.8130E+01 g/mol
          :  Hamiltonian                  GFN1-xTB          :
 * total energy  :   -37.4471682 Eh     change       -0.1209344E-10 Eh
 * total energy  :   -37.4647459 Eh     change       -0.1757771E-01 Eh
 * total energy  :   -37.4798368 Eh     change       -0.1509096E-01 Eh
 * total energy  :   -37.4877829 Eh     change       -0.7946027E-02 Eh
 * total energy  :   -37.5099459 Eh     change       -0.2216306E-01 Eh
 * total energy  :   -37.5175970 Eh     change       -0.7651045E-02 Eh
 * total energy  :   -37.5544634 Eh     change       -0.3686645E-01 Eh
 * total energy  :   -37.5763539 Eh     change       -0.2189053E-01 Eh
 * total energy  :   -37.5865764 Eh     change       -0.1022244E-01 Eh
 * total energy  :   -37.5928127 Eh     change       -0.6236340E-02 Eh
 * total energy  :   -37.6262869 Eh     change       -0.3232406E-04 Eh
 * total energy  :   -37.6263118 Eh     change       -0.2488233E-04 Eh
 * total energy  :   -37.6263272 Eh     change       -0.1545048E-04 Eh
 * total energy  :   -37.6263414 Eh     change       -0.1411757E-04 Eh
 * total energy  :   -37.6263504 Eh     change       -0.9088545E-05 Eh
 * total energy  :   -37.6263110 Eh     change        0.3943721E-04 Eh
 * total energy  :   -37.6263649 Eh     change       -0.5385933E-04 Eh
 * total energy  :   -37.6263737 Eh     change       -0.8847633E-05 Eh
 * total energy  :   -37.6263772 Eh     change       -0.3498922E-05 Eh
   *** GEOMETRY OPTIMIZATION CONVERGED AFTER 68 ITERATIONS ***

 final structure:
================
20
 xtb: 6.5.1 (579679a)
C           -2.52859014342771        2.31234496055901       -0.34936505367220
O           -2.79206813538894        0.89597535201190       -0.23394835211850
C           -1.85949761738213        0.04635567207697       -0.13030586425776
C           -2.19515518186562       -1.37973608355592       -0.01604834907605
O           -0.63581972132317        0.49454690991337       -0.13304045939569
C            0.48329369206742       -0.26402089893060       -0.02725759556552
N            0.59233962412569       -1.54611716901188        0.04946930183361
N            1.93273468121594       -1.78734682413512        0.13885070750263
C            2.53376806086079       -0.63851996170575        0.11036910377571
C            3.98145807192394       -0.36173811671837        0.18761571512340
O            1.64836955738257        0.37947520706356        0.00313557632880
H           -1.89870600463247        2.62868032455951        0.48106132481084
H           -2.02384669417363        2.49941113863263       -1.29665838146530
H           -3.50207386281806        2.79493539968351       -0.31805766590968
H           -1.74458954938169       -1.78306389866798        0.89364468473661
H           -3.27425276908235       -1.51484032305458       -0.00995524115827
H           -1.74120169951198       -1.92085718682647       -0.84970478147342
H            4.29315416536037        0.23413411036046       -0.67009787040973
H            4.53145560563808       -1.29976089184235        0.20729187428094
H            4.19922692041362        0.21014227958807        1.09030932610958

          :  Hamiltonian                  GFN1-xTB          :
         :: total energy             -37.626377214741 Eh    ::
         :: gradient norm              0.000404393925 Eh/a0 ::
         :: HOMO-LUMO gap              2.894952033103 eV    ::
         :: SCC energy               -37.972941565825 Eh    ::
         :: -> Gsolv                  -0.079148594924 Eh    ::
         :: repulsion energy           0.354454085243 Eh    ::

    * Orbital Energies and Occupations

         #    Occupation            Energy/Eh            Energy/eV
      -------------------------------------------------------------
         1        2.0000           -0.9508317             -25.8734
       ...           ...                  ...                  ...
        18        2.0000           -0.6237298             -16.9726
        19        2.0000           -0.5975803             -16.2610
        20        2.0000           -0.5956793             -16.2093
        21        2.0000           -0.5870586             -15.9747
        22        2.0000           -0.5694404             -15.4953
        23        2.0000           -0.5646547             -15.3650
        24        2.0000           -0.5617609             -15.2863
        25        2.0000           -0.5588609             -15.2074
        26        2.0000           -0.5507806             -14.9875
        27        2.0000           -0.5436074             -14.7923
        28        2.0000           -0.5187962             -14.1172
        29        2.0000           -0.4933981             -13.4260
        30        2.0000           -0.4863466             -13.2342 (HOMO)
        31                         -0.3799591             -10.3392 (LUMO)
        32                         -0.2950010              -8.0274
        33                         -0.2830896              -7.7033
        34                         -0.1815006              -4.9389
        35                         -0.1672843              -4.5520
        36                         -0.1544395              -4.2025
        37                         -0.1156709              -3.1476
        38                         -0.1080362              -2.9398
        39                         -0.1075092              -2.9255
        40                         -0.1036997              -2.8218
        41                         -0.0858654              -2.3365
       ...                                ...                  ...
        62                          0.5780563              15.7297
      -------------------------------------------------------------
                  HL-Gap            0.1063875 Eh            2.8950 eV

Wiberg/Mayer (AO) data.
largest (>0.10) Wiberg bond orders for each atom

     #   Z sym  total        # sym  WBO       # sym  WBO       # sym  WBO
 ---------------------------------------------------------------------------
     1   6 C    3.799 --    14 H    0.980    12 H    0.971    13 H    0.967
                             2 O    0.831
     2   8 O    2.352 --     3 C    1.348     1 C    0.831
     3   6 C    3.768 --     2 O    1.348     5 O    1.182     4 C    1.051
     4   6 C    3.960 --     3 C    1.051    16 H    0.972    15 H    0.928
                            17 H    0.925
     5   8 O    2.359 --     3 C    1.182     6 C    0.961
     6   6 C    3.818 --     7 N    1.594    11 O    1.087     5 O    0.961
     7   7 N    3.022 --     6 C    1.594     8 N    1.177
     8   7 N    2.979 --     9 C    1.622     7 N    1.177
     9   6 C    3.842 --     8 N    1.622    11 O    1.041    10 C    1.037
    10   6 C    3.977 --     9 C    1.037    19 H    0.979    18 H    0.959
                            20 H    0.955
    11   8 O    2.330 --     6 C    1.087     9 C    1.041
    12   1 H    0.994 --     1 C    0.971
    13   1 H    0.993 --     1 C    0.967
    14   1 H    0.998 --     1 C    0.980
    15   1 H    0.993 --     4 C    0.928
    16   1 H    0.985 --     4 C    0.972
    17   1 H    0.993 --     4 C    0.925
    18   1 H    0.992 --    10 C    0.959
    19   1 H    0.994 --    10 C    0.979
    20   1 H    0.992 --    10 C    0.955
 ---------------------------------------------------------------------------

           -------------------------------------------------
          | TOTAL ENERGY              -37.626377214741 Eh   |
          | GRADIENT NORM               0.000404393925 Eh/α |
          | HOMO-LUMO GAP               2.894952033103 eV   |
           -------------------------------------------------

 * finished run on 2023/06/20 at 14:56:08.112
