   * xtb version 6.5.1 (579679a) compiled by 'ehlert@majestix' on 2022-07-11
          program call               : /lustre/hpc/kemi/ree/PhD/git/ReactivityQM/dep/xtb-6.5.1/bin/xtb --gfn 1 /lustre/hpc/kemi/ree/PhD/git/ReactivityQM/calculations/R01/reac02prodE03/conf20/R01_reac02prodE03_conf20_gfn1.xyz --opt --vfukui --chrg -1 --uhf 0 --alpb DMSO

   ID    Z sym.   atoms
    1    6 C      1, 3, 5, 6, 8-11, 14, 16
    2    8 O      2, 4, 15, 17
    3    7 N      7, 12, 13
    4    1 H      18-33

      * Solvation model:               ALPB
        Solvent                        DMSO
        Solvent mass                       7.8130E+01 g/mol
          :  Hamiltonian                  GFN1-xTB          :
 * total energy  :   -58.5315004 Eh     change       -0.4895639E-11 Eh
 * total energy  :   -58.5448338 Eh     change       -0.1333342E-01 Eh
 * total energy  :   -58.5484953 Eh     change       -0.3661490E-02 Eh
 * total energy  :   -58.5490608 Eh     change       -0.5654609E-03 Eh
 * total energy  :   -58.5494257 Eh     change       -0.3648891E-03 Eh
 * total energy  :   -58.5495144 Eh     change       -0.8870296E-04 Eh
 * total energy  :   -58.5495760 Eh     change       -0.6158510E-04 Eh
 * total energy  :   -58.5496287 Eh     change       -0.5269639E-04 Eh
 * total energy  :   -58.5497056 Eh     change       -0.7694800E-04 Eh
 * total energy  :   -58.5498455 Eh     change       -0.1398763E-03 Eh
 * total energy  :   -58.5525341 Eh     change       -0.2957351E-04 Eh
 * total energy  :   -58.5525710 Eh     change       -0.3689119E-04 Eh
 * total energy  :   -58.5526111 Eh     change       -0.4006022E-04 Eh
 * total energy  :   -58.5526209 Eh     change       -0.9877281E-05 Eh
 * total energy  :   -58.5526381 Eh     change       -0.1712487E-04 Eh
 * total energy  :   -58.5526504 Eh     change       -0.1234018E-04 Eh
 * total energy  :   -58.5526602 Eh     change       -0.9836712E-05 Eh
 * total energy  :   -58.5526690 Eh     change       -0.8762385E-05 Eh
 * total energy  :   -58.5526740 Eh     change       -0.4968786E-05 Eh
   *** GEOMETRY OPTIMIZATION CONVERGED AFTER 42 ITERATIONS ***

 final structure:
================
33
 xtb: 6.5.1 (579679a)
C            4.12351674003921        0.43447396410464        1.41666035075880
O            3.31930409247199        0.21002306693496        0.26272027589311
C            1.98195885665202        0.31946861978898        0.43066581762385
O            1.49574570473934        0.62026957304014        1.50644759915602
C            1.19836239786871       -0.13098140866375       -0.80762843933916
C            1.91194263575959        0.26292161934678       -2.10673628316632
N           -0.12601452370949        0.48665187427942       -0.78883798803859
C           -1.07188152949015       -0.10605072386806       -0.15998148450319
C           -2.43440604546444        0.57370853972848       -0.07798912060002
C           -2.77869041023092        0.85917853771672        1.39432418363315
C           -2.41729394620370        1.87860285646090       -0.87767579976419
N           -3.43536500428987       -0.31421388691548       -0.67791696656155
N           -0.94977247047841       -1.30699439795803        0.46917264113526
C            0.09922827295442       -2.22594818511057        0.06180986464469
O           -0.06714310122117       -3.45287384750408        0.31668246452748
C            1.12160185886843       -1.62066926952040       -0.60190115919151
O            2.21877153854805       -2.37967732283100       -1.08652286072674
H            5.15643129430206        0.25041574896844        1.12620165643607
H            4.01477804639448        1.46612281838740        1.76287359503596
H            3.83715303793462       -0.24325068151212        2.22650828000854
H            2.03146288942407        1.34508753223634       -2.15493629896343
H            1.31616768053497       -0.06249982629279       -2.95911770948877
H            2.89247135140140       -0.20733403563755       -2.16096962914380
H           -2.03409825306056        1.52313786349046        1.83422233427641
H           -3.75682727179561        1.33292558276248        1.46055809082460
H           -2.80528912483295       -0.06780301492038        1.96519147132398
H           -1.64871695981773        2.54761786339331       -0.49047177908805
H           -2.20181299525322        1.66948354082028       -1.92587996454038
H           -3.38484883522668        2.37390376881171       -0.80818341905812
H           -4.32723807419116        0.16035517613802       -0.68060871954505
H           -3.54751080688849       -1.13938145866631       -0.10170367278578
H           -1.78442745949044       -1.76046916502184        0.80223233889411
H            2.05243841375254       -3.29620132198713       -0.82400366966772

          :  Hamiltonian                  GFN1-xTB          :
         :: total energy             -58.552673970747 Eh    ::
         :: gradient norm              0.000695124927 Eh/a0 ::
         :: HOMO-LUMO gap              2.068137988663 eV    ::
         :: SCC energy               -59.095961892862 Eh    ::
         :: -> Gsolv                  -0.112881152288 Eh    ::
         :: repulsion energy           0.562796936615 Eh    ::

    * Orbital Energies and Occupations

         #    Occupation            Energy/Eh            Energy/eV
      -------------------------------------------------------------
         1        2.0000           -0.8081648             -21.9913
       ...           ...                  ...                  ...
        36        2.0000           -0.4820664             -13.1177
        37        2.0000           -0.4774432             -12.9919
        38        2.0000           -0.4735922             -12.8871
        39        2.0000           -0.4643759             -12.6363
        40        2.0000           -0.4604731             -12.5301
        41        2.0000           -0.4526370             -12.3169
        42        2.0000           -0.4505151             -12.2591
        43        2.0000           -0.4332828             -11.7902
        44        2.0000           -0.3956562             -10.7664
        45        2.0000           -0.3902812             -10.6201
        46        2.0000           -0.3826603             -10.4127
        47        2.0000           -0.3720818             -10.1249
        48        2.0000           -0.3074127              -8.3651 (HOMO)
        49                         -0.2314101              -6.2970 (LUMO)
        50                         -0.2113852              -5.7521
        51                         -0.1284841              -3.4962
        52                         -0.1255537              -3.4165
        53                         -0.1090563              -2.9676
        54                         -0.1074098              -2.9228
        55                         -0.0983098              -2.6751
        56                         -0.0887761              -2.4157
        57                         -0.0739551              -2.0124
        58                         -0.0650847              -1.7710
        59                         -0.0634836              -1.7275
       ...                                ...                  ...
       100                          0.7075750              19.2541
      -------------------------------------------------------------
                  HL-Gap            0.0760027 Eh            2.0681 eV

Wiberg/Mayer (AO) data.
largest (>0.10) Wiberg bond orders for each atom

     #   Z sym  total        # sym  WBO       # sym  WBO       # sym  WBO
 ---------------------------------------------------------------------------
     1   6 C    3.893 --    18 H    0.987    19 H    0.981    20 H    0.981
                             2 O    0.914
     2   8 O    2.169 --     3 C    1.063     1 C    0.914     4 O    0.114
     3   6 C    3.813 --     4 O    1.627     2 O    1.063     5 C    0.922
     4   8 O    1.889 --     3 C    1.627     2 O    0.114
     5   6 C    3.967 --     6 C    0.989     7 N    0.973    16 C    0.953
                             3 C    0.922
     6   6 C    3.997 --     5 C    0.989    21 H    0.988    22 H    0.987
                            23 H    0.985
     7   7 N    2.971 --     8 C    1.678     5 C    0.973    13 N    0.157
     8   6 C    3.945 --     7 N    1.678    13 N    1.184     9 C    0.968
     9   6 C    3.966 --    11 C    1.002    10 C    0.982    12 N    0.976
                             8 C    0.968
    10   6 C    3.996 --    25 H    0.986    24 H    0.985    26 H    0.984
                             9 C    0.982
    11   6 C    3.997 --     9 C    1.002    29 H    0.987    27 H    0.986
                            28 H    0.985
    12   7 N    2.948 --     9 C    0.976    30 H    0.949    31 H    0.947
    13   7 N    3.309 --     8 C    1.184    14 C    0.914    32 H    0.914
                             7 N    0.157
    14   6 C    3.920 --    16 C    1.507    15 O    1.362    13 N    0.914
    15   8 O    1.705 --    14 C    1.362    16 C    0.167
    16   6 C    3.791 --    14 C    1.507     5 C    0.953    17 O    0.942
                            15 O    0.167
    17   8 O    1.914 --    16 C    0.942    33 H    0.859
    18   1 H    1.014 --     1 C    0.987
    19   1 H    1.012 --     1 C    0.981
    20   1 H    1.012 --     1 C    0.981
    21   1 H    1.011 --     6 C    0.988
    22   1 H    1.013 --     6 C    0.987
    23   1 H    1.018 --     6 C    0.985
    24   1 H    1.005 --    10 C    0.985
    25   1 H    1.005 --    10 C    0.986
    26   1 H    1.006 --    10 C    0.984
    27   1 H    1.017 --    11 C    0.986
    28   1 H    1.018 --    11 C    0.985
    29   1 H    1.004 --    11 C    0.987
    30   1 H    0.964 --    12 N    0.949
    31   1 H    0.965 --    12 N    0.947
    32   1 H    0.963 --    13 N    0.914
    33   1 H    0.893 --    17 O    0.859
 ---------------------------------------------------------------------------

           -------------------------------------------------
          | TOTAL ENERGY              -58.552673970747 Eh   |
          | GRADIENT NORM               0.000695124927 Eh/α |
          | HOMO-LUMO GAP               2.068137988663 eV   |
           -------------------------------------------------

 * finished run on 2023/06/20 at 14:58:40.730
