   * xtb version 6.5.1 (579679a) compiled by 'ehlert@majestix' on 2022-07-11
          program call               : /lustre/hpc/kemi/ree/PhD/git/ReactivityQM/dep/xtb-6.5.1/bin/xtb --gfn 1 /lustre/hpc/kemi/ree/PhD/git/ReactivityQM/calculations/R02methylcation/reac01prodE12/conf05/R02methylcation_reac01prodE12_conf05_gfn1.xyz --opt --vfukui --chrg -2 --uhf 0 --alpb DMSO

   ID    Z sym.   atoms
    1    6 C      1, 3, 5, 6, 8, 9, 12-15, 17, 19, 22, 23
    2    8 O      2, 4, 7, 10, 18, 24
    3    7 N      11, 16, 20, 21, 25
    4    1 H      26-42

      * Solvation model:               ALPB
        Solvent                        DMSO
        Solvent mass                       7.8130E+01 g/mol
          :  Hamiltonian                  GFN1-xTB          :
 * total energy  :   -83.6000006 Eh     change       -0.4528005E-09 Eh
 * total energy  :   -83.6144930 Eh     change       -0.1449239E-01 Eh
 * total energy  :   -83.6207700 Eh     change       -0.6277033E-02 Eh
 * total energy  :   -83.6221803 Eh     change       -0.1410252E-02 Eh
 * total energy  :   -83.6235778 Eh     change       -0.1397520E-02 Eh
 * total energy  :   -83.6242703 Eh     change       -0.6924752E-03 Eh
 * total energy  :   -83.6248893 Eh     change       -0.6190242E-03 Eh
 * total energy  :   -83.6252248 Eh     change       -0.3354890E-03 Eh
 * total energy  :   -83.6253901 Eh     change       -0.1653334E-03 Eh
 * total energy  :   -83.6255547 Eh     change       -0.1645263E-03 Eh
 * total energy  :   -83.6452689 Eh     change       -0.5498834E-04 Eh
 * total energy  :   -83.6453062 Eh     change       -0.3737917E-04 Eh
 * total energy  :   -83.6453375 Eh     change       -0.3125430E-04 Eh
 * total energy  :   -83.6453585 Eh     change       -0.2096284E-04 Eh
 * total energy  :   -83.6453751 Eh     change       -0.1666688E-04 Eh
 * total energy  :   -83.6453870 Eh     change       -0.1187056E-04 Eh
 * total energy  :   -83.6454009 Eh     change       -0.1394514E-04 Eh
 * total energy  :   -83.6454066 Eh     change       -0.5665653E-05 Eh
 * total energy  :   -83.6454101 Eh     change       -0.3496020E-05 Eh
   *** GEOMETRY OPTIMIZATION CONVERGED AFTER 69 ITERATIONS ***

 final structure:
================
42
 xtb: 6.5.1 (579679a)
C           -5.67470714034522        2.49808098936086       -1.08344432642437
O           -4.54747327812696        1.94865195847523       -0.42986151491668
C           -3.71554048970064        1.18385370849898       -1.22471221561706
O           -4.00365079258536        1.02640379551603       -2.41632874717247
C           -2.59046458659130        0.62480293664620       -0.54624659639317
C           -2.24970229881812        0.84386141867987        0.80343622060466
O           -2.88109134756748        1.51169332105719        1.64719322426958
C           -0.93079953686827        0.13563133651573        1.25800440782443
C           -0.95493976526219       -0.11324405398682        2.76912105178281
O            0.21166760041505        0.90747784263955        0.91461101491040
N           -0.87932772289506       -1.13799153298734        0.55780375094510
C           -0.88240539670211       -0.90812412961734       -0.83697737536765
C            0.30262100597167       -1.49374632931091       -1.58517107067805
C            0.32727695829146       -3.02695252127220       -1.46932089100457
C            0.23373471753775       -1.07625754835014       -3.06168913740260
N            1.43935849272391       -0.87280056464502       -0.88363908871064
C            2.64721417620192       -1.14393398219168       -1.30957770273086
O            3.03476060921335       -1.87998889842827       -2.24758616075982
C            3.70847349362856       -0.41568385761756       -0.51526092924840
N            4.98456904463910       -0.38367526545730       -0.76822002660018
N            5.56511355793514        0.40748227148173        0.19510605847240
C            4.60582765910891        0.80168460076623        0.96802771298761
C            4.71899090028013        1.67563522910006        2.16070568513851
O            3.41279667526318        0.32382352242929        0.57971024479435
N           -1.70335503243546       -0.10531934030472       -1.38394408299924
H           -6.32643027032167        1.71051269765599       -1.47948995703076
H           -6.22394292044686        3.08359976413714       -0.34558351293739
H           -5.37460796618927        3.14910642455374       -1.91306718158442
H           -1.79766446190801       -0.75235725039632        3.02745936419612
H           -1.05364149598488        0.83767708846179        3.29122325584606
H           -0.02983807778362       -0.59512342666332        3.07815000186835
H           -0.04745555249687       -1.65053182824252        0.83543002043461
H           -0.60146399174573       -3.44244872796219       -1.86217511549482
H            1.16227794076203       -3.43737529853986       -2.03625740194592
H            0.43317073365703       -3.33128316583136       -0.42863038757931
H            1.06663016561740       -1.49862918793358       -3.62201250182150
H           -0.70069482672921       -1.43356839856321       -3.49747314000461
H            0.26131875979771        0.01119268929208       -3.14561209679496
H            0.81472500730688        0.33411518760771        0.35194094854649
H            4.38004763254477        1.14629149918749        3.05085335192581
H            5.75637663295907        1.97135431222896        2.29368407232061
H            4.10224518765581        2.56610371400774        2.03895077435674

          :  Hamiltonian                  GFN1-xTB          :
         :: total energy             -83.645410100274 Eh    ::
         :: gradient norm              0.000748496040 Eh/a0 ::
         :: HOMO-LUMO gap              2.322970736334 eV    ::
         :: SCC energy               -84.370623204021 Eh    ::
         :: -> Gsolv                  -0.266400651672 Eh    ::
         :: repulsion energy           0.751787995778 Eh    ::

    * Orbital Energies and Occupations

         #    Occupation            Energy/Eh            Energy/eV
      -------------------------------------------------------------
         1        2.0000           -0.8196867             -22.3048
       ...           ...                  ...                  ...
        56        2.0000           -0.4387746             -11.9397
        57        2.0000           -0.4323577             -11.7651
        58        2.0000           -0.4210189             -11.4565
        59        2.0000           -0.4162497             -11.3267
        60        2.0000           -0.4123094             -11.2195
        61        2.0000           -0.4104600             -11.1692
        62        2.0000           -0.3967823             -10.7970
        63        2.0000           -0.3838334             -10.4446
        64        2.0000           -0.3752910             -10.2122
        65        2.0000           -0.3650085              -9.9324
        66        2.0000           -0.3519208              -9.5763
        67        2.0000           -0.3504260              -9.5356
        68        2.0000           -0.3287615              -8.9461 (HOMO)
        69                         -0.2433939              -6.6231 (LUMO)
        70                         -0.2196200              -5.9762
        71                         -0.2187595              -5.9527
        72                         -0.2002542              -5.4492
        73                         -0.1275615              -3.4711
        74                         -0.1270411              -3.4570
        75                         -0.1131786              -3.0797
        76                         -0.1029016              -2.8001
        77                         -0.0902401              -2.4556
        78                         -0.0863861              -2.3507
        79                         -0.0801668              -2.1815
       ...                                ...                  ...
       134                          0.7575019              20.6127
      -------------------------------------------------------------
                  HL-Gap            0.0853676 Eh            2.3230 eV

Wiberg/Mayer (AO) data.
largest (>0.10) Wiberg bond orders for each atom

     #   Z sym  total        # sym  WBO       # sym  WBO       # sym  WBO
 ---------------------------------------------------------------------------
     1   6 C    3.913 --    27 H    0.987    26 H    0.981    28 H    0.980
                             2 O    0.942
     2   8 O    2.117 --     3 C    0.991     1 C    0.942
     3   6 C    3.853 --     4 O    1.520     5 C    1.212     2 O    0.991
     4   8 O    1.813 --     3 C    1.520
     5   6 C    3.892 --     6 C    1.317     3 C    1.212    25 N    1.045
                             7 O    0.117
     6   6 C    3.923 --     7 O    1.520     5 C    1.317     8 C    0.908
     7   8 O    1.823 --     6 C    1.520     5 C    0.117
     8   6 C    3.891 --     9 C    0.988    11 N    0.947    10 O    0.947
                             6 C    0.908
     9   6 C    3.997 --    29 H    0.988     8 C    0.988    31 H    0.987
                            30 H    0.984
    10   8 O    1.877 --     8 C    0.947    39 H    0.800
    11   7 N    3.127 --    12 C    1.041     8 C    0.947    32 H    0.933
    12   6 C    3.938 --    25 N    1.741    11 N    1.041    13 C    0.971
    13   6 C    3.970 --    15 C    0.990    14 C    0.982    12 C    0.971
                            16 N    0.966
    14   6 C    3.993 --    33 H    0.988    35 H    0.984    34 H    0.982
                            13 C    0.982
    15   6 C    3.995 --    13 C    0.990    37 H    0.987    38 H    0.986
                            36 H    0.984
    16   7 N    2.997 --    17 C    1.492    13 C    0.966    18 O    0.223
                            39 H    0.117
    17   6 C    3.941 --    16 N    1.492    18 O    1.419    19 C    0.956
    18   8 O    1.771 --    17 C    1.419    16 N    0.223
    19   6 C    3.831 --    20 N    1.623    24 O    1.045    17 C    0.956
    20   7 N    2.967 --    19 C    1.623    21 N    1.168
    21   7 N    2.974 --    22 C    1.636    20 N    1.168
    22   6 C    3.886 --    21 N    1.636    24 O    1.077    23 C    1.025
    23   6 C    3.993 --    22 C    1.025    41 H    0.985    42 H    0.970
                            40 H    0.969
    24   8 O    2.311 --    22 C    1.077    19 C    1.045
    25   7 N    3.016 --    12 C    1.741     5 C    1.045
    26   1 H    1.019 --     1 C    0.981
    27   1 H    1.019 --     1 C    0.987
    28   1 H    1.019 --     1 C    0.980
    29   1 H    1.012 --     9 C    0.988
    30   1 H    1.019 --     9 C    0.984
    31   1 H    1.009 --     9 C    0.987
    32   1 H    0.982 --    11 N    0.933
    33   1 H    1.008 --    14 C    0.988
    34   1 H    1.020 --    14 C    0.982
    35   1 H    1.008 --    14 C    0.984
    36   1 H    1.022 --    15 C    0.984
    37   1 H    1.015 --    15 C    0.987
    38   1 H    1.019 --    15 C    0.986
    39   1 H    0.940 --    10 O    0.800    16 N    0.117
    40   1 H    1.001 --    23 C    0.969
    41   1 H    1.003 --    23 C    0.985
    42   1 H    1.001 --    23 C    0.970
 ---------------------------------------------------------------------------

           -------------------------------------------------
          | TOTAL ENERGY              -83.645410100274 Eh   |
          | GRADIENT NORM               0.000748496040 Eh/α |
          | HOMO-LUMO GAP               2.322970736334 eV   |
           -------------------------------------------------

 * finished run on 2023/06/21 at 17:25:37.729
