   * xtb version 6.5.1 (579679a) compiled by 'ehlert@majestix' on 2022-07-11
          program call               : /lustre/hpc/kemi/ree/PhD/git/ReactivityQM/dep/xtb-6.5.1/bin/xtb --gfn 1 /lustre/hpc/kemi/ree/PhD/git/ReactivityQM/calculations/R02/reac01prodN16/conf08/R02_reac01prodN16_conf08_gfn1.xyz --opt --vfukui --chrg 1 --uhf 0 --alpb DMSO

   ID    Z sym.   atoms
    1    6 C      1, 2, 5, 6, 9-12, 14, 15, 18-20, 22
    2    7 N      3, 4, 8, 13, 24
    3    8 O      7, 16, 17, 21, 23, 25
    4    1 H      26-43

      * Solvation model:               ALPB
        Solvent                        DMSO
        Solvent mass                       7.8130E+01 g/mol
          :  Hamiltonian                  GFN1-xTB          :
 * total energy  :   -83.1096443 Eh     change       -0.3218759E-10 Eh
 * total energy  :   -83.1228573 Eh     change       -0.1321298E-01 Eh
 * total energy  :   -83.1275326 Eh     change       -0.4675293E-02 Eh
 * total energy  :   -83.1286907 Eh     change       -0.1158144E-02 Eh
 * total energy  :   -83.1297464 Eh     change       -0.1055672E-02 Eh
 * total energy  :   -83.1305233 Eh     change       -0.7769195E-03 Eh
 * total energy  :   -83.1311603 Eh     change       -0.6370139E-03 Eh
 * total energy  :   -83.1316068 Eh     change       -0.4465023E-03 Eh
 * total energy  :   -83.1318483 Eh     change       -0.2414561E-03 Eh
 * total energy  :   -83.1319651 Eh     change       -0.1168505E-03 Eh
 * total energy  :   -83.1335711 Eh     change       -0.7276820E-05 Eh
 * total energy  :   -83.1335782 Eh     change       -0.7127936E-05 Eh
 * total energy  :   -83.1335848 Eh     change       -0.6563038E-05 Eh
 * total energy  :   -83.1335910 Eh     change       -0.6152987E-05 Eh
 * total energy  :   -83.1335968 Eh     change       -0.5826473E-05 Eh
 * total energy  :   -83.1336029 Eh     change       -0.6131207E-05 Eh
 * total energy  :   -83.1336098 Eh     change       -0.6894687E-05 Eh
 * total energy  :   -83.1336179 Eh     change       -0.8124780E-05 Eh
 * total energy  :   -83.1336216 Eh     change       -0.3664184E-05 Eh
   *** GEOMETRY OPTIMIZATION CONVERGED AFTER 68 ITERATIONS ***

 final structure:
================
43
 xtb: 6.5.1 (579679a)
C            6.95432064216468       -0.35669284254227        0.33786277948963
C            5.66650329825207       -0.77357808135991        0.93272029289507
N            5.46808651690469       -1.40780996680267        2.04694094811253
N            4.12198761156958       -1.56225691339172        2.17768426640270
C            3.57954825637777       -1.01391921103503        1.13564985767888
C            2.14256781533048       -0.90008035944860        0.80499947568069
O            1.25557652087167       -1.32157219863574        1.52783176764209
N            1.92175957752280       -0.23850771987264       -0.35784973520104
C            0.57704630316127       -0.12921498467005       -0.91380042403914
C            0.05173787808512       -1.51158113463266       -1.31319414551953
C            0.63897149754847        0.80672074273012       -2.12606751696185
C           -0.32563437323125        0.49872152169687        0.12316371938666
N           -1.58025620292197        0.19408982827735        0.15215743069637
C           -2.39080650278813        0.81117100025437        1.07627336101074
C           -3.78471394777918        0.47097930704814        1.11274737330551
O           -4.61650060396547        0.80960384298234        1.89623142689509
O           -4.22155878081675       -0.47532729683636        0.05253449997130
C           -5.53115695058521       -1.05720725831534        0.33517953313166
C           -4.07864454059212       -0.01696198558261       -1.32765364926856
C           -1.89596263366526        1.72429863185735        1.99441125847454
O           -2.60580726926621        2.32688755269372        2.92370112762747
C           -0.46345061019508        2.09624077993619        1.94562079691444
O            0.07843692207279        2.89747117841635        2.67379086797827
N            0.21858418367878        1.42988863712108        0.95183530289738
O            4.51139158405691       -0.49523927306974        0.30695639705492
H            7.77383116582373       -0.63979101232717        0.99440237715559
H            6.95827934285810        0.72266479594418        0.18763253776708
H            7.08264514894418       -0.83002766021495       -0.63541467383159
H            2.69942425010197        0.00385161501031       -0.94874693519811
H           -0.02926092056695       -2.15117520761260       -0.43517896764906
H           -0.93264267342837       -1.40560359953282       -1.76417425517171
H            0.72971686119481       -1.96624118137250       -2.03248914859896
H            1.27929932424744        0.37381534612403       -2.89230096810191
H            1.03628638813485        1.77689975041904       -1.83330118425346
H           -0.36106668018906        0.94054730426064       -2.53414665697600
H           -5.67779839308033       -1.84775510890875       -0.39517373347556
H           -6.29606698924387       -0.28628277911597        0.25085812883363
H           -5.48568409981411       -1.45725251699392        1.34528317162816
H           -4.77843420706414        0.79694292512896       -1.51299774492323
H           -3.04650462803254        0.30105425687066       -1.44845011625264
H           -4.29137541108578       -0.87651987567932       -1.95816911859876
H           -3.55148245130964        2.08291888004614        2.92239909853889
H            1.19880978071457        1.65583227113696        0.84064617685605

          :  Hamiltonian                  GFN1-xTB          :
         :: total energy             -83.133621604930 Eh    ::
         :: gradient norm              0.000172947184 Eh/a0 ::
         :: HOMO-LUMO gap              2.015716623331 eV    ::
         :: SCC energy               -83.936760344175 Eh    ::
         :: -> Gsolv                  -0.128968421280 Eh    ::
         :: repulsion energy           0.830418104581 Eh    ::

    * Orbital Energies and Occupations

         #    Occupation            Energy/Eh            Energy/eV
      -------------------------------------------------------------
         1        2.0000           -0.9334911             -25.4016
       ...           ...                  ...                  ...
        55        2.0000           -0.5303066             -14.4304
        56        2.0000           -0.5224621             -14.2169
        57        2.0000           -0.5197847             -14.1441
        58        2.0000           -0.5122386             -13.9387
        59        2.0000           -0.5100526             -13.8792
        60        2.0000           -0.4906898             -13.3524
        61        2.0000           -0.4858066             -13.2195
        62        2.0000           -0.4831996             -13.1485
        63        2.0000           -0.4759224             -12.9505
        64        2.0000           -0.4686667             -12.7531
        65        2.0000           -0.4624470             -12.5838
        66        2.0000           -0.4575812             -12.4514
        67        2.0000           -0.4554237             -12.3927 (HOMO)
        68                         -0.3813475             -10.3770 (LUMO)
        69                         -0.3196563              -8.6983
        70                         -0.3134071              -8.5282
        71                         -0.2884856              -7.8501
        72                         -0.2607507              -7.0954
        73                         -0.2061469              -5.6095
        74                         -0.1994652              -5.4277
        75                         -0.1809555              -4.9241
        76                         -0.1726517              -4.6981
        77                         -0.1431969              -3.8966
        78                         -0.1420388              -3.8651
       ...                                ...                  ...
       136                          0.7208637              19.6157
      -------------------------------------------------------------
                  HL-Gap            0.0740762 Eh            2.0157 eV

Wiberg/Mayer (AO) data.
largest (>0.10) Wiberg bond orders for each atom

     #   Z sym  total        # sym  WBO       # sym  WBO       # sym  WBO
 ---------------------------------------------------------------------------
     1   6 C    3.985 --     2 C    1.033    26 H    0.982    27 H    0.962
                            28 H    0.961
     2   6 C    3.866 --     3 N    1.605    25 O    1.074     1 C    1.033
     3   7 N    2.982 --     2 C    1.605     4 N    1.203
     4   7 N    3.002 --     5 C    1.617     3 N    1.203
     5   6 C    3.875 --     4 N    1.617    25 O    1.047     6 C    1.001
     6   6 C    3.914 --     7 O    1.592     8 N    1.233     5 C    1.001
     7   8 O    1.895 --     6 C    1.592     8 N    0.171
     8   7 N    3.331 --     6 C    1.233     9 C    0.935    29 H    0.886
                             7 O    0.171
     9   6 C    3.938 --    10 C    0.986    12 C    0.980    11 C    0.976
                             8 N    0.935
    10   6 C    3.986 --     9 C    0.986    32 H    0.984    31 H    0.983
                            30 H    0.980
    11   6 C    3.985 --    34 H    0.984    35 H    0.983    33 H    0.980
                             9 C    0.976
    12   6 C    3.920 --    13 N    1.575    24 N    1.179     9 C    0.980
    13   7 N    3.037 --    12 C    1.575    14 C    1.153
    14   6 C    3.959 --    20 C    1.410    13 N    1.153    15 C    1.131
    15   6 C    3.806 --    16 O    1.751    14 C    1.131    17 O    0.773
    16   8 O    2.070 --    15 C    1.751
    17   8 O    2.502 --    18 C    0.809    19 C    0.801    15 C    0.773
    18   6 C    3.780 --    37 H    0.979    36 H    0.977    38 H    0.975
                            17 O    0.809
    19   6 C    3.775 --    39 H    0.981    41 H    0.976    40 H    0.965
                            17 O    0.801
    20   6 C    3.907 --    14 C    1.410    21 O    1.183    22 C    1.020
    21   8 O    2.157 --    20 C    1.183    42 H    0.779
    22   6 C    3.912 --    23 O    1.638    24 N    1.133    20 C    1.020
    23   8 O    1.939 --    22 C    1.638    24 N    0.141
    24   7 N    3.479 --    12 C    1.179    22 C    1.133    43 H    0.873
                            23 O    0.141
    25   8 O    2.318 --     2 C    1.074     5 C    1.047
    26   1 H    0.998 --     1 C    0.982
    27   1 H    0.996 --     1 C    0.962
    28   1 H    0.996 --     1 C    0.961
    29   1 H    0.927 --     8 N    0.886
    30   1 H    1.007 --    10 C    0.980
    31   1 H    1.007 --    10 C    0.983
    32   1 H    0.999 --    10 C    0.984
    33   1 H    0.994 --    11 C    0.980
    34   1 H    0.997 --    11 C    0.984
    35   1 H    0.999 --    11 C    0.983
    36   1 H    0.994 --    18 C    0.977
    37   1 H    0.995 --    18 C    0.979
    38   1 H    0.996 --    18 C    0.975
    39   1 H    0.990 --    19 C    0.981
    40   1 H    1.018 --    19 C    0.965
    41   1 H    0.993 --    19 C    0.976
    42   1 H    0.829 --    21 O    0.779
    43   1 H    0.923 --    24 N    0.873
 ---------------------------------------------------------------------------

           -------------------------------------------------
          | TOTAL ENERGY              -83.133621604930 Eh   |
          | GRADIENT NORM               0.000172947184 Eh/α |
          | HOMO-LUMO GAP               2.015716623331 eV   |
           -------------------------------------------------

 * finished run on 2023/06/20 at 15:43:11.558
