   * xtb version 6.5.1 (579679a) compiled by 'ehlert@majestix' on 2022-07-11
          program call               : /lustre/hpc/kemi/ree/PhD/git/ReactivityQM/dep/xtb-6.5.1/bin/xtb --gfn 1 /lustre/hpc/kemi/ree/PhD/git/ReactivityQM/calculations/R02oxygendeprot/reac01prodN12/conf07/R02oxygendeprot_reac01prodN12_conf07_gfn1.xyz --opt --vfukui --chrg 0 --uhf 0 --alpb DMSO

   ID    Z sym.   atoms
    1    6 C      1, 3, 5, 7-10, 12, 14, 15, 18, 19, 22, 24
    2    8 O      2, 4, 13, 20, 23, 25
    3    7 N      6, 11, 16, 17, 21
    4    1 H      26-42

      * Solvation model:               ALPB
        Solvent                        DMSO
        Solvent mass                       7.8130E+01 g/mol
          :  Hamiltonian                  GFN1-xTB          :
 * total energy  :   -82.9291393 Eh     change       -0.1800942E-09 Eh
 * total energy  :   -82.9397584 Eh     change       -0.1061910E-01 Eh
 * total energy  :   -82.9436058 Eh     change       -0.3847350E-02 Eh
 * total energy  :   -82.9443320 Eh     change       -0.7261917E-03 Eh
 * total energy  :   -82.9449355 Eh     change       -0.6035819E-03 Eh
 * total energy  :   -82.9452653 Eh     change       -0.3297474E-03 Eh
 * total energy  :   -82.9454713 Eh     change       -0.2059618E-03 Eh
 * total energy  :   -82.9455799 Eh     change       -0.1086553E-03 Eh
 * total energy  :   -82.9456320 Eh     change       -0.5212627E-04 Eh
 * total energy  :   -82.9456722 Eh     change       -0.4019303E-04 Eh
 * total energy  :   -82.9464601 Eh     change       -0.1635896E-04 Eh
 * total energy  :   -82.9464722 Eh     change       -0.1212014E-04 Eh
 * total energy  :   -82.9464801 Eh     change       -0.7817393E-05 Eh
 * total energy  :   -82.9464883 Eh     change       -0.8269900E-05 Eh
 * total energy  :   -82.9464975 Eh     change       -0.9119122E-05 Eh
 * total energy  :   -82.9465069 Eh     change       -0.9457847E-05 Eh
 * total energy  :   -82.9465154 Eh     change       -0.8520164E-05 Eh
 * total energy  :   -82.9465212 Eh     change       -0.5758709E-05 Eh
 * total energy  :   -82.9465245 Eh     change       -0.3285810E-05 Eh
   *** GEOMETRY OPTIMIZATION CONVERGED AFTER 42 ITERATIONS ***

 final structure:
================
42
 xtb: 6.5.1 (579679a)
C           -5.35775016996565        0.06262593120900        2.65340587200126
O           -4.32800575807792        0.10623382949641        1.66668990081486
C           -4.52124418788673       -0.66323329990690        0.57705454892599
O           -5.51200786142448       -1.34976796142793        0.44306954294430
C           -3.40529136359323       -0.55509838721868       -0.38422433461699
N           -2.38255781964378        0.25672065098750       -0.01194102060073
C           -1.36456075565576        0.43884327028838       -0.79013336990178
C           -0.23566330914718        1.34653234336175       -0.36395647445523
C           -0.42513943024855        1.77208466916002        1.09246822799673
C           -0.14823760738187        2.56095987913312       -1.29688222431677
N            1.00268867077093        0.54453158287489       -0.49403295516999
C            2.20542303652513        1.01301077989685       -0.18851477921123
O            2.49739929560534        2.10705078188832        0.22749243219285
C            3.36310488516814       -0.04426028576838       -0.46983535712182
C            4.25251087855251        0.54493629011192       -1.56319302872094
N            2.82595370919164       -1.31876664360385       -0.78286164931368
N            3.15541736734783       -2.15364052049184        0.15032878582063
C            3.90927066370718       -1.50265248581040        1.04599148382268
C            4.49877314395585       -2.08564910030536        2.25980158609970
O            4.08100632668296       -0.24604722263964        0.73222303807919
N           -1.26303594863782       -0.17190594853646       -2.00874742550102
C           -2.21474893750189       -1.03497479343938       -2.52125505909618
O           -2.05287203448096       -1.53874974245925       -3.61756063365157
C           -3.41453431725699       -1.27366804200012       -1.62698753674062
O           -4.30048104850555       -2.04158112068620       -2.00300284890575
H           -5.45565493523768       -0.94951858032870        3.05542453256608
H           -6.31350720579641        0.37085294220818        2.22031856460276
H           -5.06460002724358        0.75194569775000        3.44274405260966
H           -0.43662563518244        0.89569988729805        1.73833599140449
H           -1.37586690238002        2.29396413918903        1.18987922047565
H            0.38007725449909        2.43563926137682        1.39951608221012
H            0.65556125352119        3.22077675423703       -0.97694451579439
H           -1.08920799382019        3.10788699062110       -1.26787907805935
H            0.04526469862119        2.23792423064610       -2.31776422122963
H            0.93318861583824       -0.40328333275999       -0.83752238830392
H            5.10320847077307       -0.11279563250224       -1.72519543937150
H            4.59789217965514        1.52554229432193       -1.24121860994361
H            3.67747167348531        0.63748421889501       -2.48088606321699
H            4.95482515545734       -1.30956320349249        2.86935094693080
H            5.25745984312171       -2.81747310140324        1.97585574516170
H            3.73257139660523       -2.61332829769846        2.82804788200024
H           -0.46747427002053        0.01259527752175       -2.59745842341934

          :  Hamiltonian                  GFN1-xTB          :
         :: total energy             -82.946524475301 Eh    ::
         :: gradient norm              0.000326258572 Eh/a0 ::
         :: HOMO-LUMO gap              0.094666725352 eV    ::
         :: SCC energy               -83.717522809532 Eh    ::
         :: -> Gsolv                  -0.078774243933 Eh    ::
         :: repulsion energy           0.797213677000 Eh    ::

    * Orbital Energies and Occupations

         #    Occupation            Energy/Eh            Energy/eV
      -------------------------------------------------------------
         1        2.0000           -0.8903217             -24.2269
       ...           ...                  ...                  ...
        55        2.0000           -0.5113343             -13.9141
        56        2.0000           -0.5096635             -13.8686
        57        2.0000           -0.5063866             -13.7795
        58        2.0000           -0.4961908             -13.5020
        59        2.0000           -0.4877986             -13.2737
        60        2.0000           -0.4874902             -13.2653
        61        2.0000           -0.4788184             -13.0293
        62        2.0000           -0.4755830             -12.9413
        63        2.0000           -0.4736437             -12.8885
        64        2.0000           -0.4686857             -12.7536
        65        2.0000           -0.4548405             -12.3768
        66        2.0000           -0.4149493             -11.2913
        67        1.7237           -0.4016059             -10.9283 (HOMO)
        68        0.2763           -0.3981270             -10.8336 (LUMO)
        69                         -0.3034248              -8.2566
        70                         -0.2926828              -7.9643
        71                         -0.2807795              -7.6404
        72                         -0.2781539              -7.5690
        73                         -0.2286141              -6.2209
        74                         -0.1596048              -4.3431
        75                         -0.1487215              -4.0469
        76                         -0.1427949              -3.8856
        77                         -0.1364924              -3.7141
        78                         -0.1332092              -3.6248
       ...                                ...                  ...
       134                          0.7542198              20.5234
      -------------------------------------------------------------
                  HL-Gap            0.0034789 Eh            0.0947 eV

Wiberg/Mayer (AO) data.
largest (>0.10) Wiberg bond orders for each atom

     #   Z sym  total        # sym  WBO       # sym  WBO       # sym  WBO
 ---------------------------------------------------------------------------
     1   6 C    3.881 --    28 H    0.986    26 H    0.980    27 H    0.979
                             2 O    0.908
     2   8 O    2.167 --     3 C    1.077     1 C    0.908     4 O    0.126
     3   6 C    3.841 --     4 O    1.638     2 O    1.077     5 C    1.043
     4   8 O    1.883 --     3 C    1.638     2 O    0.126
     5   6 C    3.740 --     6 N    1.257    24 C    1.186     3 C    1.043
     6   7 N    3.000 --     7 C    1.524     5 C    1.257
     7   6 C    3.836 --     6 N    1.524    21 N    1.154     8 C    0.984
     8   6 C    3.918 --     9 C    0.995     7 C    0.984    10 C    0.981
                            11 N    0.891
     9   6 C    3.988 --     8 C    0.995    29 H    0.984    30 H    0.983
                            31 H    0.981
    10   6 C    3.983 --    33 H    0.984    34 H    0.983     8 C    0.981
                            32 H    0.979
    11   7 N    3.359 --    12 C    1.328     8 C    0.891    35 H    0.881
                            13 O    0.178
    12   6 C    3.870 --    13 O    1.644    11 N    1.328    14 C    0.796
    13   8 O    1.989 --    12 C    1.644    11 N    0.178
    14   6 C    3.847 --    16 N    1.074    15 C    0.935    20 O    0.902
                            12 C    0.796
    15   6 C    3.938 --    38 H    0.981    36 H    0.979    37 H    0.978
                            14 C    0.935
    16   7 N    2.754 --    17 N    1.477    14 C    1.074
    17   7 N    2.953 --    16 N    1.477    18 C    1.326
    18   6 C    3.702 --    17 N    1.326    20 O    1.197    19 C    1.052
    19   6 C    3.972 --    18 C    1.052    39 H    0.978    41 H    0.950
                            40 H    0.938
    20   8 O    2.257 --    18 C    1.197    14 C    0.902
    21   7 N    3.421 --     7 C    1.154    22 C    1.117    42 H    0.887
                            23 O    0.119
    22   6 C    3.846 --    23 O    1.639    21 N    1.117    24 C    0.952
    23   8 O    1.872 --    22 C    1.639    21 N    0.119
    24   6 C    3.884 --    25 O    1.597     5 C    1.186    22 C    0.952
    25   8 O    1.797 --    24 C    1.597
    26   1 H    1.008 --     1 C    0.980
    27   1 H    1.009 --     1 C    0.979
    28   1 H    1.013 --     1 C    0.986
    29   1 H    1.006 --     9 C    0.984
    30   1 H    1.008 --     9 C    0.983
    31   1 H    1.006 --     9 C    0.981
    32   1 H    1.003 --    10 C    0.979
    33   1 H    0.999 --    10 C    0.984
    34   1 H    1.000 --    10 C    0.983
    35   1 H    0.948 --    11 N    0.881
    36   1 H    0.994 --    15 C    0.979
    37   1 H    0.998 --    15 C    0.978
    38   1 H    0.995 --    15 C    0.981
    39   1 H    0.992 --    19 C    0.978
    40   1 H    0.979 --    19 C    0.938
    41   1 H    0.984 --    19 C    0.950
    42   1 H    0.932 --    21 N    0.887
 ---------------------------------------------------------------------------

           -------------------------------------------------
          | TOTAL ENERGY              -82.946524475301 Eh   |
          | GRADIENT NORM               0.000326258572 Eh/α |
          | HOMO-LUMO GAP               0.094666725352 eV   |
           -------------------------------------------------

 * finished run on 2023/06/21 at 17:27:20.578
