   * xtb version 6.5.1 (579679a) compiled by 'ehlert@majestix' on 2022-07-11
          program call               : /lustre/hpc/kemi/ree/PhD/git/ReactivityQM/dep/xtb-6.5.1/bin/xtb --gfn 1 /lustre/hpc/kemi/ree/PhD/git/ReactivityQM/calculations/R01/reac01prodN07/conf01/R01_reac01prodN07_conf01_gfn1.xyz --opt --vfukui --chrg 1 --uhf 0 --alpb DMSO

   ID    Z sym.   atoms
    1    6 C      1, 3, 5, 8-10
    2    8 O      2, 4, 11
    3    7 N      6, 7
    4    1 H      12-20

      * Solvation model:               ALPB
        Solvent                        DMSO
        Solvent mass                       7.8130E+01 g/mol
          :  Hamiltonian                  GFN1-xTB          :
 * total energy  :   -37.5580325 Eh     change       -0.3481659E-11 Eh
 * total energy  :   -37.5689803 Eh     change       -0.1094782E-01 Eh
 * total energy  :   -37.5735141 Eh     change       -0.4533805E-02 Eh
 * total energy  :   -37.5742915 Eh     change       -0.7773312E-03 Eh
 * total energy  :   -37.5748154 Eh     change       -0.5238834E-03 Eh
 * total energy  :   -37.5749356 Eh     change       -0.1202812E-03 Eh
 * total energy  :   -37.5750472 Eh     change       -0.1115553E-03 Eh
 * total energy  :   -37.5751157 Eh     change       -0.6851237E-04 Eh
 * total energy  :   -37.5751517 Eh     change       -0.3599751E-04 Eh
 * total energy  :   -37.5751717 Eh     change       -0.1998680E-04 Eh
 * total energy  :   -37.5751781 Eh     change       -0.6445905E-05 Eh
 * total energy  :   -37.5751821 Eh     change       -0.3955711E-05 Eh
   *** GEOMETRY OPTIMIZATION CONVERGED AFTER 12 ITERATIONS ***

 final structure:
================
20
 xtb: 6.5.1 (579679a)
C            3.81200084730558       -0.46802151334755       -0.60830005960568
O            2.39091312431985       -0.27569640490176       -0.45037233230190
C            1.87828956803258       -0.50218028895186        0.72191607001598
O            2.42883632129002       -0.85835163478126        1.72078634203463
C            0.36507903559850       -0.24609931349227        0.70268351848166
N           -0.44818282317277       -0.38125739935132        1.80336434369409
N           -1.62038286922550       -0.10025486226145        1.43755291837243
C           -1.64307568580969        0.23741593370636        0.06179434119759
C           -2.49837426217674       -0.76143847498121       -0.73491442090597
C           -2.10627839120259        1.68806845098334       -0.14681630001452
O           -0.27888085918579        0.10972894932985       -0.32402271943560
H            4.34302446700426        0.22042799305268        0.05043144956661
H            4.06723182368633       -1.49765749347309       -0.35394139547733
H            4.02676840604185       -0.25583175138136       -1.65227603326233
H           -2.11211863915852       -1.76595278803544       -0.57657992099808
H           -3.52542114112072       -0.69441787445446       -0.38461075768193
H           -2.44193957479267       -0.50185347997514       -1.78926019731081
H           -3.12896534245495        1.77965627579148        0.21082345603227
H           -2.05640984622131        1.91892465116790       -1.20820009101722
H           -1.45211515875777        2.35479002535634        0.41085478861643

          :  Hamiltonian                  GFN1-xTB          :
         :: total energy             -37.575182086846 Eh    ::
         :: gradient norm              0.000460156217 Eh/a0 ::
         :: HOMO-LUMO gap              1.781150512404 eV    ::
         :: SCC energy               -37.911081792202 Eh    ::
         :: -> Gsolv                  -0.082772782597 Eh    ::
         :: repulsion energy           0.344324309620 Eh    ::

    * Orbital Energies and Occupations

         #    Occupation            Energy/Eh            Energy/eV
      -------------------------------------------------------------
         1        2.0000           -0.9573771             -26.0516
       ...           ...                  ...                  ...
        18        2.0000           -0.6147299             -16.7277
        19        2.0000           -0.6117400             -16.6463
        20        2.0000           -0.6108205             -16.6213
        21        2.0000           -0.5875144             -15.9871
        22        2.0000           -0.5857599             -15.9393
        23        2.0000           -0.5790307             -15.7562
        24        2.0000           -0.5749677             -15.6457
        25        2.0000           -0.5686414             -15.4735
        26        2.0000           -0.5557973             -15.1240
        27        2.0000           -0.5518191             -15.0158
        28        2.0000           -0.5425823             -14.7644
        29        2.0000           -0.5356093             -14.5747
        30        2.0000           -0.5253164             -14.2946 (HOMO)
        31                         -0.4598603             -12.5134 (LUMO)
        32                         -0.3770716             -10.2606
        33                         -0.2803451              -7.6286
        34                         -0.1702158              -4.6318
        35                         -0.1644275              -4.4743
        36                         -0.1598234              -4.3490
        37                         -0.1204073              -3.2765
        38                         -0.1124934              -3.0611
        39                         -0.0978265              -2.6620
        40                         -0.0950977              -2.5877
        41                         -0.0923316              -2.5125
       ...                                ...                  ...
        62                          0.7353971              20.0112
      -------------------------------------------------------------
                  HL-Gap            0.0654561 Eh            1.7812 eV

Wiberg/Mayer (AO) data.
largest (>0.10) Wiberg bond orders for each atom

     #   Z sym  total        # sym  WBO       # sym  WBO       # sym  WBO
 ---------------------------------------------------------------------------
     1   6 C    3.819 --    14 H    0.982    13 H    0.972    12 H    0.971
                             2 O    0.853
     2   8 O    2.272 --     3 C    1.203     1 C    0.853     4 O    0.174
     3   6 C    3.882 --     4 O    1.710     2 O    1.203     5 C    0.898
     4   8 O    1.997 --     3 C    1.710     2 O    0.174
     5   6 C    3.790 --    11 O    1.391     6 N    1.202     3 C    0.898
     6   7 N    3.022 --     7 N    1.675     5 C    1.202
     7   7 N    2.995 --     6 N    1.675     8 C    1.075
     8   6 C    3.813 --     7 N    1.075    10 C    0.885     9 C    0.883
                            11 O    0.867
     9   6 C    3.941 --    15 H    0.978    16 H    0.975    17 H    0.974
                             8 C    0.883
    10   6 C    3.941 --    20 H    0.978    18 H    0.975    19 H    0.974
                             8 C    0.885
    11   8 O    2.439 --     5 C    1.391     8 C    0.867
    12   1 H    0.996 --     1 C    0.971
    13   1 H    0.996 --     1 C    0.972
    14   1 H    1.002 --     1 C    0.982
    15   1 H    0.989 --     9 C    0.978
    16   1 H    0.989 --     9 C    0.975
    17   1 H    0.989 --     9 C    0.974
    18   1 H    0.989 --    10 C    0.975
    19   1 H    0.989 --    10 C    0.974
    20   1 H    0.989 --    10 C    0.978
 ---------------------------------------------------------------------------

           -------------------------------------------------
          | TOTAL ENERGY              -37.575182086846 Eh   |
          | GRADIENT NORM               0.000460156217 Eh/α |
          | HOMO-LUMO GAP               1.781150512404 eV   |
           -------------------------------------------------

 * finished run on 2023/06/20 at 14:56:45.194
