   * xtb version 6.5.1 (579679a) compiled by 'ehlert@majestix' on 2022-07-11
          program call               : /lustre/hpc/kemi/ree/PhD/git/ReactivityQM/dep/xtb-6.5.1/bin/xtb --gfn 1 /lustre/hpc/kemi/ree/PhD/git/ReactivityQM/calculations/R02/reac01prodN09/conf20/R02_reac01prodN09_conf20_gfn1.xyz --opt --vfukui --chrg 1 --uhf 0 --alpb DMSO

   ID    Z sym.   atoms
    1    6 C      1, 3, 5, 6, 8-11, 13, 15, 18, 19, 22, 24
    2    8 O      2, 4, 14, 20, 23, 25
    3    7 N      7, 12, 16, 17, 21
    4    1 H      26-43

      * Solvation model:               ALPB
        Solvent                        DMSO
        Solvent mass                       7.8130E+01 g/mol
          :  Hamiltonian                  GFN1-xTB          :
 * total energy  :   -83.0979395 Eh     change       -0.2896030E-09 Eh
 * total energy  :   -83.1177671 Eh     change       -0.1982753E-01 Eh
 * total energy  :   -83.1264506 Eh     change       -0.8683525E-02 Eh
 * total energy  :   -83.1282917 Eh     change       -0.1841156E-02 Eh
 * total energy  :   -83.1295505 Eh     change       -0.1258726E-02 Eh
 * total energy  :   -83.1300716 Eh     change       -0.5211621E-03 Eh
 * total energy  :   -83.1305868 Eh     change       -0.5151530E-03 Eh
 * total energy  :   -83.1309831 Eh     change       -0.3962766E-03 Eh
 * total energy  :   -83.1312673 Eh     change       -0.2842194E-03 Eh
 * total energy  :   -83.1315545 Eh     change       -0.2872459E-03 Eh
 * total energy  :   -83.1330789 Eh     change       -0.7691012E-05 Eh
 * total energy  :   -83.1330921 Eh     change       -0.1317625E-04 Eh
 * total energy  :   -83.1331035 Eh     change       -0.1145662E-04 Eh
 * total energy  :   -83.1331178 Eh     change       -0.1422483E-04 Eh
 * total energy  :   -83.1331285 Eh     change       -0.1069536E-04 Eh
 * total energy  :   -83.1331367 Eh     change       -0.8232102E-05 Eh
 * total energy  :   -83.1331294 Eh     change        0.7252464E-05 Eh
 * total energy  :   -83.1331416 Eh     change       -0.1215599E-04 Eh
 * total energy  :   -83.1331448 Eh     change       -0.3171321E-05 Eh
   *** GEOMETRY OPTIMIZATION CONVERGED AFTER 40 ITERATIONS ***

 final structure:
================
43
 xtb: 6.5.1 (579679a)
C           -3.58015812500238        2.58123061608999       -2.00535093628654
O           -3.00717615405884        2.15462762578996       -0.74242839241278
C           -2.40858509155366        1.01835703353948       -0.69627921799900
O           -2.24304412717439        0.19515633552921       -1.53374984602257
C           -1.79667356571122        0.79031490260470        0.82017339061751
C           -1.46176839234473        2.14681451147379        1.43409648094863
N           -0.63552343600968        0.00515699816012        0.59462127054514
C           -0.69056045513957       -1.27036757941402        0.55578746158038
C            0.54124904464696       -2.08001514194529        0.21718407303582
C            0.89475897589394       -3.01024532394947        1.38710585028328
C            0.28340631999553       -2.86959026447502       -1.07659991892871
N            1.62112004440136       -1.12606285517129       -0.00109520711575
C            2.87630252276267       -1.48781978700301       -0.34199226804735
O            3.27043788306952       -2.63514979754363       -0.46389330923259
C            3.76169743679145       -0.31936611607638       -0.56629621401407
N            5.01133374116537       -0.32932345953431       -0.90932911491269
N            5.39957303194220        0.97114214119762       -1.02119932366485
C            4.36285225767819        1.69672988027012       -0.74068088324242
C            4.26951629245531        3.17228072070569       -0.72482005895131
O            3.29118094860903        0.94206241137380       -0.44261139652078
N           -1.84841054922057       -1.98462601560240        0.82133630567066
C           -2.99317630054929       -1.41795988857051        1.27834688857514
O           -3.99562013992924       -2.00905270194173        1.60552135047168
C           -2.92156372409612        0.07222789436528        1.37811770030472
O           -3.92870082488855        0.67728674646500        1.87433317553056
H           -4.49640751372736        2.01810021481217       -2.18163853206950
H           -2.86378241766652        2.40374263263735       -2.80721911515567
H           -3.78955868659317        3.64156728323198       -1.88932052054031
H           -0.80652192295954        2.69857728397376        0.76499775555522
H           -2.37244997653910        2.71380480513579        1.61062224279007
H           -0.94845996167900        1.97575117410140        2.37848904498818
H            1.08619965240552       -2.42183354164823        2.28254521012081
H            0.07416346339919       -3.69767481627500        1.57923852412966
H            1.78463053421096       -3.58567710372869        1.13647288187991
H            0.02454928187764       -2.18336269235332       -1.88130099392693
H            1.18167457484052       -3.42263486323685       -1.34681064576834
H           -0.53255385841979       -3.57330418654357       -0.93010475694818
H            1.38066760351606       -0.14750266700819        0.06146748049812
H            5.20967463085183        3.60351322503491       -1.06122506355756
H            3.45983245097052        3.49889460427695       -1.37561182987275
H            4.04884210168747        3.51981251196701        0.28441746922477
H           -1.85455348550625       -2.99453179613737        0.74841799226256
H           -4.65841408439810        0.06895404542064        2.13455999618308

          :  Hamiltonian                  GFN1-xTB          :
         :: total energy             -83.133144776203 Eh    ::
         :: gradient norm              0.000489976063 Eh/a0 ::
         :: HOMO-LUMO gap              0.796457318213 eV    ::
         :: SCC energy               -83.935967025004 Eh    ::
         :: -> Gsolv                  -0.121662404120 Eh    ::
         :: repulsion energy           0.830071622103 Eh    ::

    * Orbital Energies and Occupations

         #    Occupation            Energy/Eh            Energy/eV
      -------------------------------------------------------------
         1        2.0000           -0.9182920             -24.9880
       ...           ...                  ...                  ...
        55        2.0000           -0.5323658             -14.4864
        56        2.0000           -0.5286305             -14.3848
        57        2.0000           -0.5248102             -14.2808
        58        2.0000           -0.5172095             -14.0740
        59        2.0000           -0.5106291             -13.8949
        60        2.0000           -0.5096333             -13.8678
        61        2.0000           -0.4997413             -13.5987
        62        2.0000           -0.4942949             -13.4504
        63        2.0000           -0.4846173             -13.1871
        64        2.0000           -0.4716029             -12.8330
        65        2.0000           -0.4667746             -12.7016
        66        2.0000           -0.4567983             -12.4301
        67        2.0000           -0.4550817             -12.3834 (HOMO)
        68        0.0000           -0.4258124             -11.5869 (LUMO)
        69                         -0.3370268              -9.1710
        70                         -0.3163804              -8.6091
        71                         -0.3093974              -8.4191
        72                         -0.2693058              -7.3282
        73                         -0.2608701              -7.0986
        74                         -0.2037969              -5.5456
        75                         -0.1659342              -4.5153
        76                         -0.1600036              -4.3539
        77                         -0.1550778              -4.2199
        78                         -0.1507698              -4.1027
       ...                                ...                  ...
       136                          0.7540161              20.5178
      -------------------------------------------------------------
                  HL-Gap            0.0292693 Eh            0.7965 eV

Wiberg/Mayer (AO) data.
largest (>0.10) Wiberg bond orders for each atom

     #   Z sym  total        # sym  WBO       # sym  WBO       # sym  WBO
 ---------------------------------------------------------------------------
     1   6 C    3.809 --    28 H    0.980    27 H    0.979    26 H    0.976
                             2 O    0.829
     2   8 O    2.273 --     3 C    1.234     1 C    0.829     4 O    0.151
     3   6 C    3.859 --     4 O    1.754     2 O    1.234     5 C    0.672
     4   8 O    2.082 --     3 C    1.754     2 O    0.151
     5   6 C    3.953 --    24 C    1.114     7 N    1.025     6 C    0.962
                             3 C    0.672
     6   6 C    3.967 --    29 H    0.981    30 H    0.981    31 H    0.973
                             5 C    0.962
     7   7 N    3.048 --     8 C    1.688     5 C    1.025
     8   6 C    3.910 --     7 N    1.688    21 N    1.096     9 C    0.986
     9   6 C    3.938 --     8 C    0.986    10 C    0.973    11 C    0.969
                            12 N    0.943
    10   6 C    3.983 --    32 H    0.984    33 H    0.982    34 H    0.975
                             9 C    0.973
    11   6 C    3.983 --    35 H    0.984    37 H    0.983    36 H    0.975
                             9 C    0.969
    12   7 N    3.344 --    13 C    1.250     9 C    0.943    38 H    0.877
                            14 O    0.175
    13   6 C    3.916 --    14 O    1.588    12 N    1.250    15 C    0.995
    14   8 O    1.907 --    13 C    1.588    12 N    0.175
    15   6 C    3.873 --    16 N    1.623    20 O    1.045    13 C    0.995
    16   7 N    3.002 --    15 C    1.623    17 N    1.199
    17   7 N    2.983 --    18 C    1.611    16 N    1.199
    18   6 C    3.868 --    17 N    1.611    20 O    1.071    19 C    1.032
    19   6 C    3.986 --    18 C    1.032    39 H    0.982    40 H    0.965
                            41 H    0.961
    20   8 O    2.313 --    18 C    1.071    15 C    1.045
    21   7 N    3.479 --    22 C    1.198     8 C    1.096    42 H    0.865
                            23 O    0.166
    22   6 C    3.921 --    23 O    1.644    21 N    1.198    24 C    0.970
    23   8 O    1.980 --    22 C    1.644    21 N    0.166
    24   6 C    3.808 --    25 O    1.360     5 C    1.114    22 C    0.970
    25   8 O    2.282 --    24 C    1.360    43 H    0.742
    26   1 H    0.997 --     1 C    0.976
    27   1 H    0.996 --     1 C    0.979
    28   1 H    1.001 --     1 C    0.980
    29   1 H    0.996 --     6 C    0.981
    30   1 H    0.999 --     6 C    0.981
    31   1 H    0.994 --     6 C    0.973
    32   1 H    0.999 --    10 C    0.984
    33   1 H    0.997 --    10 C    0.982
    34   1 H    1.006 --    10 C    0.975
    35   1 H    1.000 --    11 C    0.984
    36   1 H    1.004 --    11 C    0.975
    37   1 H    0.997 --    11 C    0.983
    38   1 H    0.949 --    12 N    0.877
    39   1 H    0.998 --    19 C    0.982
    40   1 H    0.997 --    19 C    0.965
    41   1 H    0.997 --    19 C    0.961
    42   1 H    0.911 --    21 N    0.865
    43   1 H    0.785 --    25 O    0.742
 ---------------------------------------------------------------------------

           -------------------------------------------------
          | TOTAL ENERGY              -83.133144776203 Eh   |
          | GRADIENT NORM               0.000489976063 Eh/α |
          | HOMO-LUMO GAP               0.796457318213 eV   |
           -------------------------------------------------

 * finished run on 2023/06/20 at 15:29:31.678
