   * xtb version 6.5.1 (579679a) compiled by 'ehlert@majestix' on 2022-07-11
          program call               : /lustre/hpc/kemi/ree/PhD/git/ReactivityQM/dep/xtb-6.5.1/bin/xtb --gfn 1 /lustre/hpc/kemi/ree/PhD/git/ReactivityQM/calculations/R02oxygendeprot/reac01prodE02/conf03/R02oxygendeprot_reac01prodE02_conf03_gfn1.xyz --opt --vfukui --chrg -2 --uhf 0 --alpb DMSO

   ID    Z sym.   atoms
    1    6 C      1, 3, 4, 6, 8-11, 13, 15, 18, 19, 22, 24
    2    8 O      2, 5, 14, 20, 23, 25
    3    7 N      7, 12, 16, 17, 21
    4    1 H      26-42

      * Solvation model:               ALPB
        Solvent                        DMSO
        Solvent mass                       7.8130E+01 g/mol
          :  Hamiltonian                  GFN1-xTB          :
 * total energy  :   -83.5950901 Eh     change       -0.1729461E-10 Eh
 * total energy  :   -83.6086984 Eh     change       -0.1360824E-01 Eh
 * total energy  :   -83.6146023 Eh     change       -0.5903952E-02 Eh
 * total energy  :   -83.6160103 Eh     change       -0.1407976E-02 Eh
 * total energy  :   -83.6171665 Eh     change       -0.1156225E-02 Eh
 * total energy  :   -83.6178519 Eh     change       -0.6853147E-03 Eh
 * total energy  :   -83.6183671 Eh     change       -0.5152022E-03 Eh
 * total energy  :   -83.6187259 Eh     change       -0.3588058E-03 Eh
 * total energy  :   -83.6189648 Eh     change       -0.2389661E-03 Eh
 * total energy  :   -83.6191374 Eh     change       -0.1725680E-03 Eh
 * total energy  :   -83.6219223 Eh     change       -0.1268173E-04 Eh
 * total energy  :   -83.6219330 Eh     change       -0.1068962E-04 Eh
 * total energy  :   -83.6219437 Eh     change       -0.1068480E-04 Eh
 * total energy  :   -83.6219515 Eh     change       -0.7830672E-05 Eh
 * total energy  :   -83.6219585 Eh     change       -0.6962299E-05 Eh
 * total energy  :   -83.6219645 Eh     change       -0.6035250E-05 Eh
 * total energy  :   -83.6219705 Eh     change       -0.5985760E-05 Eh
 * total energy  :   -83.6219763 Eh     change       -0.5866147E-05 Eh
 * total energy  :   -83.6219806 Eh     change       -0.4296522E-05 Eh
   *** GEOMETRY OPTIMIZATION CONVERGED AFTER 107 ITERATIONS ***

 final structure:
================
42
 xtb: 6.5.1 (579679a)
C           -5.02440234951057        1.78847943851487        0.96630139320816
O           -4.43892838073749        0.61200409564852        0.50142245876067
C           -3.13151216468176        0.18342703465698        1.27967721058533
C           -3.67286310558140       -0.78868637313840        2.38963653973211
O           -2.48625521913160        1.19517675250746        1.75723516043170
C           -2.37023885591541       -0.62931388719101        0.16891303107837
N           -1.26671958280605        0.02151671987633       -0.29500404031198
C           -0.52084577932831       -0.48085435234610       -1.22274514894058
C            0.70343595512151        0.29067828290810       -1.68720228890727
C            0.39212096258747        1.78788508422973       -1.61700909317551
C            1.15982707793664       -0.09028797064587       -3.09833015054374
N            1.82444216289773        0.04888644429600       -0.74832655897757
C            2.29652286134850       -1.17427507878369       -0.46824678539824
O            1.83707156217591       -2.22981664048226       -0.88024975325092
C            3.46094988432348       -1.15100619783181        0.46210259379601
N            4.01724542395058       -2.16641112268958        1.04815682782418
N            5.03311012601014       -1.67126415425285        1.81444837989847
C            5.03431494265674       -0.38684183573448        1.64618102167725
C            5.95053928317501        0.60609860634896        2.24803271118273
O            4.06179217260245        0.00932899638693        0.80736177223010
N           -0.82166978772751       -1.69957209649649       -1.78481071907349
C           -1.90299028219634       -2.45818388571758       -1.40991622650298
O           -2.09527368662250       -3.54557429423665       -1.98644628196363
C           -2.76157065798227       -1.88976516996724       -0.32538869842082
O           -3.75561369849621       -2.57550088812305        0.06748798996492
H           -5.74194770514783        1.61155068444369        1.78993554117726
H           -5.57596048276342        2.26662606664520        0.14447484055616
H           -4.27329484250752        2.51303457304708        1.32984955685680
H           -4.45374955040632       -1.44957888192238        2.01832291069277
H           -4.07414116092343       -0.18044796304192        3.20078887031933
H           -2.84449089136789       -1.38244125310966        2.77752544744988
H            1.28343484438056        2.37406662687642       -1.83001020453810
H            0.01920039943351        2.04059026945009       -0.62294502002378
H           -0.37306076976346        2.03532675695903       -2.35146341565442
H            1.97028590674006        0.56618588792462       -3.40902739498842
H            0.33265405246814        0.01958201653950       -3.79797472603876
H            1.52134583665442       -1.11674001143334       -3.12986580766855
H            2.36162813434874        0.84620828813435       -0.45624048555202
H            6.48862908091165        1.13700626148352        1.46341829741086
H            6.66166784036513        0.10226627361476        2.89751335166288
H            5.38525791695049        1.33940383923255        2.82278495976823
H           -0.20995047345917       -2.09128994256779       -2.48036806631840

          :  Hamiltonian                  GFN1-xTB          :
         :: total energy             -83.621980645469 Eh    ::
         :: gradient norm              0.000483894374 Eh/a0 ::
         :: HOMO-LUMO gap              0.365763289124 eV    ::
         :: SCC energy               -84.361414775519 Eh    ::
         :: -> Gsolv                  -0.331102126145 Eh    ::
         :: repulsion energy           0.765180178352 Eh    ::

    * Orbital Energies and Occupations

         #    Occupation            Energy/Eh            Energy/eV
      -------------------------------------------------------------
         1        2.0000           -0.8566506             -23.3107
       ...           ...                  ...                  ...
        56        2.0000           -0.4417577             -12.0208
        57        2.0000           -0.4395831             -11.9617
        58        2.0000           -0.4323173             -11.7640
        59        2.0000           -0.4269837             -11.6188
        60        2.0000           -0.4099841             -11.1562
        61        2.0000           -0.4068412             -11.0707
        62        2.0000           -0.3989183             -10.8551
        63        2.0000           -0.3777668             -10.2796
        64        2.0000           -0.3751304             -10.2078
        65        2.0000           -0.3468119              -9.4372
        66        2.0000           -0.3325492              -9.0491
        67        2.0000           -0.3161534              -8.6030
        68        1.9983           -0.3103372              -8.4447 (HOMO)
        69        0.0017           -0.2968956              -8.0789 (LUMO)
        70                         -0.2493450              -6.7850
        71                         -0.2146124              -5.8399
        72                         -0.1990804              -5.4173
        73                         -0.1864363              -5.0732
        74                         -0.1390683              -3.7842
        75                         -0.1126549              -3.0655
        76                         -0.1107568              -3.0138
        77                         -0.0909633              -2.4752
        78                         -0.0852459              -2.3197
        79                         -0.0841002              -2.2885
       ...                                ...                  ...
       134                          0.7461412              20.3035
      -------------------------------------------------------------
                  HL-Gap            0.0134416 Eh            0.3658 eV

Wiberg/Mayer (AO) data.
largest (>0.10) Wiberg bond orders for each atom

     #   Z sym  total        # sym  WBO       # sym  WBO       # sym  WBO
 ---------------------------------------------------------------------------
     1   6 C    3.948 --     2 O    1.001    27 H    0.982    26 H    0.978
                            28 H    0.968
     2   8 O    1.906 --     1 C    1.001     3 C    0.709
     3   6 C    3.888 --     5 O    1.271     4 C    0.937     6 C    0.916
                             2 O    0.709
     4   6 C    3.985 --    30 H    0.988    31 H    0.987    29 H    0.986
                             3 C    0.937
     5   8 O    1.545 --     3 C    1.271
     6   6 C    3.924 --    24 C    1.339     7 N    1.252     3 C    0.916
                            25 O    0.136
     7   7 N    3.035 --     8 C    1.550     6 C    1.252
     8   6 C    3.922 --     7 N    1.550    21 N    1.107     9 C    0.971
     9   6 C    3.924 --    10 C    0.999    11 C    0.994     8 C    0.971
                            12 N    0.896
    10   6 C    3.993 --     9 C    0.999    32 H    0.986    34 H    0.985
                            33 H    0.979
    11   6 C    3.993 --     9 C    0.994    36 H    0.986    35 H    0.985
                            37 H    0.980
    12   7 N    3.367 --    13 C    1.289    38 H    0.900     9 C    0.896
                            14 O    0.184
    13   6 C    3.921 --    14 O    1.568    12 N    1.289    15 C    0.983
    14   8 O    1.883 --    13 C    1.568    12 N    0.184
    15   6 C    3.864 --    16 N    1.625    20 O    1.047    13 C    0.983
    16   7 N    2.990 --    15 C    1.625    17 N    1.190
    17   7 N    2.980 --    18 C    1.619    16 N    1.190
    18   6 C    3.871 --    17 N    1.619    20 O    1.070    19 C    1.030
    19   6 C    3.988 --    18 C    1.030    40 H    0.983    41 H    0.965
                            39 H    0.964
    20   8 O    2.312 --    18 C    1.070    15 C    1.047
    21   7 N    3.433 --    22 C    1.155     8 C    1.107    42 H    0.903
                            23 O    0.128
    22   6 C    3.881 --    23 O    1.494    21 N    1.155    24 C    1.023
    23   8 O    1.786 --    22 C    1.494    21 N    0.128
    24   6 C    3.955 --    25 O    1.403     6 C    1.339    22 C    1.023
    25   8 O    1.738 --    24 C    1.403     6 C    0.136
    26   1 H    1.021 --     1 C    0.978
    27   1 H    1.027 --     1 C    0.982
    28   1 H    1.040 --     1 C    0.968
    29   1 H    1.040 --     4 C    0.986
    30   1 H    1.023 --     4 C    0.988
    31   1 H    1.019 --     4 C    0.987
    32   1 H    1.001 --    10 C    0.986
    33   1 H    1.025 --    10 C    0.979
    34   1 H    1.006 --    10 C    0.985
    35   1 H    1.003 --    11 C    0.985
    36   1 H    1.003 --    11 C    0.986
    37   1 H    1.008 --    11 C    0.980
    38   1 H    0.944 --    12 N    0.900
    39   1 H    0.998 --    19 C    0.964
    40   1 H    0.999 --    19 C    0.983
    41   1 H    0.997 --    19 C    0.965
    42   1 H    0.970 --    21 N    0.903
 ---------------------------------------------------------------------------

           -------------------------------------------------
          | TOTAL ENERGY              -83.621980645469 Eh   |
          | GRADIENT NORM               0.000483894374 Eh/α |
          | HOMO-LUMO GAP               0.365763289124 eV   |
           -------------------------------------------------

 * finished run on 2023/06/21 at 17:02:39.879
