   * xtb version 6.5.1 (579679a) compiled by 'ehlert@majestix' on 2022-07-11
          program call               : /lustre/hpc/kemi/ree/PhD/git/ReactivityQM/dep/xtb-6.5.1/bin/xtb --gfn 1 /lustre/hpc/kemi/ree/PhD/git/ReactivityQM/calculations/R02/reac01prodE06/conf19/R02_reac01prodE06_conf19_gfn1.xyz --opt --vfukui --chrg -1 --uhf 0 --alpb DMSO

   ID    Z sym.   atoms
    1    6 C      1, 3, 5, 6, 8, 11-15, 17, 19, 22, 23
    2    8 O      2, 4, 7, 9, 18, 24
    3    7 N      10, 16, 20, 21, 25
    4    1 H      26-43

      * Solvation model:               ALPB
        Solvent                        DMSO
        Solvent mass                       7.8130E+01 g/mol
          :  Hamiltonian                  GFN1-xTB          :
 * total energy  :   -83.8625336 Eh     change       -0.9578116E-11 Eh
 * total energy  :   -83.8740590 Eh     change       -0.1152541E-01 Eh
 * total energy  :   -83.8786359 Eh     change       -0.4576890E-02 Eh
 * total energy  :   -83.8793442 Eh     change       -0.7082604E-03 Eh
 * total energy  :   -83.8800367 Eh     change       -0.6925770E-03 Eh
 * total energy  :   -83.8803853 Eh     change       -0.3486017E-03 Eh
 * total energy  :   -83.8807064 Eh     change       -0.3210428E-03 Eh
 * total energy  :   -83.8810072 Eh     change       -0.3008169E-03 Eh
 * total energy  :   -83.8812124 Eh     change       -0.2052577E-03 Eh
 * total energy  :   -83.8813684 Eh     change       -0.1559609E-03 Eh
 * total energy  :   -83.8822471 Eh     change       -0.1458917E-04 Eh
 * total energy  :   -83.8822629 Eh     change       -0.1577999E-04 Eh
 * total energy  :   -83.8822738 Eh     change       -0.1084746E-04 Eh
 * total energy  :   -83.8822815 Eh     change       -0.7737655E-05 Eh
 * total energy  :   -83.8822882 Eh     change       -0.6738817E-05 Eh
 * total energy  :   -83.8822879 Eh     change        0.2958624E-06 Eh
 * total energy  :   -83.8822936 Eh     change       -0.5683811E-05 Eh
 * total energy  :   -83.8822991 Eh     change       -0.5474826E-05 Eh
 * total energy  :   -83.8823039 Eh     change       -0.4826519E-05 Eh
   *** GEOMETRY OPTIMIZATION CONVERGED AFTER 38 ITERATIONS ***

 final structure:
================
43
 xtb: 6.5.1 (579679a)
C           -4.16638178875224        3.26733808869689       -1.08204638651131
O           -3.38795944016363        2.57066893181714       -0.10925437561330
C           -2.55662815782566        1.62137042777588       -0.58747212565076
O           -2.48124341656837        1.39724879938531       -1.77841882356522
C           -1.78393807987155        0.89421695055102        0.46007466936128
C           -1.47469856052264        1.43454624936576        1.71435988812653
O           -1.92169143264279        2.68244969530117        2.16603323652817
C           -0.49806736071423        0.79029403418694        2.52863131581846
O           -0.03915203643654        1.19312195731020        3.60842809310261
N            0.05030493398924       -0.37396436593619        1.95786810031877
C           -0.76122335693264       -1.15716820842656        1.03269740441683
C           -1.84795900083512       -1.93113106466089        1.81268613989415
C            0.19155228142764       -2.11049680160243        0.23836372671956
C           -0.56591213945084       -2.79691300460878       -0.90430776512691
C            0.88256751443475       -3.15810051523504        1.11793925462849
N            1.21067620355808       -1.21161504010097       -0.32015566009662
C            2.21890360032703       -1.57850752068827       -1.11287732460363
O            2.42367450059984       -2.70444327008955       -1.55371398450261
C            3.12806174301905       -0.44613528971661       -1.45999057991271
N            4.14156557938352       -0.47377518341831       -2.27013950768585
N            4.67635176709714        0.78284280467538       -2.27633625020083
C            3.95637147659745        1.49702578885115       -1.46904092548410
C            4.13071118691233        2.92600409623732       -1.12682809532886
O            2.95993382096018        0.78128581225209       -0.92161646409852
N           -1.39620330648178       -0.30671944665737        0.05140218224414
H           -4.80465714873097        2.56690739669000       -1.62719710001221
H           -3.51447461913326        3.78464938598613       -1.79122420323646
H           -4.77886873104898        3.98722938239634       -0.54345712395636
H           -2.77960314403405        2.89574238703061        1.77789857388824
H            0.54183785085695       -0.93159523777061        2.64247364779671
H           -1.40226843022332       -2.57812499344228        2.56519972969084
H           -2.44978298370016       -2.52903281160080        1.13188193149296
H           -2.49933297831273       -1.21524673722959        2.31298502574465
H           -1.30158139114925       -3.48835834785673       -0.49756245436539
H           -1.07998652555708       -2.04870832857309       -1.50872054748945
H            0.12081486295836       -3.35970167903788       -1.53441000156003
H            1.57129087606091       -3.74955526110765        0.51510692589130
H            1.44614722699799       -2.68377857970022        1.91949031772085
H            0.14592297168663       -3.83034691692309        1.55275467925251
H            1.18237379408207       -0.26057397302453        0.03150428260776
H            4.26501640855488        3.03865330077030       -0.05113863148908
H            3.24635799192610        3.49248054582302       -1.41883723731167
H            5.00117743767197        3.31991554229567       -1.64514755743349

          :  Hamiltonian                  GFN1-xTB          :
         :: total energy             -83.882303934634 Eh    ::
         :: gradient norm              0.000824811409 Eh/a0 ::
         :: HOMO-LUMO gap              0.674870207047 eV    ::
         :: SCC energy               -84.638061080883 Eh    ::
         :: -> Gsolv                  -0.111329439256 Eh    ::
         :: repulsion energy           0.783647598134 Eh    ::

    * Orbital Energies and Occupations

         #    Occupation            Energy/Eh            Energy/eV
      -------------------------------------------------------------
         1        2.0000           -0.8574841             -23.3333
       ...           ...                  ...                  ...
        56        2.0000           -0.4756587             -12.9433
        57        2.0000           -0.4724663             -12.8565
        58        2.0000           -0.4606825             -12.5358
        59        2.0000           -0.4510886             -12.2747
        60        2.0000           -0.4501669             -12.2497
        61        2.0000           -0.4442486             -12.0886
        62        2.0000           -0.4392219             -11.9518
        63        2.0000           -0.4283744             -11.6567
        64        2.0000           -0.4272879             -11.6271
        65        2.0000           -0.4053232             -11.0294
        66        2.0000           -0.3900902             -10.6149
        67        2.0000           -0.3773288             -10.2676
        68        2.0000           -0.3218326              -8.7575 (HOMO)
        69        0.0000           -0.2970316              -8.0826 (LUMO)
        70                         -0.2663016              -7.2464
        71                         -0.2505982              -6.8191
        72                         -0.1941536              -5.2832
        73                         -0.1858377              -5.0569
        74                         -0.1405371              -3.8242
        75                         -0.1255583              -3.4166
        76                         -0.1190942              -3.2407
        77                         -0.1147244              -3.1218
        78                         -0.1079857              -2.9384
        79                         -0.0971150              -2.6426
       ...                                ...                  ...
       136                          0.7352761              20.0079
      -------------------------------------------------------------
                  HL-Gap            0.0248010 Eh            0.6749 eV

Wiberg/Mayer (AO) data.
largest (>0.10) Wiberg bond orders for each atom

     #   Z sym  total        # sym  WBO       # sym  WBO       # sym  WBO
 ---------------------------------------------------------------------------
     1   6 C    3.884 --    28 H    0.987    26 H    0.981    27 H    0.981
                             2 O    0.906
     2   8 O    2.188 --     3 C    1.069     1 C    0.906     4 O    0.121
     3   6 C    3.816 --     4 O    1.653     2 O    1.069     5 C    1.000
     4   8 O    1.903 --     3 C    1.653     2 O    0.121
     5   6 C    3.970 --    25 N    1.426     6 C    1.328     3 C    1.000
     6   6 C    3.860 --     5 C    1.328     8 C    1.200     7 O    0.970
                            25 N    0.179
     7   8 O    1.942 --     6 C    0.970    29 H    0.852
     8   6 C    3.914 --     9 O    1.500     6 C    1.200    10 N    1.060
     9   8 O    1.800 --     8 C    1.500
    10   7 N    3.189 --     8 C    1.060    11 C    0.943    30 H    0.920
    11   6 C    3.947 --    25 N    1.000    12 C    0.974    13 C    0.949
                            10 N    0.943
    12   6 C    3.995 --    31 H    0.984    33 H    0.984    32 H    0.983
                            11 C    0.974
    13   6 C    3.922 --    14 C    0.997    15 C    0.995    11 C    0.949
                            16 N    0.914
    14   6 C    3.993 --    13 C    0.997    34 H    0.984    36 H    0.982
                            35 H    0.980
    15   6 C    3.993 --    13 C    0.995    39 H    0.983    38 H    0.982
                            37 H    0.981
    16   7 N    3.400 --    17 C    1.314    13 C    0.914    40 H    0.889
                            18 O    0.188
    17   6 C    3.925 --    18 O    1.549    16 N    1.314    19 C    0.981
    18   8 O    1.873 --    17 C    1.549    16 N    0.188
    19   6 C    3.866 --    20 N    1.627    24 O    1.049    17 C    0.981
    20   7 N    2.993 --    19 C    1.627    21 N    1.190
    21   7 N    2.980 --    22 C    1.618    20 N    1.190
    22   6 C    3.872 --    21 N    1.618    24 O    1.073    23 C    1.030
    23   6 C    3.988 --    22 C    1.030    43 H    0.983    41 H    0.965
                            42 H    0.964
    24   8 O    2.316 --    22 C    1.073    19 C    1.049
    25   7 N    2.924 --     5 C    1.426    11 C    1.000     6 C    0.179
    26   1 H    1.011 --     1 C    0.981
    27   1 H    1.011 --     1 C    0.981
    28   1 H    1.012 --     1 C    0.987
    29   1 H    0.895 --     7 O    0.852
    30   1 H    0.967 --    10 N    0.920
    31   1 H    1.005 --    12 C    0.984
    32   1 H    1.010 --    12 C    0.983
    33   1 H    1.007 --    12 C    0.984
    34   1 H    1.006 --    14 C    0.984
    35   1 H    1.029 --    14 C    0.980
    36   1 H    1.014 --    14 C    0.982
    37   1 H    1.011 --    15 C    0.981
    38   1 H    1.004 --    15 C    0.982
    39   1 H    1.005 --    15 C    0.983
    40   1 H    0.972 --    16 N    0.889
    41   1 H    0.998 --    23 C    0.965
    42   1 H    0.998 --    23 C    0.964
    43   1 H    1.000 --    23 C    0.983
 ---------------------------------------------------------------------------

           -------------------------------------------------
          | TOTAL ENERGY              -83.882303934634 Eh   |
          | GRADIENT NORM               0.000824811409 Eh/α |
          | HOMO-LUMO GAP               0.674870207047 eV   |
           -------------------------------------------------

 * finished run on 2023/06/20 at 15:00:21.095
