                         Program Version 5.0.1 -  RELEASE  -
|  1> # ORCA input file
|  2> ! SP r2SCAN-3c CPCM
|  3>
|  4> %maxcore 1875.0
|  5> %pal nprocs 4 end
|  6> %cpcm smd true SMDsolvent "DMSO" end
|  7>
|  8> *xyz -1 1
|  9> C      -5.257191    2.219113    3.772997
| 10> O      -4.627585    1.885955    2.535342
| 11> C      -3.609807    1.022668    2.598513
| 12> O      -3.221842    0.539230    3.640241
| 13> C      -3.011596    0.717237    1.270939
| 14> N      -1.977328   -0.174237    1.318142
| 15> C      -1.351214   -0.561551    0.252461
| 16> C      -0.253555   -1.604474    0.456230
| 17> C      -0.753965   -2.946305   -0.105305
| 18> C       0.016486   -1.752883    1.964364
| 19> N       0.950060   -1.147402   -0.233620
| 20> C       2.156192   -1.884453   -0.127070
| 21> O       2.168495   -3.088508    0.194719
| 22> C       3.294226   -1.129878   -0.475700
| 23> N       4.555202   -1.545205   -0.503877
| 24> N       5.355892   -0.586404   -0.845117
| 25> C       4.544212    0.618606   -1.074389
| 26> C       4.700355    1.079658   -2.531850
| 27> C       4.970885    1.726197   -0.098644
| 28> O       3.198691    0.230814   -0.822258
| 29> N      -1.700172   -0.093141   -0.992181
| 30> C      -1.080061   -0.500615   -2.255819
| 31> C      -2.737944    0.803494   -1.151477
| 32> O      -3.082317    1.219312   -2.258470
| 33> C      -3.409031    1.226249    0.063498
| 34> O      -4.411198    2.103281   -0.108957
| 35> H      -6.015219    2.966288    3.546914
| 36> H      -5.721692    1.332038    4.211122
| 37> H      -4.523953    2.624733    4.474772
| 38> H      -1.733201   -3.170319    0.316110
| 39> H      -0.838970   -2.911417   -1.188834
| 40> H      -0.063904   -3.744026    0.163678
| 41> H      -0.886525   -2.085241    2.474181
| 42> H       0.325307   -0.797318    2.385960
| 43> H       0.803858   -2.487879    2.123834
| 44> H       1.101462   -0.150255   -0.141258
| 45> H       5.742881    1.319974   -2.730915
| 46> H       4.085612    1.958490   -2.716625
| 47> H       4.385726    0.278922   -3.198964
| 48> H       4.346413    2.606977   -0.235447
| 49> H       4.862597    1.368164    0.923898
| 50> H       6.011533    1.990649   -0.275429
| 51> H      -0.958305    0.388806   -2.874131
| 52> H      -1.743869   -1.197137   -2.768535
| 53> H      -0.112442   -0.960083   -2.077322
| 54> H      -4.493195    2.291880   -1.062569
| 55> **                         ****END OF INPUT****

CARTESIAN COORDINATES (ANGSTROEM)
---------------------------------
  C     -5.257191    2.219113    3.772997
  O     -4.627585    1.885955    2.535342
  C     -3.609807    1.022668    2.598513
  O     -3.221842    0.539230    3.640241
  C     -3.011596    0.717237    1.270939
  N     -1.977328   -0.174237    1.318142
  C     -1.351214   -0.561551    0.252461
  C     -0.253555   -1.604474    0.456230
  C     -0.753965   -2.946305   -0.105305
  C      0.016486   -1.752883    1.964364
  N      0.950060   -1.147402   -0.233620
  C      2.156192   -1.884453   -0.127070
  O      2.168495   -3.088508    0.194719
  C      3.294226   -1.129878   -0.475700
  N      4.555202   -1.545205   -0.503877
  N      5.355892   -0.586404   -0.845117
  C      4.544212    0.618606   -1.074389
  C      4.700355    1.079658   -2.531850
  C      4.970885    1.726197   -0.098644
  O      3.198691    0.230814   -0.822258
  N     -1.700172   -0.093141   -0.992181
  C     -1.080061   -0.500615   -2.255819
  C     -2.737944    0.803494   -1.151477
  O     -3.082317    1.219312   -2.258470
  C     -3.409031    1.226249    0.063498
  O     -4.411198    2.103281   -0.108957
  H     -6.015219    2.966288    3.546914
  H     -5.721692    1.332038    4.211122
  H     -4.523953    2.624733    4.474772
  H     -1.733201   -3.170319    0.316110
  H     -0.838970   -2.911417   -1.188834
  H     -0.063904   -3.744026    0.163678
  H     -0.886525   -2.085241    2.474181
  H      0.325307   -0.797318    2.385960
  H      0.803858   -2.487879    2.123834
  H      1.101462   -0.150255   -0.141258
  H      5.742881    1.319974   -2.730915
  H      4.085612    1.958490   -2.716625
  H      4.385726    0.278922   -3.198964
  H      4.346413    2.606977   -0.235447
  H      4.862597    1.368164    0.923898
  H      6.011533    1.990649   -0.275429
  H     -0.958305    0.388806   -2.874131
  H     -1.743869   -1.197137   -2.768535
  H     -0.112442   -0.960083   -2.077322
  H     -4.493195    2.291880   -1.062569

 Total Charge           Charge          ....   -1
 Multiplicity           Mult            ....    1
 Number of Electrons    NEL             ....  194
 Basis Dimension        Dim             ....  649

ORBITAL ENERGIES
----------------

  NO   OCC          E(Eh)            E(eV)
   0   2.0000     -18.997834      -516.9573
   1   2.0000     -18.996840      -516.9303
   2   2.0000     -18.953289      -515.7452
   3   2.0000     -18.935406      -515.2586
   4   2.0000     -18.934513      -515.2343
   5   2.0000     -18.882472      -513.8182
   6   2.0000     -14.239056      -387.4644
   7   2.0000     -14.165058      -385.4508
   8   2.0000     -14.158786      -385.2802
   9   2.0000     -14.157894      -385.2559
  10   2.0000     -14.128255      -384.4494
  11   2.0000     -10.158703      -276.4324
  12   2.0000     -10.144105      -276.0351
  13   2.0000     -10.120290      -275.3871
  14   2.0000     -10.117920      -275.3226
  15   2.0000     -10.100429      -274.8467
  16   2.0000     -10.089888      -274.5598
  17   2.0000     -10.088046      -274.5097
  18   2.0000     -10.086078      -274.4561
  19   2.0000     -10.074198      -274.1329
  20   2.0000     -10.057197      -273.6702
  21   2.0000     -10.055221      -273.6165
  22   2.0000     -10.010162      -272.3904
  23   2.0000     -10.004919      -272.2477
  24   2.0000     -10.003330      -272.2044
  25   2.0000     -10.003227      -272.2016
  26   2.0000      -1.073705       -29.2170
  27   2.0000      -1.053907       -28.6783
  28   2.0000      -1.034656       -28.1544
  29   2.0000      -1.016367       -27.6568
  30   2.0000      -0.981108       -26.6973
  31   2.0000      -0.965993       -26.2860
  32   2.0000      -0.959077       -26.0978
  33   2.0000      -0.912792       -24.8383
  34   2.0000      -0.884799       -24.0766
  35   2.0000      -0.869532       -23.6612
  36   2.0000      -0.777017       -21.1437
  37   2.0000      -0.761737       -20.7279
  38   2.0000      -0.727671       -19.8009
  39   2.0000      -0.712066       -19.3763
  40   2.0000      -0.685415       -18.6511
  41   2.0000      -0.668765       -18.1980
  42   2.0000      -0.650414       -17.6987
  43   2.0000      -0.644936       -17.5496
  44   2.0000      -0.635872       -17.3030
  45   2.0000      -0.620347       -16.8805
  46   2.0000      -0.600156       -16.3311
  47   2.0000      -0.557618       -15.1735
  48   2.0000      -0.551538       -15.0081
  49   2.0000      -0.539171       -14.6716
  50   2.0000      -0.530009       -14.4223
  51   2.0000      -0.507241       -13.8027
  52   2.0000      -0.504573       -13.7301
  53   2.0000      -0.494371       -13.4525
  54   2.0000      -0.474984       -12.9250
  55   2.0000      -0.462442       -12.5837
  56   2.0000      -0.452750       -12.3199
  57   2.0000      -0.446140       -12.1401
  58   2.0000      -0.436149       -11.8682
  59   2.0000      -0.423282       -11.5181
  60   2.0000      -0.419759       -11.4222
  61   2.0000      -0.415676       -11.3111
  62   2.0000      -0.409066       -11.1313
  63   2.0000      -0.402281       -10.9466
  64   2.0000      -0.399202       -10.8628
  65   2.0000      -0.393488       -10.7074
  66   2.0000      -0.384714       -10.4686
  67   2.0000      -0.375666       -10.2224
  68   2.0000      -0.372217       -10.1285
  69   2.0000      -0.367319        -9.9953
  70   2.0000      -0.363616        -9.8945
  71   2.0000      -0.358188        -9.7468
  72   2.0000      -0.349242        -9.5034
  73   2.0000      -0.349023        -9.4974
  74   2.0000      -0.344800        -9.3825
  75   2.0000      -0.340073        -9.2539
  76   2.0000      -0.338477        -9.2104
  77   2.0000      -0.336157        -9.1473
  78   2.0000      -0.334110        -9.0916
  79   2.0000      -0.329360        -8.9623
  80   2.0000      -0.322400        -8.7729
  81   2.0000      -0.318357        -8.6629
  82   2.0000      -0.312456        -8.5024
  83   2.0000      -0.307800        -8.3757
  84   2.0000      -0.293742        -7.9931
  85   2.0000      -0.273915        -7.4536
  86   2.0000      -0.269427        -7.3315
  87   2.0000      -0.268288        -7.3005
  88   2.0000      -0.264842        -7.2067
  89   2.0000      -0.257674        -7.0117
  90   2.0000      -0.245188        -6.6719
  91   2.0000      -0.239855        -6.5268
  92   2.0000      -0.216185        -5.8827
  93   2.0000      -0.209726        -5.7069
  94   2.0000      -0.204101        -5.5539
  95   2.0000      -0.190415        -5.1814
  96   2.0000      -0.123210        -3.3527
  97   0.0000      -0.088988        -2.4215
  98   0.0000      -0.037372        -1.0169
  99   0.0000      -0.029304        -0.7974
 100   0.0000       0.015422         0.4197
 101   0.0000       0.049214         1.3392

MULLIKEN ATOMIC CHARGES
-----------------------
   0 C :   -0.314890
   1 O :   -0.160213
   2 C :    0.114243
   3 O :   -0.401733
   4 C :    0.154594
   5 N :   -0.120406
   6 C :    0.112202
   7 C :    0.074794
   8 C :   -0.583578
   9 C :   -0.697885
  10 N :   -0.194938
  11 C :   -0.236905
  12 O :   -0.478855
  13 C :    0.212196
  14 N :   -0.133835
  15 N :   -0.365058
  16 C :    0.217904
  17 C :   -0.568582
  18 C :   -0.563632
  19 O :   -0.169469
  20 N :    0.251498
  21 C :   -0.466613
  22 C :    0.187478
  23 O :   -0.491259
  24 C :    0.036440
  25 O :   -0.349891
  26 H :    0.175592
  27 H :    0.174794
  28 H :    0.174541
  29 H :    0.182239
  30 H :    0.178218
  31 H :    0.205620
  32 H :    0.182456
  33 H :    0.190701
  34 H :    0.192944
  35 H :    0.310687
  36 H :    0.170555
  37 H :    0.165528
  38 H :    0.164104
  39 H :    0.166083
  40 H :    0.164030
  41 H :    0.170310
  42 H :    0.190446
  43 H :    0.200404
  44 H :    0.220105
  45 H :    0.357033
Sum of atomic charges:   -1.0000000

LOEWDIN ATOMIC CHARGES
----------------------
   0 C :   -0.038838
   1 O :   -0.577366
   2 C :    0.401462
   3 O :   -0.414831
   4 C :    0.205102
   5 N :   -0.573864
   6 C :    0.374811
   7 C :    0.104797
   8 C :   -0.352282
   9 C :   -0.351674
  10 N :   -0.669447
  11 C :    0.341518
  12 O :   -0.568710
  13 C :    0.310265
  14 N :   -0.430797
  15 N :   -0.484209
  16 C :    0.237771
  17 C :   -0.372073
  18 C :   -0.372132
  19 O :   -0.572914
  20 N :   -0.623489
  21 C :   -0.086426
  22 C :    0.377417
  23 O :   -0.496305
  24 C :    0.280706
  25 O :   -0.440515
  26 H :    0.185001
  27 H :    0.181259
  28 H :    0.182136
  29 H :    0.167211
  30 H :    0.170443
  31 H :    0.185118
  32 H :    0.171564
  33 H :    0.170123
  34 H :    0.174536
  35 H :    0.289778
  36 H :    0.167311
  37 H :    0.162209
  38 H :    0.165447
  39 H :    0.162537
  40 H :    0.165478
  41 H :    0.167230
  42 H :    0.204367
  43 H :    0.195060
  44 H :    0.215172
  45 H :    0.310045

  Mayer bond orders larger than 0.100000
B(  0-C ,  1-O ) :   0.8341 B(  0-C , 26-H ) :   0.9647 B(  0-C , 27-H ) :   0.9543
B(  0-C , 28-H ) :   0.9560 B(  1-O ,  2-C ) :   1.1675 B(  2-C ,  3-O ) :   1.9103
B(  2-C ,  4-C ) :   1.0095 B(  4-C ,  5-N ) :   0.9730 B(  4-C , 24-C ) :   1.3372
B(  5-N ,  6-C ) :   1.7309 B(  5-N ,  7-C ) :  -0.1309 B(  6-C ,  7-C ) :   0.8872
B(  6-C , 10-N ) :  -0.1275 B(  6-C , 20-N ) :   1.2209 B(  7-C ,  8-C ) :   0.9087
B(  7-C ,  9-C ) :   0.8727 B(  7-C , 10-N ) :   0.8891 B(  8-C , 29-H ) :   0.9732
B(  8-C , 30-H ) :   0.9476 B(  8-C , 31-H ) :   0.9627 B(  9-C , 32-H ) :   0.9658
B(  9-C , 33-H ) :   0.9801 B(  9-C , 34-H ) :   0.9692 B( 10-N , 11-C ) :   0.9667
B( 10-N , 35-H ) :   0.8736 B( 11-C , 12-O ) :   1.9258 B( 11-C , 13-C ) :   1.0190
B( 11-C , 15-N ) :   0.1736 B( 12-O , 13-C ) :  -0.1386 B( 13-C , 14-N ) :   1.5463
B( 13-C , 15-N ) :   0.1039 B( 13-C , 19-O ) :   0.9592 B( 14-N , 15-N ) :   1.6533
B( 15-N , 16-C ) :   0.8480 B( 16-C , 17-C ) :   0.9355 B( 16-C , 18-C ) :   0.9358
B( 16-C , 19-O ) :   0.7825 B( 17-C , 36-H ) :   0.9655 B( 17-C , 37-H ) :   0.9764
B( 17-C , 38-H ) :   0.9711 B( 18-C , 39-H ) :   0.9769 B( 18-C , 40-H ) :   0.9699
B( 18-C , 41-H ) :   0.9661 B( 20-N , 21-C ) :   0.8415 B( 20-N , 22-C ) :   1.1277
B( 21-C , 42-H ) :   0.9374 B( 21-C , 43-H ) :   0.9378 B( 21-C , 44-H ) :   0.9245
B( 22-C , 23-O ) :   1.7913 B( 22-C , 24-C ) :   0.9796 B( 24-C , 25-O ) :   1.1109
B( 25-O , 45-H ) :   0.8182

Dispersion correction           -0.020880474
FINAL SINGLE POINT ENERGY     -1308.650951923375

DIPOLE MOMENT
-------------
                                X             Y             Z
Electronic contribution:    -15.45888       1.49430       1.97593
Nuclear contribution   :      8.08829       2.23736      -2.06220
                        -----------------------------------------
Total Dipole Moment    :     -7.37058       3.73166      -0.08626
                        -----------------------------------------
Magnitude (a.u.)       :      8.26185
Magnitude (Debye)      :     20.99996

Rotational constants in cm-1:     0.011793     0.003217     0.003117
Rotational constants in MHz :   353.543486    96.447399    93.434666

                             ****ORCA TERMINATED NORMALLY****
TOTAL RUN TIME: 0 days 0 hours 1 minutes 35 seconds 43 msec
