   * xtb version 6.5.1 (579679a) compiled by 'ehlert@majestix' on 2022-07-11
          program call               : /lustre/hpc/kemi/ree/PhD/git/ReactivityQM/dep/xtb-6.5.1/bin/xtb --gfn 1 /lustre/hpc/kemi/ree/PhD/git/ReactivityQM/calculations/R03/reac02prodE11/conf06/R03_reac02prodE11_conf06_gfn1.xyz --opt --vfukui --chrg -1 --uhf 0 --alpb DMSO

   ID    Z sym.   atoms
    1    6 C      1, 3, 5, 7-10, 12, 14, 17-19, 22, 23, 25
    2    8 O      2, 4, 13, 20, 24, 26
    3    7 N      6, 11, 15, 16, 21
    4    1 H      27-46

      * Solvation model:               ALPB
        Solvent                        DMSO
        Solvent mass                       7.8130E+01 g/mol
          :  Hamiltonian                  GFN1-xTB          :
 * total energy  :   -87.0508451 Eh     change       -0.1239044E-09 Eh
 * total energy  :   -87.0605587 Eh     change       -0.9713591E-02 Eh
 * total energy  :   -87.0639623 Eh     change       -0.3403586E-02 Eh
 * total energy  :   -87.0646311 Eh     change       -0.6687479E-03 Eh
 * total energy  :   -87.0651400 Eh     change       -0.5089429E-03 Eh
 * total energy  :   -87.0653213 Eh     change       -0.1812974E-03 Eh
 * total energy  :   -87.0654609 Eh     change       -0.1396041E-03 Eh
 * total energy  :   -87.0655459 Eh     change       -0.8503780E-04 Eh
 * total energy  :   -87.0655979 Eh     change       -0.5195518E-04 Eh
 * total energy  :   -87.0656298 Eh     change       -0.3188334E-04 Eh
 * total energy  :   -87.0657172 Eh     change       -0.2464130E-04 Eh
 * total energy  :   -87.0657351 Eh     change       -0.1785865E-04 Eh
 * total energy  :   -87.0657466 Eh     change       -0.1152379E-04 Eh
 * total energy  :   -87.0657589 Eh     change       -0.1230822E-04 Eh
 * total energy  :   -87.0657628 Eh     change       -0.3871375E-05 Eh
 * total energy  :   -87.0657678 Eh     change       -0.5063688E-05 Eh
 * total energy  :   -87.0657733 Eh     change       -0.5453085E-05 Eh
 * total energy  :   -87.0657800 Eh     change       -0.6714597E-05 Eh
 * total energy  :   -87.0657834 Eh     change       -0.3435789E-05 Eh
   *** GEOMETRY OPTIMIZATION CONVERGED AFTER 22 ITERATIONS ***

 final structure:
================
46
 xtb: 6.5.1 (579679a)
C           -5.25719104913866        2.21911294092626        3.77299684448054
O           -4.62758473467713        1.88595547778187        2.53534174889294
C           -3.60980740183723        1.02266777587657        2.59851304254289
O           -3.22184229041374        0.53923001186879        3.64024126176620
C           -3.01159627985118        0.71723653521268        1.27093854379339
N           -1.97732808803781       -0.17423706729443        1.31814174803629
C           -1.35121449630127       -0.56155055356072        0.25246066257438
C           -0.25355506789359       -1.60447350820199        0.45622979200896
C           -0.75396539169896       -2.94630495288794       -0.10530461094180
C            0.01648582894503       -1.75288260679794        1.96436421359579
N            0.95006031888697       -1.14740225158494       -0.23361982856641
C            2.15619249379912       -1.88445259584022       -0.12707021431013
O            2.16849471988478       -3.08850797367832        0.19471890787946
C            3.29422608972701       -1.12987819922810       -0.47569950137453
N            4.55520211953003       -1.54520544439752       -0.50387687489958
N            5.35589230173001       -0.58640412831122       -0.84511725646749
C            4.54421157960858        0.61860564455473       -1.07438893977163
C            4.70035465581126        1.07965753407147       -2.53184991312236
C            4.97088477227685        1.72619666009779       -0.09864388241505
O            3.19869125564633        0.23081419765080       -0.82225787287295
N           -1.70017173441737       -0.09314102725088       -0.99218148798120
C           -1.08006101057430       -0.50061455432201       -2.25581896527945
C           -2.73794389024379        0.80349440891711       -1.15147699314566
O           -3.08231663189763        1.21931171612593       -2.25847049522785
C           -3.40903107506042        1.22624889338859        0.06349799605593
O           -4.41119802713470        2.10328089438296       -0.10895714958353
H           -6.01521892245388        2.96628835731904        3.54691385740789
H           -5.72169205144595        1.33203795476437        4.21112193961503
H           -4.52395264352591        2.62473287005779        4.47477205050895
H           -1.73320117832710       -3.17031852244799        0.31611028060368
H           -0.83896970543189       -2.91141726399429       -1.18883427284503
H           -0.06390446551095       -3.74402614166898        0.16367837733825
H           -0.88652454375062       -2.08524123292807        2.47418087619533
H            0.32530670966124       -0.79731761057442        2.38596019614656
H            0.80385811824020       -2.48787949867642        2.12383402904722
H            1.10146230700809       -0.15025480949269       -0.14125797020695
H            5.74288073259474        1.31997379679219       -2.73091480011345
H            4.08561182270730        1.95848963738076       -2.71662520629797
H            4.38572592008803        0.27892152151709       -3.19896374870120
H            4.34641305086544        2.60697727627726       -0.23544731078755
H            4.86259696943641        1.36816372702765        0.92389825319994
H            6.01153314795236        1.99064899787226       -0.27542880020243
H           -0.95830485487053        0.38880581132975       -2.87413100829890
H           -1.74386940810208       -1.19713703771337       -2.76853497434734
H           -0.11244189036560       -0.96008265291177       -2.07732152908314
H           -4.49319508143076        2.29187999256248       -1.06256901484403

          :  Hamiltonian                  GFN1-xTB          :
         :: total energy             -87.065783442795 Eh    ::
         :: gradient norm              0.000490380319 Eh/a0 ::
         :: HOMO-LUMO gap              0.192870267688 eV    ::
         :: SCC energy               -87.859247119339 Eh    ::
         :: -> Gsolv                  -0.111930031473 Eh    ::
         :: repulsion energy           0.822348999392 Eh    ::

    * Orbital Energies and Occupations

         #    Occupation            Energy/Eh            Energy/eV
      -------------------------------------------------------------
         1        2.0000           -0.8315996             -22.6290
       ...           ...                  ...                  ...
        59        2.0000           -0.4754031             -12.9364
        60        2.0000           -0.4719533             -12.8425
        61        2.0000           -0.4619259             -12.5696
        62        2.0000           -0.4499372             -12.2434
        63        2.0000           -0.4479853             -12.1903
        64        2.0000           -0.4389720             -11.9450
        65        2.0000           -0.4342570             -11.8167
        66        2.0000           -0.4187080             -11.3936
        67        2.0000           -0.4176315             -11.3643
        68        2.0000           -0.4109682             -11.1830
        69        2.0000           -0.3974956             -10.8164
        70        2.0000           -0.3735976             -10.1661
        71        1.9532           -0.3204338              -8.7194 (HOMO)
        72        0.0468           -0.3133459              -8.5266 (LUMO)
        73                         -0.2704054              -7.3581
        74                         -0.2427435              -6.6054
        75                         -0.2302554              -6.2656
        76                         -0.1458942              -3.9700
        77                         -0.1347128              -3.6657
        78                         -0.1315153              -3.5787
        79                         -0.1270309              -3.4567
        80                         -0.1086077              -2.9554
        81                         -0.1048248              -2.8524
        82                         -0.1003834              -2.7316
       ...                                ...                  ...
       144                          0.7305734              19.8799
      -------------------------------------------------------------
                  HL-Gap            0.0070879 Eh            0.1929 eV

Wiberg/Mayer (AO) data.
largest (>0.10) Wiberg bond orders for each atom

     #   Z sym  total        # sym  WBO       # sym  WBO       # sym  WBO
 ---------------------------------------------------------------------------
     1   6 C    3.877 --    27 H    0.986    28 H    0.980    29 H    0.980
                             2 O    0.902
     2   8 O    2.193 --     3 C    1.103     1 C    0.902     4 O    0.131
     3   6 C    3.837 --     4 O    1.646     2 O    1.103     5 C    1.009
     4   8 O    1.903 --     3 C    1.646     2 O    0.131
     5   6 C    3.950 --    25 C    1.477     6 N    1.191     3 C    1.009
     6   7 N    3.028 --     7 C    1.568     5 C    1.191
     7   6 C    3.915 --     6 N    1.568    21 N    1.165     8 C    0.974
     8   6 C    3.956 --    10 C    0.989     9 C    0.981     7 C    0.974
                            11 N    0.955
     9   6 C    3.991 --    30 H    0.987    31 H    0.983     8 C    0.981
                            32 H    0.976
    10   6 C    3.993 --     8 C    0.989    33 H    0.986    34 H    0.986
                            35 H    0.982
    11   7 N    3.184 --    12 C    1.040     8 C    0.955    36 H    0.917
    12   6 C    3.916 --    13 O    1.459    14 C    1.235    11 N    1.040
    13   8 O    1.797 --    12 C    1.459
    14   6 C    3.822 --    15 N    1.381    12 C    1.235    20 O    0.929
                            16 N    0.141
    15   7 N    3.025 --    16 N    1.488    14 C    1.381
    16   7 N    2.865 --    15 N    1.488    17 C    0.981    14 C    0.141
    17   6 C    3.896 --    16 N    0.981    19 C    0.978    18 C    0.978
                            20 O    0.919
    18   6 C    3.991 --    37 H    0.988    38 H    0.986    39 H    0.985
                            17 C    0.978
    19   6 C    3.991 --    42 H    0.988    40 H    0.986    41 H    0.985
                            17 C    0.978
    20   8 O    2.052 --    14 C    0.929    17 C    0.919
    21   7 N    3.505 --     7 C    1.165    23 C    1.139    22 C    0.927
                            24 O    0.133
    22   6 C    3.920 --    44 H    0.977    43 H    0.976    45 H    0.971
                            21 N    0.927
    23   6 C    3.910 --    24 O    1.533    21 N    1.139    25 C    1.089
    24   8 O    1.875 --    23 C    1.533    21 N    0.133
    25   6 C    3.902 --     5 C    1.477    26 O    1.093    23 C    1.089
    26   8 O    2.067 --    25 C    1.093    46 H    0.810
    27   1 H    1.012 --     1 C    0.986
    28   1 H    1.008 --     1 C    0.980
    29   1 H    1.009 --     1 C    0.980
    30   1 H    1.005 --     9 C    0.987
    31   1 H    1.005 --     9 C    0.983
    32   1 H    1.022 --     9 C    0.976
    33   1 H    1.015 --    10 C    0.986
    34   1 H    1.010 --    10 C    0.986
    35   1 H    1.014 --    10 C    0.982
    36   1 H    0.965 --    11 N    0.917
    37   1 H    1.009 --    18 C    0.988
    38   1 H    1.007 --    18 C    0.986
    39   1 H    1.013 --    18 C    0.985
    40   1 H    1.008 --    19 C    0.986
    41   1 H    1.013 --    19 C    0.985
    42   1 H    1.009 --    19 C    0.988
    43   1 H    1.007 --    22 C    0.976
    44   1 H    1.004 --    22 C    0.977
    45   1 H    1.021 --    22 C    0.971
    46   1 H    0.854 --    26 O    0.810
 ---------------------------------------------------------------------------

           -------------------------------------------------
          | TOTAL ENERGY              -87.065783442795 Eh   |
          | GRADIENT NORM               0.000490380319 Eh/α |
          | HOMO-LUMO GAP               0.192870267688 eV   |
           -------------------------------------------------

 * finished run on 2023/06/20 at 15:32:26.182
