   * xtb version 6.5.1 (579679a) compiled by 'ehlert@majestix' on 2022-07-11
          program call               : /lustre/hpc/kemi/ree/PhD/git/ReactivityQM/dep/xtb-6.5.1/bin/xtb --gfn 1 /lustre/hpc/kemi/ree/PhD/git/ReactivityQM/calculations/RaltegravirCLI/reac01prodN06/conf07/RaltegravirCLI_reac01prodN06_conf07_gfn1.xyz --opt --vfukui --chrg 1 --uhf 0 --alpb DMSO

   ID    Z sym.   atoms
    1    6 C      1, 2, 5-7
    2    7 N      3, 4
    3    8 O      8, 10
    4   17 Cl     9
    5    1 H      11-16

      * Solvation model:               ALPB
        Solvent                        DMSO
        Solvent mass                       7.8130E+01 g/mol
          :  Hamiltonian                  GFN1-xTB          :
 * total energy  :   -33.2677897 Eh     change       -0.3446132E-11 Eh
 * total energy  :   -33.2791814 Eh     change       -0.1139168E-01 Eh
 * total energy  :   -33.2841960 Eh     change       -0.5014588E-02 Eh
 * total energy  :   -33.2940395 Eh     change       -0.9843453E-02 Eh
 * total energy  :   -33.2960744 Eh     change       -0.2034957E-02 Eh
 * total energy  :   -33.2978837 Eh     change       -0.1809325E-02 Eh
 * total energy  :   -33.2992359 Eh     change       -0.1352176E-02 Eh
 * total energy  :   -33.3002891 Eh     change       -0.1053172E-02 Eh
 * total energy  :   -33.3022265 Eh     change       -0.1937465E-02 Eh
 * total energy  :   -33.3067784 Eh     change       -0.4551883E-02 Eh
 * total energy  :   -33.3919700 Eh     change       -0.7186984E-04 Eh
 * total energy  :   -33.3919981 Eh     change       -0.2807764E-04 Eh
 * total energy  :   -33.3920225 Eh     change       -0.2440746E-04 Eh
 * total energy  :   -33.3920430 Eh     change       -0.2047084E-04 Eh
 * total energy  :   -33.3920586 Eh     change       -0.1558997E-04 Eh
 * total energy  :   -33.3920657 Eh     change       -0.7152612E-05 Eh
 * total energy  :   -33.3920732 Eh     change       -0.7525106E-05 Eh
 * total energy  :   -33.3920744 Eh     change       -0.1196425E-05 Eh
 * total energy  :   -33.3920783 Eh     change       -0.3829813E-05 Eh
   *** GEOMETRY OPTIMIZATION CONVERGED AFTER 46 ITERATIONS ***

 final structure:
================
16
 xtb: 6.5.1 (579679a)
C            2.68758850021760        0.32939477384400        0.07048695690061
C            1.31964638180540       -0.14014496897279       -0.07382028076989
N            0.94835962770235       -1.43388021652517       -0.36604984829966
N           -0.30839627906231       -1.47013934793754       -0.42893787751773
C           -0.84446591940143       -0.18802350437333       -0.15571526389171
C           -1.73657859308926       -0.34578058613585        1.15924031224592
C           -1.74404477496006        0.37304293185745       -1.25897419866237
O           -2.71426280193307       -1.00742812314337        1.08619217811260
Cl          -1.18270148658761        0.47982221630081        2.50822136187275
O            0.29054129713569        0.61345324926718        0.05619713945501
H            2.71526123492382        1.34963856451858        0.44657394456128
H            3.24416274554382       -0.34989316171230        0.71965678982471
H            3.17251541321312        0.28491781474346       -0.91040429816821
H           -2.06718395088822        1.37347372381780       -0.98120478023434
H           -2.60505842592726       -0.28251159882880       -1.37212077997613
H           -1.17538196869256        0.41405823327986       -2.18502635545303

          :  Hamiltonian                  GFN1-xTB          :
         :: total energy             -33.392078260240 Eh    ::
         :: gradient norm              0.000407331364 Eh/a0 ::
         :: HOMO-LUMO gap              2.009877065410 eV    ::
         :: SCC energy               -33.670653902743 Eh    ::
         :: -> Gsolv                  -0.085642436109 Eh    ::
         :: repulsion energy           0.286521305186 Eh    ::

    * Orbital Energies and Occupations

         #    Occupation            Energy/Eh            Energy/eV
      -------------------------------------------------------------
         1        2.0000           -1.0034204             -27.3045
       ...           ...                  ...                  ...
        15        2.0000           -0.6377469             -17.3540
        16        2.0000           -0.6145606             -16.7230
        17        2.0000           -0.6055708             -16.4784
        18        2.0000           -0.6038385             -16.4313
        19        2.0000           -0.5865407             -15.9606
        20        2.0000           -0.5828938             -15.8613
        21        2.0000           -0.5757765             -15.6677
        22        2.0000           -0.5710026             -15.5378
        23        2.0000           -0.5680118             -15.4564
        24        2.0000           -0.5354864             -14.5713
        25        2.0000           -0.5330455             -14.5049
        26        2.0000           -0.5244097             -14.2699
        27        2.0000           -0.5131051             -13.9623 (HOMO)
        28                         -0.4392434             -11.9524 (LUMO)
        29                         -0.3564163              -9.6986
        30                         -0.3402627              -9.2590
        31                         -0.2501327              -6.8065
        32                         -0.1823907              -4.9631
        33                         -0.1646292              -4.4798
        34                         -0.1353970              -3.6843
        35                         -0.1283459              -3.4925
        36                         -0.1269730              -3.4551
        37                         -0.1142391              -3.1086
        38                         -0.1108807              -3.0172
       ...                                ...                  ...
        57                          0.7145723              19.4445
      -------------------------------------------------------------
                  HL-Gap            0.0738616 Eh            2.0099 eV

Wiberg/Mayer (AO) data.
largest (>0.10) Wiberg bond orders for each atom

     #   Z sym  total        # sym  WBO       # sym  WBO       # sym  WBO
 ---------------------------------------------------------------------------
     1   6 C    3.961 --     2 C    1.092    11 H    0.969    12 H    0.926
                            13 H    0.900
     2   6 C    3.798 --    10 O    1.292     3 N    1.179     1 C    1.092
     3   7 N    3.024 --     4 N    1.676     2 C    1.179
     4   7 N    3.013 --     3 N    1.676     5 C    1.077
     5   6 C    3.841 --     4 N    1.077     7 C    0.909    10 O    0.906
                             6 C    0.786
     6   6 C    3.877 --     8 O    1.833     9 Cl   1.149     5 C    0.786
     7   6 C    3.942 --    14 H    0.976    15 H    0.974    16 H    0.974
                             5 C    0.909
     8   8 O    2.133 --     6 C    1.833     9 Cl   0.157
     9  17 Cl   1.401 --     6 C    1.149     8 O    0.157
    10   8 O    2.380 --     2 C    1.292     5 C    0.906
    11   1 H    0.983 --     1 C    0.969
    12   1 H    0.979 --     1 C    0.926
    13   1 H    0.972 --     1 C    0.900
    14   1 H    0.989 --     7 C    0.976
    15   1 H    0.992 --     7 C    0.974
    16   1 H    0.988 --     7 C    0.974
 ---------------------------------------------------------------------------

           -------------------------------------------------
          | TOTAL ENERGY              -33.392078260240 Eh   |
          | GRADIENT NORM               0.000407331364 Eh/α |
          | HOMO-LUMO GAP               2.009877065410 eV   |
           -------------------------------------------------

 * finished run on 2023/06/20 at 14:55:28.999
