   * xtb version 6.5.1 (579679a) compiled by 'ehlert@majestix' on 2022-07-11
          program call               : /lustre/hpc/kemi/ree/PhD/git/ReactivityQM/dep/xtb-6.5.1/bin/xtb --gfn 1 /lustre/hpc/kemi/ree/PhD/git/ReactivityQM/calculations/R02/reac01prodN07/conf17/R02_reac01prodN07_conf17_gfn1.xyz --opt --vfukui --chrg 1 --uhf 0 --alpb DMSO

   ID    Z sym.   atoms
    1    6 C      1, 3, 5, 7-10, 12, 14, 17-19, 22, 24
    2    8 O      2, 4, 13, 20, 23, 25
    3    7 N      6, 11, 15, 16, 21
    4    1 H      26-43

      * Solvation model:               ALPB
        Solvent                        DMSO
        Solvent mass                       7.8130E+01 g/mol
          :  Hamiltonian                  GFN1-xTB          :
 * total energy  :   -83.1570965 Eh     change       -0.3117862E-10 Eh
 * total energy  :   -83.1748495 Eh     change       -0.1775307E-01 Eh
 * total energy  :   -83.1807521 Eh     change       -0.5902589E-02 Eh
 * total energy  :   -83.1817677 Eh     change       -0.1015550E-02 Eh
 * total energy  :   -83.1823702 Eh     change       -0.6025114E-03 Eh
 * total energy  :   -83.1826016 Eh     change       -0.2314333E-03 Eh
 * total energy  :   -83.1827843 Eh     change       -0.1826407E-03 Eh
 * total energy  :   -83.1828914 Eh     change       -0.1071907E-03 Eh
 * total energy  :   -83.1829613 Eh     change       -0.6990013E-04 Eh
 * total energy  :   -83.1830199 Eh     change       -0.5851616E-04 Eh
 * total energy  :   -83.1831818 Eh     change       -0.4637492E-04 Eh
 * total energy  :   -83.1832184 Eh     change       -0.3664530E-04 Eh
 * total energy  :   -83.1832614 Eh     change       -0.4300688E-04 Eh
 * total energy  :   -83.1832804 Eh     change       -0.1893380E-04 Eh
 * total energy  :   -83.1832983 Eh     change       -0.1791339E-04 Eh
 * total energy  :   -83.1833025 Eh     change       -0.4249206E-05 Eh
 * total energy  :   -83.1833077 Eh     change       -0.5150057E-05 Eh
 * total energy  :   -83.1833139 Eh     change       -0.6238766E-05 Eh
 * total energy  :   -83.1833183 Eh     change       -0.4370487E-05 Eh
   *** GEOMETRY OPTIMIZATION CONVERGED AFTER 21 ITERATIONS ***

 final structure:
================
43
 xtb: 6.5.1 (579679a)
C           -6.15978009964017       -1.34878276435814       -1.58927846853699
O           -4.91740254469719       -0.75835609245220       -1.18541702355286
C           -4.93599653837118       -0.03990676178275       -0.07398798365020
O           -5.94095680548244        0.13231027795628        0.59397422903287
C           -3.62373487937704        0.54321244726007        0.29134440645823
N           -2.55823978956486        0.26126387413641       -0.52864291348477
C           -1.40410845532071        0.75025418783159       -0.23766823329848
C           -0.22679721168333        0.50750567448409       -1.15538730545966
C            0.02536039534637        1.79273607634904       -1.95736800841279
C           -0.50237854404867       -0.68665532972978       -2.07197951178686
N            0.94124673753104        0.21018730813906       -0.30425780618707
C            2.17616317090662        0.04531516324374       -0.80334717891828
O            2.52719324317244        0.17579149499444       -1.95407270538949
C            3.15503353289859       -0.32947332874597        0.27782233924400
N            2.92719364943424       -0.47986136292089        1.54837643560810
N            4.11795100143505       -0.82011501352693        2.07578037706089
C            4.23425860621632       -1.08550870750723        3.49567267014327
C            5.03074372228517       -0.87275941925983        1.12626726076533
C            6.46272364818908       -1.19553299327726        1.23354870366121
O            4.44634498361357       -0.56510807917623       -0.01196834565418
N           -1.20308345300479        1.55479166779071        0.84775128956954
C           -2.18983824869579        1.90640937638098        1.75495015203201
O           -1.93705343416454        2.61458228707361        2.71059583002431
C           -3.49731521557336        1.33346298115873        1.40879091977255
O           -4.50180855970642        1.63081167046148        2.22884150810442
H           -5.97009720907183       -1.84997173510491       -2.53610909567519
H           -6.91947086155173       -0.57335752560200       -1.71131649285720
H           -6.49088077255519       -2.06744146230731       -0.83651718359738
H           -0.89596594442407        2.08679798549308       -2.45938673773828
H            0.79956466212495        1.62969517177939       -2.70414712229094
H            0.33770656907874        2.59152888190066       -1.28685670824883
H           -1.41176636045150       -0.49957022288268       -2.64113385586838
H           -0.63684699446228       -1.58688372882385       -1.47464628752424
H            0.33013086712490       -0.83090122736508       -2.75766703916646
H            0.77892166084603       -0.03442066342293        0.65824854834016
H            3.35823950443656       -0.66858390869877        3.98579915609049
H            4.27713715715322       -2.16331375659566        3.64992048648856
H            5.14438413979697       -0.61974833984421        3.86692038322040
H            6.86651301542084       -1.39186849499238        0.24156461141065
H            6.99668491477795       -0.35124318266243        1.67578455522107
H            6.60581829812382       -2.06092581487354        1.87978474640391
H           -0.28215149796135        1.91823162805373        1.03391422312184
H           -5.33363806012319        1.19540376146004        1.92255917555870

          :  Hamiltonian                  GFN1-xTB          :
         :: total energy             -83.183318300484 Eh    ::
         :: gradient norm              0.000779067920 Eh/a0 ::
         :: HOMO-LUMO gap              2.067303762512 eV    ::
         :: SCC energy               -83.990444072743 Eh    ::
         :: -> Gsolv                  -0.126406381661 Eh    ::
         :: repulsion energy           0.832519833915 Eh    ::

    * Orbital Energies and Occupations

         #    Occupation            Energy/Eh            Energy/eV
      -------------------------------------------------------------
         1        2.0000           -0.9394971             -25.5650
       ...           ...                  ...                  ...
        55        2.0000           -0.5279618             -14.3666
        56        2.0000           -0.5222842             -14.2121
        57        2.0000           -0.5204317             -14.1617
        58        2.0000           -0.5194416             -14.1347
        59        2.0000           -0.5144136             -13.9979
        60        2.0000           -0.5047449             -13.7348
        61        2.0000           -0.4976485             -13.5417
        62        2.0000           -0.4953567             -13.4793
        63        2.0000           -0.4941362             -13.4461
        64        2.0000           -0.4806097             -13.0781
        65        2.0000           -0.4688590             -12.7583
        66        2.0000           -0.4555236             -12.3954
        67        2.0000           -0.4385934             -11.9347 (HOMO)
        68                         -0.3626214              -9.8674 (LUMO)
        69                         -0.3463165              -9.4238
        70                         -0.3332306              -9.0677
        71                         -0.2939649              -7.9992
        72                         -0.2494249              -6.7872
        73                         -0.2457027              -6.6859
        74                         -0.1852395              -5.0406
        75                         -0.1730291              -4.7084
        76                         -0.1674135              -4.5556
        77                         -0.1413073              -3.8452
        78                         -0.1406968              -3.8286
       ...                                ...                  ...
       136                          0.7184429              19.5498
      -------------------------------------------------------------
                  HL-Gap            0.0759720 Eh            2.0673 eV

Wiberg/Mayer (AO) data.
largest (>0.10) Wiberg bond orders for each atom

     #   Z sym  total        # sym  WBO       # sym  WBO       # sym  WBO
 ---------------------------------------------------------------------------
     1   6 C    3.864 --    26 H    0.986    27 H    0.979    28 H    0.979
                             2 O    0.889
     2   8 O    2.219 --     3 C    1.140     1 C    0.889     4 O    0.130
     3   6 C    3.850 --     4 O    1.606     2 O    1.140     5 C    1.019
     4   8 O    1.947 --     3 C    1.606     2 O    0.130
     5   6 C    3.962 --    24 C    1.487     6 N    1.171     3 C    1.019
     6   7 N    3.029 --     7 C    1.600     5 C    1.171
     7   6 C    3.935 --     6 N    1.600    21 N    1.164     8 C    0.982
     8   6 C    3.919 --    10 C    0.990     7 C    0.982     9 C    0.976
                            11 N    0.905
     9   6 C    3.985 --    31 H    0.984    29 H    0.984    30 H    0.977
                             8 C    0.976
    10   6 C    3.987 --     8 C    0.990    33 H    0.985    34 H    0.982
                            32 H    0.981
    11   7 N    3.366 --    12 C    1.278     8 C    0.905    35 H    0.891
                            13 O    0.196
    12   6 C    3.924 --    13 O    1.622    11 N    1.278    14 C    0.953
    13   8 O    1.949 --    12 C    1.622    11 N    0.196
    14   6 C    3.842 --    15 N    1.609    20 O    1.068    12 C    0.953
    15   7 N    2.992 --    14 C    1.609    16 N    1.152
    16   7 N    3.630 --    18 C    1.421    15 N    1.152    17 C    0.908
    17   6 C    3.883 --    36 H    0.977    38 H    0.974    37 H    0.964
                            16 N    0.908
    18   6 C    3.842 --    16 N    1.421    20 O    1.157    19 C    1.041
    19   6 C    3.960 --    18 C    1.041    39 H    0.970    41 H    0.957
                            40 H    0.936
    20   8 O    2.392 --    18 C    1.157    14 C    1.068
    21   7 N    3.454 --     7 C    1.164    22 C    1.112    42 H    0.885
                            23 O    0.135
    22   6 C    3.906 --    23 O    1.612    21 N    1.112    24 C    1.051
    23   8 O    1.910 --    22 C    1.612    21 N    0.135
    24   6 C    3.922 --     5 C    1.487    25 O    1.136    22 C    1.051
    25   8 O    2.101 --    24 C    1.136    43 H    0.770
    26   1 H    1.010 --     1 C    0.986
    27   1 H    1.006 --     1 C    0.979
    28   1 H    1.005 --     1 C    0.979
    29   1 H    1.000 --     9 C    0.984
    30   1 H    1.006 --     9 C    0.977
    31   1 H    0.999 --     9 C    0.984
    32   1 H    1.008 --    10 C    0.981
    33   1 H    1.003 --    10 C    0.985
    34   1 H    1.003 --    10 C    0.982
    35   1 H    0.935 --    11 N    0.891
    36   1 H    0.991 --    17 C    0.977
    37   1 H    0.989 --    17 C    0.964
    38   1 H    0.989 --    17 C    0.974
    39   1 H    0.986 --    19 C    0.970
    40   1 H    0.984 --    19 C    0.936
    41   1 H    0.987 --    19 C    0.957
    42   1 H    0.928 --    21 N    0.885
    43   1 H    0.848 --    25 O    0.770
 ---------------------------------------------------------------------------

           -------------------------------------------------
          | TOTAL ENERGY              -83.183318300484 Eh   |
          | GRADIENT NORM               0.000779067920 Eh/α |
          | HOMO-LUMO GAP               2.067303762512 eV   |
           -------------------------------------------------

 * finished run on 2023/06/20 at 15:26:57.434
