   * xtb version 6.5.1 (579679a) compiled by 'ehlert@majestix' on 2022-07-11
          program call               : /lustre/hpc/kemi/ree/PhD/git/ReactivityQM/dep/xtb-6.5.1/bin/xtb --gfn 1 /lustre/hpc/kemi/ree/PhD/git/ReactivityQM/calculations/R01/reac01prodN01/conf04/R01_reac01prodN01_conf04_gfn1.xyz --opt --vfukui --chrg 1 --uhf 0 --alpb DMSO

   ID    Z sym.   atoms
    1    6 C      1, 3, 5, 8, 9, 11
    2    8 O      2, 4, 10
    3    7 N      6, 7
    4    1 H      12-20

      * Solvation model:               ALPB
        Solvent                        DMSO
        Solvent mass                       7.8130E+01 g/mol
          :  Hamiltonian                  GFN1-xTB          :
 * total energy  :   -37.5508888 Eh     change       -0.1231371E-10 Eh
 * total energy  :   -37.5666227 Eh     change       -0.1573389E-01 Eh
 * total energy  :   -37.5738768 Eh     change       -0.7254101E-02 Eh
 * total energy  :   -37.5759339 Eh     change       -0.2057087E-02 Eh
 * total energy  :   -37.5772454 Eh     change       -0.1311523E-02 Eh
 * total energy  :   -37.5777574 Eh     change       -0.5119681E-03 Eh
 * total energy  :   -37.5781083 Eh     change       -0.3509553E-03 Eh
 * total energy  :   -37.5783371 Eh     change       -0.2287811E-03 Eh
 * total energy  :   -37.5784750 Eh     change       -0.1379325E-03 Eh
 * total energy  :   -37.5785743 Eh     change       -0.9920900E-04 Eh
 * total energy  :   -37.5794267 Eh     change       -0.3835742E-04 Eh
 * total energy  :   -37.5794478 Eh     change       -0.2110653E-04 Eh
 * total energy  :   -37.5794770 Eh     change       -0.2927177E-04 Eh
 * total energy  :   -37.5795018 Eh     change       -0.2474525E-04 Eh
 * total energy  :   -37.5795117 Eh     change       -0.9935772E-05 Eh
 * total energy  :   -37.5795152 Eh     change       -0.3448584E-05 Eh
 * total energy  :   -37.5795253 Eh     change       -0.1010448E-04 Eh
 * total energy  :   -37.5795312 Eh     change       -0.5872504E-05 Eh
 * total energy  :   -37.5795354 Eh     change       -0.4236971E-05 Eh
   *** GEOMETRY OPTIMIZATION CONVERGED AFTER 35 ITERATIONS ***

 final structure:
================
20
 xtb: 6.5.1 (579679a)
C            3.92300978362770       -0.25575083621436        0.22804805693288
O            2.58235714654585       -0.67061883573354        0.55881722567190
C            1.60278331618377       -0.04429263603204       -0.03990358163463
O            1.69947567918951        0.84602179856330       -0.84253428729386
C            0.28113955479767       -0.58627868554939        0.41191212137727
N            0.01183650427990       -1.52556662604876        1.23666759565513
N           -1.34201719036350       -1.65851926903826        1.32468129212094
C           -1.89871552791794       -0.80176758133059        0.55450452016215
C           -3.32806695981297       -0.55954125388026        0.31316734223217
O           -0.90936276338926       -0.05026540418512       -0.08729459526025
C           -1.04897713195488        1.03632313981232       -1.06154045559200
H            4.58765075027361       -0.91639997600682        0.77968081278613
H            4.07847725677151       -0.35258702195083       -0.84710393158256
H            4.06517116440033        0.78257500593747        0.53025069292369
H           -3.59221315959402        0.46238561467359        0.58767647947289
H           -3.56745360788205       -0.70130273351137       -0.74127503482989
H           -3.90564019648210       -1.25937775295851        0.91503502974868
H           -2.11352173900993        1.18780517646756       -1.20567660812150
H           -0.55779087198340        0.71553215933653       -1.97760740319116
H           -0.56814300767975        1.91527771764887       -0.63750727157786

          :  Hamiltonian                  GFN1-xTB          :
         :: total energy             -37.579535392407 Eh    ::
         :: gradient norm              0.000685951294 Eh/a0 ::
         :: HOMO-LUMO gap              3.706104726560 eV    ::
         :: SCC energy               -37.928934631927 Eh    ::
         :: -> Gsolv                  -0.089848821250 Eh    ::
         :: repulsion energy           0.358121140106 Eh    ::

    * Orbital Energies and Occupations

         #    Occupation            Energy/Eh            Energy/eV
      -------------------------------------------------------------
         1        2.0000           -0.9754853             -26.5443
       ...           ...                  ...                  ...
        18        2.0000           -0.6071177             -16.5205
        19        2.0000           -0.6031647             -16.4129
        20        2.0000           -0.5993759             -16.3098
        21        2.0000           -0.5934839             -16.1495
        22        2.0000           -0.5857626             -15.9394
        23        2.0000           -0.5723558             -15.5746
        24        2.0000           -0.5624240             -15.3043
        25        2.0000           -0.5501852             -14.9713
        26        2.0000           -0.5416998             -14.7404
        27        2.0000           -0.5295446             -14.4096
        28        2.0000           -0.5288137             -14.3898
        29        2.0000           -0.5195952             -14.1389
        30        2.0000           -0.5141745             -13.9914 (HOMO)
        31                         -0.3779777             -10.2853 (LUMO)
        32                         -0.3209933              -8.7347
        33                         -0.2592141              -7.0536
        34                         -0.1947469              -5.2993
        35                         -0.1789328              -4.8690
        36                         -0.1550790              -4.2199
        37                         -0.1278314              -3.4785
        38                         -0.1184513              -3.2232
        39                         -0.1177928              -3.2053
        40                         -0.1042304              -2.8363
        41                         -0.0901394              -2.4528
       ...                                ...                  ...
        62                          0.7176541              19.5284
      -------------------------------------------------------------
                  HL-Gap            0.1361968 Eh            3.7061 eV

Wiberg/Mayer (AO) data.
largest (>0.10) Wiberg bond orders for each atom

     #   Z sym  total        # sym  WBO       # sym  WBO       # sym  WBO
 ---------------------------------------------------------------------------
     1   6 C    3.832 --    12 H    0.984    13 H    0.977    14 H    0.976
                             2 O    0.861
     2   8 O    2.245 --     3 C    1.178     1 C    0.861     4 O    0.154
     3   6 C    3.879 --     4 O    1.670     2 O    1.178     5 C    0.962
     4   8 O    1.975 --     3 C    1.670     2 O    0.154
     5   6 C    3.810 --     6 N    1.708     3 C    0.962    10 O    0.883
     6   7 N    3.040 --     5 C    1.708     7 N    1.159
     7   7 N    3.024 --     8 C    1.684     6 N    1.159
     8   6 C    3.800 --     7 N    1.684     9 C    1.046    10 O    0.881
     9   6 C    3.967 --     8 C    1.046    17 H    0.969    16 H    0.948
                            15 H    0.948
    10   8 O    2.653 --     5 C    0.883     8 C    0.881    11 C    0.742
    11   6 C    3.717 --    18 H    0.973    19 H    0.967    20 H    0.967
                            10 O    0.742
    12   1 H    1.005 --     1 C    0.984
    13   1 H    0.999 --     1 C    0.977
    14   1 H    0.999 --     1 C    0.976
    15   1 H    0.987 --     9 C    0.948
    16   1 H    0.987 --     9 C    0.948
    17   1 H    0.988 --     9 C    0.969
    18   1 H    0.989 --    11 C    0.973
    19   1 H    0.996 --    11 C    0.967
    20   1 H    0.996 --    11 C    0.967
 ---------------------------------------------------------------------------

           -------------------------------------------------
          | TOTAL ENERGY              -37.579535392407 Eh   |
          | GRADIENT NORM               0.000685951294 Eh/α |
          | HOMO-LUMO GAP               3.706104726560 eV   |
           -------------------------------------------------

 * finished run on 2023/06/20 at 14:54:44.491
