   * xtb version 6.5.1 (579679a) compiled by 'ehlert@majestix' on 2022-07-11
          program call               : /lustre/hpc/kemi/ree/PhD/git/ReactivityQM/dep/xtb-6.5.1/bin/xtb --gfn 1 /lustre/hpc/kemi/ree/PhD/git/ReactivityQM/calculations/R01/reac02prodN09/conf10/R01_reac02prodN09_conf10_gfn1.xyz --opt --vfukui --chrg 1 --uhf 0 --alpb DMSO

   ID    Z sym.   atoms
    1    6 C      1, 3, 5, 7-10, 13, 15, 16
    2    8 O      2, 4, 14, 17
    3    7 N      6, 11, 12
    4    1 H      18-33

      * Solvation model:               ALPB
        Solvent                        DMSO
        Solvent mass                       7.8130E+01 g/mol
          :  Hamiltonian                  GFN1-xTB          :
 * total energy  :   -57.7905032 Eh     change       -0.2717826E-10 Eh
 * total energy  :   -57.8026404 Eh     change       -0.1213723E-01 Eh
 * total energy  :   -57.8082970 Eh     change       -0.5656611E-02 Eh
 * total energy  :   -57.8096444 Eh     change       -0.1347404E-02 Eh
 * total energy  :   -57.8104529 Eh     change       -0.8084629E-03 Eh
 * total energy  :   -57.8109673 Eh     change       -0.5143665E-03 Eh
 * total energy  :   -57.8114461 Eh     change       -0.4788343E-03 Eh
 * total energy  :   -57.8118605 Eh     change       -0.4143540E-03 Eh
 * total energy  :   -57.8122260 Eh     change       -0.3655150E-03 Eh
 * total energy  :   -57.8124940 Eh     change       -0.2679796E-03 Eh
 * total energy  :   -57.8180489 Eh     change       -0.1151551E-04 Eh
 * total energy  :   -57.8180597 Eh     change       -0.1081410E-04 Eh
 * total energy  :   -57.8180703 Eh     change       -0.1056472E-04 Eh
 * total energy  :   -57.8180761 Eh     change       -0.5779976E-05 Eh
 * total energy  :   -57.8180836 Eh     change       -0.7491701E-05 Eh
 * total energy  :   -57.8180925 Eh     change       -0.8931406E-05 Eh
 * total energy  :   -57.8180956 Eh     change       -0.3124700E-05 Eh
 * total energy  :   -57.8180980 Eh     change       -0.2382778E-05 Eh
 * total energy  :   -57.8181003 Eh     change       -0.2242413E-05 Eh
   *** GEOMETRY OPTIMIZATION CONVERGED AFTER 68 ITERATIONS ***

 final structure:
================
33
 xtb: 6.5.1 (579679a)
C            3.46887054234873        2.67545725852615        1.15858634314658
O            2.41414297086997        1.70188375726498        1.04024622374765
C            2.42521740130097        0.92061421132458       -0.01065750431809
O            3.22233465138742        0.93628346355236       -0.90882648953085
C            1.24265431784680       -0.04129751829106       -0.00409241602172
N            0.05861594602352        0.45860024540346        0.12331563810473
C           -1.01522977737143       -0.37067451063490        0.15618412258682
C           -2.38793886343398        0.20667095938839        0.23651364575886
C           -2.42920838483979        1.33906507647949        1.27642372036450
C           -2.70060341497508        0.76323994622337       -1.16694884661986
N           -3.30403593188854       -0.87272243960192        0.55377402662028
N           -0.88926565773362       -1.68101855907508        0.13993336499866
C            0.34483575548796       -2.37251268916532        0.09921678552323
O            0.40624579412421       -3.54700934926855        0.29233486632069
C            1.49714926819090       -1.47791360668729       -0.32337682647061
C            1.49119600319810       -1.55456418793149       -1.88749657074955
O            2.71507053400291       -1.88911482948932        0.19392759321128
H            4.39640480101790        2.17207180970717        1.43652709516644
H            3.15827242219068        3.36507837014030        1.94002531580401
H            3.59864093721314        3.19612890082037        0.20855390790439
H           -3.43094484206430        1.76233910542889        1.29453037094512
H           -1.71140713136289        2.11352156396389        1.01084595561502
H           -2.18808916703989        0.94940741680146        2.26344995204699
H           -3.67713082542022        1.24287833603699       -1.13900506810050
H           -2.71824810542903       -0.04714667871579       -1.89307669943099
H           -1.94845142946649        1.49462786734836       -1.45832082782190
H           -4.21403976031502       -0.69532133157260        0.15378962178722
H           -3.41070732142631       -0.96130854036694        1.55462659068597
H           -1.75603495432806       -2.20938459453723        0.27399798909778
H            2.32718894870253       -0.96321160473119       -2.25601968391637
H            0.55582622476612       -1.17373380056672       -2.28792034643446
H            1.61989414474521       -2.59646806476288       -2.17212093088020
H            2.83877290367794       -2.84446598301125        0.10105808086146

          :  Hamiltonian                  GFN1-xTB          :
         :: total energy             -57.818100253637 Eh    ::
         :: gradient norm              0.000476410596 Eh/a0 ::
         :: HOMO-LUMO gap              0.793839765229 eV    ::
         :: SCC energy               -58.391723916063 Eh    ::
         :: -> Gsolv                  -0.098484722348 Eh    ::
         :: repulsion energy           0.592728743721 Eh    ::

    * Orbital Energies and Occupations

         #    Occupation            Energy/Eh            Energy/eV
      -------------------------------------------------------------
         1        2.0000           -0.8940802             -24.3292
       ...           ...                  ...                  ...
        35        2.0000           -0.5509953             -14.9933
        36        2.0000           -0.5456863             -14.8489
        37        2.0000           -0.5451755             -14.8350
        38        2.0000           -0.5396460             -14.6845
        39        2.0000           -0.5379037             -14.6371
        40        2.0000           -0.5352229             -14.5642
        41        2.0000           -0.5326563             -14.4943
        42        2.0000           -0.5271938             -14.3457
        43        2.0000           -0.5240616             -14.2604
        44        2.0000           -0.5170982             -14.0710
        45        2.0000           -0.5026244             -13.6771
        46        2.0000           -0.4930354             -13.4162
        47        2.0000           -0.4509416             -12.2707 (HOMO)
        48        0.0000           -0.4217685             -11.4769 (LUMO)
        49                         -0.3472657              -9.4496
        50                         -0.3031152              -8.2482
        51                         -0.2814217              -7.6579
        52                         -0.1554193              -4.2292
        53                         -0.1545290              -4.2049
        54                         -0.1472759              -4.0076
        55                         -0.1443279              -3.9274
        56                         -0.1338161              -3.6413
        57                         -0.1221352              -3.3235
        58                         -0.1172113              -3.1895
       ...                                ...                  ...
       100                          0.7087786              19.2868
      -------------------------------------------------------------
                  HL-Gap            0.0291731 Eh            0.7938 eV

Wiberg/Mayer (AO) data.
largest (>0.10) Wiberg bond orders for each atom

     #   Z sym  total        # sym  WBO       # sym  WBO       # sym  WBO
 ---------------------------------------------------------------------------
     1   6 C    3.841 --    19 H    0.983    20 H    0.979    18 H    0.976
                             2 O    0.867
     2   8 O    2.243 --     3 C    1.176     1 C    0.867     4 O    0.156
     3   6 C    3.863 --     4 O    1.694     2 O    1.176     5 C    0.925
     4   8 O    1.983 --     3 C    1.694     2 O    0.156
     5   6 C    3.903 --     6 N    1.642    15 C    1.007     3 C    0.925
     6   7 N    3.048 --     5 C    1.642     7 C    1.201
     7   6 C    3.865 --    12 N    1.417     6 N    1.201     8 C    1.018
     8   6 C    3.956 --     7 C    1.018    11 N    0.999     9 C    0.953
                            10 C    0.933
     9   6 C    3.981 --    23 H    0.983    22 H    0.982    21 H    0.980
                             8 C    0.953
    10   6 C    3.978 --    25 H    0.984    26 H    0.983    24 H    0.973
                             8 C    0.933
    11   7 N    2.994 --     8 C    0.999    28 H    0.926    27 H    0.923
    12   7 N    3.528 --     7 C    1.417    13 C    1.006    29 H    0.828
    13   6 C    3.858 --    14 O    1.786    12 N    1.006    15 C    0.939
    14   8 O    2.036 --    13 C    1.786
    15   6 C    3.939 --     5 C    1.007    17 O    1.000    13 C    0.939
                            16 C    0.862
    16   6 C    3.961 --    31 H    0.985    30 H    0.972    32 H    0.971
                            15 C    0.862
    17   8 O    1.919 --    15 C    1.000    33 H    0.820
    18   1 H    1.000 --     1 C    0.976
    19   1 H    1.006 --     1 C    0.983
    20   1 H    1.002 --     1 C    0.979
    21   1 H    0.997 --     9 C    0.980
    22   1 H    1.004 --     9 C    0.982
    23   1 H    0.997 --     9 C    0.983
    24   1 H    0.994 --    10 C    0.973
    25   1 H    0.997 --    10 C    0.984
    26   1 H    0.998 --    10 C    0.983
    27   1 H    0.937 --    11 N    0.923
    28   1 H    0.940 --    11 N    0.926
    29   1 H    0.922 --    12 N    0.828
    30   1 H    1.003 --    16 C    0.972
    31   1 H    0.994 --    16 C    0.985
    32   1 H    0.992 --    16 C    0.971
    33   1 H    0.836 --    17 O    0.820
 ---------------------------------------------------------------------------

           -------------------------------------------------
          | TOTAL ENERGY              -57.818100253637 Eh   |
          | GRADIENT NORM               0.000476410596 Eh/α |
          | HOMO-LUMO GAP               0.793839765229 eV   |
           -------------------------------------------------

 * finished run on 2023/06/20 at 15:09:50.356
