   * xtb version 6.5.1 (579679a) compiled by 'ehlert@majestix' on 2022-07-11
          program call               : /lustre/hpc/kemi/ree/PhD/git/ReactivityQM/dep/xtb-6.5.1/bin/xtb --gfn 1 /lustre/hpc/kemi/ree/PhD/git/ReactivityQM/calculations/R03/reac02prodE03/conf04/R03_reac02prodE03_conf04_gfn1.xyz --opt --vfukui --chrg -1 --uhf 0 --alpb DMSO

   ID    Z sym.   atoms
    1    6 C      1, 3, 5, 6, 8-11, 13, 15, 18, 19, 22, 23, 25
    2    8 O      2, 4, 14, 20, 24, 26
    3    7 N      7, 12, 16, 17, 21
    4    1 H      27-46

      * Solvation model:               ALPB
        Solvent                        DMSO
        Solvent mass                       7.8130E+01 g/mol
          :  Hamiltonian                  GFN1-xTB          :
 * total energy  :   -86.9900104 Eh     change       -0.1855938E-10 Eh
 * total energy  :   -87.0053624 Eh     change       -0.1535196E-01 Eh
 * total energy  :   -87.0119316 Eh     change       -0.6569191E-02 Eh
 * total energy  :   -87.0135583 Eh     change       -0.1626767E-02 Eh
 * total energy  :   -87.0144950 Eh     change       -0.9366827E-03 Eh
 * total energy  :   -87.0149510 Eh     change       -0.4559934E-03 Eh
 * total energy  :   -87.0154269 Eh     change       -0.4758759E-03 Eh
 * total energy  :   -87.0159441 Eh     change       -0.5172177E-03 Eh
 * total energy  :   -87.0164008 Eh     change       -0.4567386E-03 Eh
 * total energy  :   -87.0167376 Eh     change       -0.3367804E-03 Eh
 * total energy  :   -87.0208704 Eh     change       -0.1976718E-04 Eh
 * total energy  :   -87.0208849 Eh     change       -0.1448170E-04 Eh
 * total energy  :   -87.0209016 Eh     change       -0.1665027E-04 Eh
 * total energy  :   -87.0209109 Eh     change       -0.9323154E-05 Eh
 * total energy  :   -87.0209229 Eh     change       -0.1197038E-04 Eh
 * total energy  :   -87.0209312 Eh     change       -0.8364673E-05 Eh
 * total energy  :   -87.0209372 Eh     change       -0.6013734E-05 Eh
 * total energy  :   -87.0209438 Eh     change       -0.6550458E-05 Eh
 * total energy  :   -87.0209483 Eh     change       -0.4492514E-05 Eh
   *** GEOMETRY OPTIMIZATION CONVERGED AFTER 64 ITERATIONS ***

 final structure:
================
46
 xtb: 6.5.1 (579679a)
C           -5.99493699850798        0.41348333211548        1.57999454506495
O           -4.94784299768322        0.95879989466483        0.78424142714211
C           -3.66594832894029        0.49406337020955        1.10014123719035
O           -3.28596821178874        0.70008478362804        2.42320346078847
C           -2.58407014185899        1.91373303356630        2.67962290707565
C           -2.81984194163840       -0.03771782485511        0.16629582062336
N           -1.53040697529634       -0.34218567532247        0.62025127218631
C           -0.63568821979113       -0.82312853078412       -0.17244298873054
C            0.71471689133805       -1.13288916055955        0.48465984883933
C            0.69727181606596       -0.64624853118639        1.94194161640182
C            0.99351506844338       -2.64229188956049        0.46485636050204
N            1.75579617135253       -0.38064999809424       -0.23172020363325
C            3.07755275532259       -0.47023477079569        0.04496914639803
O            3.60152122824932       -1.29725369351194        0.77838063673143
C            3.83668740371837        0.56419242244393       -0.69293713090196
N            3.33109898399643        1.46430632208867       -1.48959798937608
N            4.37399542159252        2.21949160269286       -1.94148275243852
C            5.44584368469058        1.73623635616762       -1.39451831788837
C            6.83683084175466        2.21292715653339       -1.56382022556722
O            5.17812301230404        0.69003805764594       -0.59570645713105
N           -0.85869832696377       -1.05654692587194       -1.49528227143424
C            0.10919932932179       -1.62129506666685       -2.42797032084957
C           -2.17316763925584       -0.84223207267792       -2.07772088739013
O           -2.31668468061912       -1.14497532610698       -3.28758773178066
C           -3.11509378697282       -0.31702174086190       -1.20638052704501
O           -4.40542018106649       -0.10703328680424       -1.71782390718472
H           -5.80347421716041        0.58278645197280        2.64551858873377
H           -6.10564784968335       -0.66445341743737        1.40287341322367
H           -6.91538531882190        0.92498198245395        1.29535393447306
H           -1.62147003849233        1.92371637384731        2.15219292741624
H           -2.40610186772231        1.96137044934071        3.75553120837272
H           -3.17214548385359        2.78659840210085        2.37135485244206
H            1.65905324320061       -0.84771019551289        2.41059767845365
H            0.49956577451545        0.42412052218007        1.97736031507413
H           -0.08534417388555       -1.16452986987870        2.49367508620130
H            1.24333483403062       -2.99342632931098       -0.53315551769096
H            1.82169558441181       -2.88364664291079        1.12865970246682
H            0.10495106361649       -3.16887306955305        0.81154977725154
H            1.45580364877890        0.44756033726178       -0.72787988051735
H            7.25600692837858        2.49060128429053       -0.59698785095580
H            7.45619637901906        1.42114433634442       -1.98458915806543
H            6.84890878575912        3.07460227150218       -2.22655792016409
H           -0.05536668367444       -2.69641776440092       -2.54233684939275
H           -0.03012079900986       -1.14733528214240       -3.40239243125100
H            1.12726017966018       -1.44174312213059       -2.09715218522106
H           -4.89610716683006        0.46500344389621       -1.10718225842842

          :  Hamiltonian                  GFN1-xTB          :
         :: total energy             -87.020948281971 Eh    ::
         :: gradient norm              0.000698919671 Eh/a0 ::
         :: HOMO-LUMO gap              0.157693771774 eV    ::
         :: SCC energy               -87.813187995276 Eh    ::
         :: -> Gsolv                  -0.113668739295 Eh    ::
         :: repulsion energy           0.821277593018 Eh    ::

    * Orbital Energies and Occupations

         #    Occupation            Energy/Eh            Energy/eV
      -------------------------------------------------------------
         1        2.0000           -0.8519072             -23.1816
       ...           ...                  ...                  ...
        59        2.0000           -0.4712086             -12.8222
        60        2.0000           -0.4694885             -12.7754
        61        2.0000           -0.4515438             -12.2871
        62        2.0000           -0.4484205             -12.2021
        63        2.0000           -0.4434383             -12.0666
        64        2.0000           -0.4402493             -11.9798
        65        2.0000           -0.4364237             -11.8757
        66        2.0000           -0.4298913             -11.6979
        67        2.0000           -0.4196309             -11.4187
        68        2.0000           -0.3941195             -10.7245
        69        2.0000           -0.3885986             -10.5743
        70        2.0000           -0.3702490             -10.0750
        71        1.9096           -0.3054197              -8.3109 (HOMO)
        72        0.0904           -0.2996246              -8.1532 (LUMO)
        73                         -0.2477611              -6.7419
        74                         -0.2308780              -6.2825
        75                         -0.1942826              -5.2867
        76                         -0.1858604              -5.0575
        77                         -0.1386524              -3.7729
        78                         -0.1210984              -3.2953
        79                         -0.1194159              -3.2495
        80                         -0.1158901              -3.1535
        81                         -0.1082938              -2.9468
        82                         -0.1007243              -2.7408
       ...                                ...                  ...
       144                          0.7240235              19.7017
      -------------------------------------------------------------
                  HL-Gap            0.0057951 Eh            0.1577 eV

Wiberg/Mayer (AO) data.
largest (>0.10) Wiberg bond orders for each atom

     #   Z sym  total        # sym  WBO       # sym  WBO       # sym  WBO
 ---------------------------------------------------------------------------
     1   6 C    3.909 --    29 H    0.986    28 H    0.983    27 H    0.982
                             2 O    0.931
     2   8 O    2.048 --     3 C    0.934     1 C    0.931
     3   6 C    3.708 --     6 C    1.514     4 O    0.949     2 O    0.934
     4   8 O    2.015 --     3 C    0.949     5 C    0.930
     5   6 C    3.913 --    31 H    0.986    32 H    0.983    30 H    0.981
                             4 O    0.930
     6   6 C    3.952 --     3 C    1.514    25 C    1.171     7 N    1.080
     7   7 N    3.006 --     8 C    1.603     6 C    1.080    21 N    0.136
     8   6 C    3.947 --     7 N    1.603    21 N    1.195     9 C    0.965
     9   6 C    3.930 --    10 C    0.991    11 C    0.990     8 C    0.965
                            12 N    0.914
    10   6 C    3.993 --     9 C    0.991    35 H    0.984    33 H    0.984
                            34 H    0.984
    11   6 C    3.992 --     9 C    0.990    38 H    0.986    36 H    0.981
                            37 H    0.980
    12   7 N    3.330 --    13 C    1.237     9 C    0.914    39 H    0.901
                            14 O    0.169
    13   6 C    3.889 --    14 O    1.568    12 N    1.237    15 C    1.004
    14   8 O    1.872 --    13 C    1.568    12 N    0.169
    15   6 C    3.837 --    16 N    1.581    20 O    1.050    13 C    1.004
    16   7 N    2.969 --    15 C    1.581    17 N    1.193
    17   7 N    2.980 --    18 C    1.613    16 N    1.193
    18   6 C    3.863 --    17 N    1.613    20 O    1.077    19 C    1.030
    19   6 C    3.988 --    18 C    1.030    42 H    0.983    40 H    0.965
                            41 H    0.965
    20   8 O    2.305 --    18 C    1.077    15 C    1.050
    21   7 N    3.397 --     8 C    1.195    22 C    0.954    23 C    0.938
                             7 N    0.136
    22   6 C    3.954 --    43 H    0.980    45 H    0.980    44 H    0.977
                            21 N    0.954
    23   6 C    3.897 --    24 O    1.413    25 C    1.378    21 N    0.938
    24   8 O    1.734 --    23 C    1.413    25 C    0.129
    25   6 C    3.811 --    23 C    1.378     6 C    1.171    26 O    0.968
                            24 O    0.129
    26   8 O    1.930 --    25 C    0.968    46 H    0.848
    27   1 H    1.020 --     1 C    0.982
    28   1 H    1.014 --     1 C    0.983
    29   1 H    1.018 --     1 C    0.986
    30   1 H    1.027 --     5 C    0.981
    31   1 H    1.019 --     5 C    0.986
    32   1 H    1.014 --     5 C    0.983
    33   1 H    1.008 --    10 C    0.984
    34   1 H    1.018 --    10 C    0.984
    35   1 H    1.017 --    10 C    0.984
    36   1 H    1.005 --    11 C    0.981
    37   1 H    1.015 --    11 C    0.980
    38   1 H    1.005 --    11 C    0.986
    39   1 H    0.962 --    12 N    0.901
    40   1 H    0.997 --    19 C    0.965
    41   1 H    0.997 --    19 C    0.965
    42   1 H    1.000 --    19 C    0.983
    43   1 H    1.009 --    22 C    0.980
    44   1 H    1.021 --    22 C    0.977
    45   1 H    1.014 --    22 C    0.980
    46   1 H    0.898 --    26 O    0.848
 ---------------------------------------------------------------------------

           -------------------------------------------------
          | TOTAL ENERGY              -87.020948281971 Eh   |
          | GRADIENT NORM               0.000698919671 Eh/α |
          | HOMO-LUMO GAP               0.157693771774 eV   |
           -------------------------------------------------

 * finished run on 2023/06/20 at 15:17:36.620
