   * xtb version 6.5.1 (579679a) compiled by 'ehlert@majestix' on 2022-07-11
          program call               : /lustre/hpc/kemi/ree/PhD/git/ReactivityQM/dep/xtb-6.5.1/bin/xtb --gfn 1 /lustre/hpc/kemi/ree/PhD/git/ReactivityQM/calculations/R01/reac02prodE08/conf02/R01_reac02prodE08_conf02_gfn1.xyz --opt --vfukui --chrg -1 --uhf 0 --alpb DMSO

   ID    Z sym.   atoms
    1    6 C      1, 3, 5, 7-10, 13, 15, 16
    2    8 O      2, 4, 14, 17
    3    7 N      6, 11, 12
    4    1 H      18-33

      * Solvation model:               ALPB
        Solvent                        DMSO
        Solvent mass                       7.8130E+01 g/mol
          :  Hamiltonian                  GFN1-xTB          :
 * total energy  :   -58.5560569 Eh     change       -0.9102052E-11 Eh
 * total energy  :   -58.5666808 Eh     change       -0.1062397E-01 Eh
 * total energy  :   -58.5701785 Eh     change       -0.3497700E-02 Eh
 * total energy  :   -58.5705228 Eh     change       -0.3443165E-03 Eh
 * total energy  :   -58.5707559 Eh     change       -0.2330460E-03 Eh
 * total energy  :   -58.5708805 Eh     change       -0.1246259E-03 Eh
 * total energy  :   -58.5710530 Eh     change       -0.1725225E-03 Eh
 * total energy  :   -58.5711711 Eh     change       -0.1180140E-03 Eh
 * total energy  :   -58.5712362 Eh     change       -0.6519224E-04 Eh
 * total energy  :   -58.5712784 Eh     change       -0.4219136E-04 Eh
 * total energy  :   -58.5718399 Eh     change       -0.2411073E-04 Eh
 * total energy  :   -58.5718595 Eh     change       -0.1951186E-04 Eh
 * total energy  :   -58.5718897 Eh     change       -0.3023286E-04 Eh
 * total energy  :   -58.5719021 Eh     change       -0.1243935E-04 Eh
 * total energy  :   -58.5719246 Eh     change       -0.2248863E-04 Eh
 * total energy  :   -58.5719313 Eh     change       -0.6704252E-05 Eh
 * total energy  :   -58.5719292 Eh     change        0.2168915E-05 Eh
 * total energy  :   -58.5719360 Eh     change       -0.6805094E-05 Eh
 * total energy  :   -58.5719387 Eh     change       -0.2704043E-05 Eh
   *** GEOMETRY OPTIMIZATION CONVERGED AFTER 29 ITERATIONS ***

 final structure:
================
33
 xtb: 6.5.1 (579679a)
C            4.34790382130102        1.84442915231865        0.38577310363633
O            3.37374696115416        0.85569882188891        0.11647482912625
C            2.04962119630597        1.30750238213575        0.12614317333307
O            1.83172769807946        2.50683727330898        0.37126209217185
C            1.09533679470246        0.31166102401606       -0.14491729490328
N           -0.21803633878548        0.69980800411382       -0.06020256470473
C           -1.18892987694854       -0.10927741382176       -0.25392038736599
C           -2.63651389782998        0.29110671130987       -0.06343770806367
C           -3.05732317382437       -0.01468883629694        1.38304521550810
C           -2.80814276507444        1.78759855380684       -0.36097089556850
N           -3.46606781941421       -0.52216347505661       -0.95805073057036
N           -0.97344337753213       -1.45906153729678       -0.61351503201942
C            0.24387687582010       -1.96561338330378       -0.85850762789041
O            0.39890930465366       -3.06781913594346       -1.39151701086579
C            1.46280181409161       -1.13767174450237       -0.41628420166890
C            2.03465432647478       -1.83463544055207        0.84307962315976
O            2.42053521476770       -1.23366814364884       -1.47541766495702
H            4.21649396848669        2.27177348301427        1.38787306637405
H            5.32503214421912        1.36215368502095        0.32804784801971
H            4.30295458936899        2.65998242610622       -0.34702517781788
H           -2.42323727345546        0.53319156251736        2.08005973767318
H           -2.95913861973480       -1.08190898921305        1.58008847441577
H           -4.09385618943778        0.27752718576119        1.54732052750043
H           -2.13837211618229        2.36985138244394        0.27353471157134
H           -2.56563035251477        1.99085318865976       -1.40380529029514
H           -3.83591899607686        2.09375447747272       -0.17430202331635
H           -4.43281843649284       -0.45571406086435       -0.67662267798963
H           -3.40429168611583       -0.16528258853237       -1.90260683766031
H           -1.78445213485685       -1.98595222984037       -0.90646817598829
H            2.21296601210866       -2.88879387062935        0.63411597953950
H            2.97435458614107       -1.36485959262823        1.12665300092634
H            1.32580713223424       -1.74775214480882        1.66493929446837
H            2.36945061436629       -2.12886472695778       -1.84084037578227

          :  Hamiltonian                  GFN1-xTB          :
         :: total energy             -58.571938662776 Eh    ::
         :: gradient norm              0.000331410290 Eh/a0 ::
         :: HOMO-LUMO gap              2.294383449340 eV    ::
         :: SCC energy               -59.115414948719 Eh    ::
         :: -> Gsolv                  -0.112717036509 Eh    ::
         :: repulsion energy           0.562431444695 Eh    ::

    * Orbital Energies and Occupations

         #    Occupation            Energy/Eh            Energy/eV
      -------------------------------------------------------------
         1        2.0000           -0.7806654             -21.2430
       ...           ...                  ...                  ...
        36        2.0000           -0.4837556             -13.1637
        37        2.0000           -0.4779357             -13.0053
        38        2.0000           -0.4655992             -12.6696
        39        2.0000           -0.4636587             -12.6168
        40        2.0000           -0.4594536             -12.5024
        41        2.0000           -0.4447467             -12.1022
        42        2.0000           -0.4404083             -11.9841
        43        2.0000           -0.4218640             -11.4795
        44        2.0000           -0.4144259             -11.2771
        45        2.0000           -0.4009426             -10.9102
        46        2.0000           -0.3981573             -10.8344
        47        2.0000           -0.3819980             -10.3947
        48        2.0000           -0.3240220              -8.8171 (HOMO)
        49                         -0.2397050              -6.5227 (LUMO)
        50                         -0.1942162              -5.2849
        51                         -0.1378774              -3.7518
        52                         -0.1126987              -3.0667
        53                         -0.1114320              -3.0322
        54                         -0.1072337              -2.9180
        55                         -0.0960817              -2.6145
        56                         -0.0880793              -2.3968
        57                         -0.0699336              -1.9030
        58                         -0.0599782              -1.6321
        59                         -0.0587898              -1.5998
       ...                                ...                  ...
       100                          0.7007046              19.0671
      -------------------------------------------------------------
                  HL-Gap            0.0843170 Eh            2.2944 eV

Wiberg/Mayer (AO) data.
largest (>0.10) Wiberg bond orders for each atom

     #   Z sym  total        # sym  WBO       # sym  WBO       # sym  WBO
 ---------------------------------------------------------------------------
     1   6 C    3.916 --    19 H    0.987    18 H    0.981    20 H    0.981
                             2 O    0.946
     2   8 O    2.092 --     3 C    0.951     1 C    0.946
     3   6 C    3.867 --     4 O    1.470     5 C    1.317     2 O    0.951
     4   8 O    1.774 --     3 C    1.470     5 C    0.114
     5   6 C    3.850 --     3 C    1.317     6 N    1.189    15 C    0.974
                             4 O    0.114     7 C    0.102
     6   7 N    3.049 --     7 C    1.637     5 C    1.189
     7   6 C    3.906 --     6 N    1.637    12 N    0.990     8 C    0.981
                             5 C    0.102
     8   6 C    3.965 --    10 C    0.990     9 C    0.985     7 C    0.981
                            11 N    0.977
     9   6 C    3.992 --    21 H    0.987    22 H    0.986    23 H    0.985
                             8 C    0.985
    10   6 C    3.996 --     8 C    0.990    26 H    0.988    25 H    0.985
                            24 H    0.983
    11   7 N    2.975 --     8 C    0.977    28 H    0.946    27 H    0.946
    12   7 N    3.404 --    13 C    1.262     7 C    0.990    29 H    0.891
                            14 O    0.143
    13   6 C    3.887 --    14 O    1.550    12 N    1.262    15 C    0.936
    14   8 O    1.850 --    13 C    1.550    12 N    0.143
    15   6 C    3.909 --     5 C    0.974    16 C    0.963    13 C    0.936
                            17 O    0.934
    16   6 C    3.996 --    32 H    0.988    30 H    0.986    31 H    0.983
                            15 C    0.963
    17   8 O    1.884 --    15 C    0.934    33 H    0.861
    18   1 H    1.019 --     1 C    0.981
    19   1 H    1.019 --     1 C    0.987
    20   1 H    1.020 --     1 C    0.981
    21   1 H    1.009 --     9 C    0.987
    22   1 H    1.007 --     9 C    0.986
    23   1 H    1.002 --     9 C    0.985
    24   1 H    1.017 --    10 C    0.983
    25   1 H    1.009 --    10 C    0.985
    26   1 H    1.006 --    10 C    0.988
    27   1 H    0.961 --    11 N    0.946
    28   1 H    0.962 --    11 N    0.946
    29   1 H    0.968 --    12 N    0.891
    30   1 H    1.010 --    16 C    0.986
    31   1 H    1.021 --    16 C    0.983
    32   1 H    1.012 --    16 C    0.988
    33   1 H    0.897 --    17 O    0.861
 ---------------------------------------------------------------------------

           -------------------------------------------------
          | TOTAL ENERGY              -58.571938662776 Eh   |
          | GRADIENT NORM               0.000331410290 Eh/α |
          | HOMO-LUMO GAP               2.294383449340 eV   |
           -------------------------------------------------

 * finished run on 2023/06/20 at 15:02:09.257
