   * xtb version 6.5.1 (579679a) compiled by 'ehlert@majestix' on 2022-07-11
          program call               : /lustre/hpc/kemi/ree/PhD/git/ReactivityQM/dep/xtb-6.5.1/bin/xtb --gfn 1 /lustre/hpc/kemi/ree/PhD/git/ReactivityQM/calculations/R02oxygendeprot/reac01prodE07/conf15/R02oxygendeprot_reac01prodE07_conf15_gfn1.xyz --opt --vfukui --chrg -2 --uhf 0 --alpb DMSO

   ID    Z sym.   atoms
    1    6 C      1, 3, 5, 7-10, 12, 14, 15, 18, 19, 22, 24
    2    8 O      2, 4, 13, 20, 23, 25
    3    7 N      6, 11, 16, 17, 21
    4    1 H      26-42

      * Solvation model:               ALPB
        Solvent                        DMSO
        Solvent mass                       7.8130E+01 g/mol
          :  Hamiltonian                  GFN1-xTB          :
 * total energy  :   -83.5818616 Eh     change       -0.1477929E-11 Eh
 * total energy  :   -83.5968939 Eh     change       -0.1503237E-01 Eh
 * total energy  :   -83.6035865 Eh     change       -0.6692558E-02 Eh
 * total energy  :   -83.6049080 Eh     change       -0.1321487E-02 Eh
 * total energy  :   -83.6059259 Eh     change       -0.1017879E-02 Eh
 * total energy  :   -83.6064187 Eh     change       -0.4928460E-03 Eh
 * total energy  :   -83.6068408 Eh     change       -0.4220727E-03 Eh
 * total energy  :   -83.6071324 Eh     change       -0.2916188E-03 Eh
 * total energy  :   -83.6073864 Eh     change       -0.2540286E-03 Eh
 * total energy  :   -83.6076677 Eh     change       -0.2812404E-03 Eh
 * total energy  :   -83.6156380 Eh     change       -0.2604783E-04 Eh
 * total energy  :   -83.6156599 Eh     change       -0.2192968E-04 Eh
 * total energy  :   -83.6156748 Eh     change       -0.1484785E-04 Eh
 * total energy  :   -83.6156902 Eh     change       -0.1542063E-04 Eh
 * total energy  :   -83.6157071 Eh     change       -0.1692709E-04 Eh
 * total energy  :   -83.6157245 Eh     change       -0.1739654E-04 Eh
 * total energy  :   -83.6157406 Eh     change       -0.1605024E-04 Eh
 * total energy  :   -83.6157584 Eh     change       -0.1783634E-04 Eh
 * total energy  :   -83.6157634 Eh     change       -0.4949396E-05 Eh
   *** GEOMETRY OPTIMIZATION CONVERGED AFTER 68 ITERATIONS ***

 final structure:
================
42
 xtb: 6.5.1 (579679a)
C            6.56869708794474        1.20004010830085       -1.43101604084347
O            5.57563691975610        1.14944851857579       -0.41960739791130
C            4.37995451076007        0.61556375272481       -0.79433673654944
O            4.21497050520246        0.22404503639524       -1.94626711092467
C            3.38031683230130        0.55544179977024        0.25683437700271
N            2.18440382850901        0.00281664007741       -0.17628387718120
C            1.19965987725135       -0.12867297698206        0.63401372297708
C           -0.10076836644635       -0.77801402813501        0.20371934795673
C           -0.35239013227688       -0.50267511761936       -1.28615052247289
C            0.02284448577017       -2.28837354797688        0.45540036844101
N           -1.17459646866418       -0.22412125658189        1.05179779579924
C           -2.49067884793113       -0.76910303513397        0.79095630407861
O           -2.83982308717298       -1.84328748389586        1.66319314227221
C           -3.56569217043618       -2.88155192317935        1.03947077481365
C           -3.46557662837619        0.00275159482832        0.21635600567929
N           -4.79195683814040       -0.25538370442205        0.09258553144837
N           -5.30161743109051        0.75437555330605       -0.70308571562571
C           -4.33603753954705        1.53989494522264       -1.02041984692077
C           -4.40422618669472        2.76797591521538       -1.85826775860663
O           -3.12472438192529        1.15185632220177       -0.49123944601624
N            1.29189818280494        0.25095358537167        1.95579082683683
C            2.40298531511485        0.80970832194643        2.51713080075344
O            2.40077002462950        1.12446283805336        3.70960928036754
C            3.58387847904194        0.99448701284509        1.59059435487728
O            4.62757798592310        1.50298364701807        2.05090372736491
H            6.22780084161824        1.79638538846293       -2.28364643500717
H            6.81578872400745        0.19370408932479       -1.78481054963322
H            7.45258892044816        1.66087973443881       -0.99156893601508
H           -1.25144844496563       -1.02473213468896       -1.61276279464890
H           -0.48751020317060        0.56619291154033       -1.45099999963767
H            0.49765132112228       -0.84663713389163       -1.87544574547353
H            0.91968668897243       -2.67445238640998       -0.02848066238963
H            0.08233160408598       -2.48325602532927        1.52633033054409
H           -0.84293964462801       -2.81104426301437        0.05135254112941
H           -1.21704732470078        0.77854862510218        0.86490281408720
H           -3.68288159517817       -3.68732861859751        1.76912317148326
H           -3.03923793621726       -3.27543095698125        0.15699059997875
H           -4.56284088757598       -2.53982317668740        0.72092371212707
H           -4.08891368321337        3.64469301108248       -1.28935900822477
H           -5.42818966988034        2.91514315315783       -2.19597814406332
H           -3.75237874297349        2.68097188394517       -2.72930406483279
H            0.47203407597549        0.13056338064750        2.53760126296224

          :  Hamiltonian                  GFN1-xTB          :
         :: total energy             -83.615763353606 Eh    ::
         :: gradient norm              0.000336582458 Eh/a0 ::
         :: HOMO-LUMO gap              0.466219210657 eV    ::
         :: SCC energy               -84.347133902082 Eh    ::
         :: -> Gsolv                  -0.255848809532 Eh    ::
         :: repulsion energy           0.757311243606 Eh    ::

    * Orbital Energies and Occupations

         #    Occupation            Energy/Eh            Energy/eV
      -------------------------------------------------------------
         1        2.0000           -0.7902162             -21.5029
       ...           ...                  ...                  ...
        56        2.0000           -0.4421076             -12.0304
        57        2.0000           -0.4272382             -11.6257
        58        2.0000           -0.4250157             -11.5653
        59        2.0000           -0.4236579             -11.5283
        60        2.0000           -0.4131062             -11.2412
        61        2.0000           -0.4006403             -10.9020
        62        2.0000           -0.3942907             -10.7292
        63        2.0000           -0.3792540             -10.3200
        64        2.0000           -0.3714852             -10.1086
        65        2.0000           -0.3659481              -9.9580
        66        2.0000           -0.3620943              -9.8531
        67        2.0000           -0.3522507              -9.5852
        68        1.9998           -0.2761862              -7.5154 (HOMO)
        69        0.0002           -0.2590529              -7.0492 (LUMO)
        70                         -0.2206330              -6.0037
        71                         -0.1860057              -5.0615
        72                         -0.1797877              -4.8923
        73                         -0.1369600              -3.7269
        74                         -0.1177755              -3.2048
        75                         -0.1119536              -3.0464
        76                         -0.1041554              -2.8342
        77                         -0.0967367              -2.6323
        78                         -0.0926805              -2.5220
        79                         -0.0903810              -2.4594
       ...                                ...                  ...
       134                          0.7574606              20.6116
      -------------------------------------------------------------
                  HL-Gap            0.0171332 Eh            0.4662 eV

Wiberg/Mayer (AO) data.
largest (>0.10) Wiberg bond orders for each atom

     #   Z sym  total        # sym  WBO       # sym  WBO       # sym  WBO
 ---------------------------------------------------------------------------
     1   6 C    3.903 --    28 H    0.987    27 H    0.980    26 H    0.980
                             2 O    0.930
     2   8 O    2.153 --     3 C    1.036     1 C    0.930     4 O    0.107
     3   6 C    3.848 --     4 O    1.567     5 C    1.126     2 O    1.036
     4   8 O    1.844 --     3 C    1.567     2 O    0.107
     5   6 C    3.919 --    24 C    1.279     6 N    1.145     3 C    1.126
                            25 O    0.130
     6   7 N    3.020 --     7 C    1.632     5 C    1.145
     7   6 C    3.926 --     6 N    1.632    21 N    1.098     8 C    0.979
     8   6 C    3.972 --     9 C    0.988    10 C    0.982     7 C    0.979
                            11 N    0.961
     9   6 C    3.996 --     8 C    0.988    30 H    0.985    29 H    0.985
                            31 H    0.985
    10   6 C    3.994 --    32 H    0.988    33 H    0.986     8 C    0.982
                            34 H    0.979
    11   7 N    3.038 --    12 C    0.963     8 C    0.961    35 H    0.943
    12   6 C    3.683 --    15 C    1.479    11 N    0.963    13 O    0.903
                            16 N    0.151
    13   8 O    2.000 --    14 C    0.961    12 C    0.903
    14   6 C    3.932 --    36 H    0.985    37 H    0.976    38 H    0.975
                            13 O    0.961
    15   6 C    3.862 --    12 C    1.479    16 N    1.282    20 O    0.954
    16   7 N    2.823 --    15 C    1.282    17 N    1.147    12 C    0.151
                            18 C    0.119
    17   7 N    2.987 --    18 C    1.678    16 N    1.147
    18   6 C    3.885 --    17 N    1.678    19 C    1.018    20 O    0.990
                            16 N    0.119
    19   6 C    3.996 --    18 C    1.018    40 H    0.987    41 H    0.976
                            39 H    0.975
    20   8 O    2.180 --    18 C    0.990    15 C    0.954
    21   7 N    3.440 --    22 C    1.180     7 C    1.098    42 H    0.889
                            23 O    0.136
    22   6 C    3.884 --    23 O    1.556    21 N    1.180    24 C    0.973
    23   8 O    1.837 --    22 C    1.556    21 N    0.136
    24   6 C    3.944 --    25 O    1.503     5 C    1.279    22 C    0.973
    25   8 O    1.808 --    24 C    1.503     5 C    0.130
    26   1 H    1.015 --     1 C    0.980
    27   1 H    1.015 --     1 C    0.980
    28   1 H    1.016 --     1 C    0.987
    29   1 H    1.016 --     9 C    0.985
    30   1 H    1.013 --     9 C    0.985
    31   1 H    1.018 --     9 C    0.985
    32   1 H    1.009 --    10 C    0.988
    33   1 H    1.013 --    10 C    0.986
    34   1 H    1.013 --    10 C    0.979
    35   1 H    0.980 --    11 N    0.943
    36   1 H    1.023 --    14 C    0.985
    37   1 H    1.026 --    14 C    0.976
    38   1 H    1.048 --    14 C    0.975
    39   1 H    1.007 --    19 C    0.975
    40   1 H    1.008 --    19 C    0.987
    41   1 H    1.007 --    19 C    0.976
    42   1 H    0.968 --    21 N    0.889
 ---------------------------------------------------------------------------

           -------------------------------------------------
          | TOTAL ENERGY              -83.615763353606 Eh   |
          | GRADIENT NORM               0.000336582458 Eh/α |
          | HOMO-LUMO GAP               0.466219210657 eV   |
           -------------------------------------------------

 * finished run on 2023/06/21 at 17:08:42.649
