   * xtb version 6.5.1 (579679a) compiled by 'ehlert@majestix' on 2022-07-11
          program call               : /lustre/hpc/kemi/ree/PhD/git/ReactivityQM/dep/xtb-6.5.1/bin/xtb --gfn 1 /lustre/hpc/kemi/ree/PhD/git/ReactivityQM/calculations/R02deprot/reac01prodE04/conf15/R02deprot_reac01prodE04_conf15_gfn1.xyz --opt --vfukui --chrg -2 --uhf 0 --alpb DMSO

   ID    Z sym.   atoms
    1    6 C      1, 3, 5, 6, 8-11, 13, 15, 18, 19, 22, 24
    2    8 O      2, 4, 14, 20, 23, 25
    3    7 N      7, 12, 16, 17, 21
    4    1 H      26-42

      * Solvation model:               ALPB
        Solvent                        DMSO
        Solvent mass                       7.8130E+01 g/mol
          :  Hamiltonian                  GFN1-xTB          :
 * total energy  :   -83.5703857 Eh     change       -0.8483880E-11 Eh
 * total energy  :   -83.5877406 Eh     change       -0.1735488E-01 Eh
 * total energy  :   -83.5943079 Eh     change       -0.6567306E-02 Eh
 * total energy  :   -83.5956368 Eh     change       -0.1328934E-02 Eh
 * total energy  :   -83.5962684 Eh     change       -0.6315940E-03 Eh
 * total energy  :   -83.5964598 Eh     change       -0.1913774E-03 Eh
 * total energy  :   -83.5965442 Eh     change       -0.8444307E-04 Eh
 * total energy  :   -83.5966045 Eh     change       -0.6026355E-04 Eh
 * total energy  :   -83.5966650 Eh     change       -0.6051957E-04 Eh
 * total energy  :   -83.5967373 Eh     change       -0.7229589E-04 Eh
 * total energy  :   -83.6020526 Eh     change       -0.8867949E-05 Eh
 * total energy  :   -83.6020619 Eh     change       -0.9268783E-05 Eh
 * total energy  :   -83.6020711 Eh     change       -0.9262575E-05 Eh
 * total energy  :   -83.6020803 Eh     change       -0.9175882E-05 Eh
 * total energy  :   -83.6020894 Eh     change       -0.9073306E-05 Eh
 * total energy  :   -83.6020981 Eh     change       -0.8753529E-05 Eh
 * total energy  :   -83.6021062 Eh     change       -0.8092045E-05 Eh
 * total energy  :   -83.6021136 Eh     change       -0.7335197E-05 Eh
 * total energy  :   -83.6021169 Eh     change       -0.3336841E-05 Eh
   *** GEOMETRY OPTIMIZATION CONVERGED AFTER 94 ITERATIONS ***

 final structure:
================
42
 xtb: 6.5.1 (579679a)
C           -5.90138540724597       -0.79744414852242        1.36096327460766
O           -5.07035611050078       -0.01353149164029        0.51632057208798
C           -3.78146911106246       -0.43129154814393        0.38122070820610
O           -3.39071695156158       -1.44787912172280        0.93429432090653
C           -2.90217838959541        0.59391895797420       -0.35518593096875
C           -3.69278139083685        1.29707337812672       -1.47695722655974
N           -1.74648471800029       -0.07275791189657       -0.92537891739156
C           -0.60411525917188        0.03760482936895       -0.28793883176514
C            0.53399201870953       -0.77751024779921       -0.93245456585662
C            0.59720226881353       -0.47477461965801       -2.43626074566610
C            0.25920338613069       -2.27148453256871       -0.69831237586437
N            1.77973620227244       -0.38558249300780       -0.28481051004627
C            3.00628718530279       -0.83732937404598       -0.60649070682974
O            3.24446958860470       -1.69109339892762       -1.47331356186804
C            4.05386878652018       -0.19231296473670        0.19323030975857
N            3.87997503269837        0.71353234014002        1.13081864043080
N            5.12401183701714        1.04551246139791        1.59181835380962
C            5.97428618400486        0.33702232356380        0.92217400634526
C            7.45058563375365        0.34415881893535        1.05225002626539
O            5.37942729286100       -0.47049026172835        0.02136754902161
N           -0.27632602936106        0.71721430528111        0.79972515220371
C           -1.26528967174386        1.53848632521195        1.36037952666837
O           -0.99409784586124        2.31447871736984        2.33455254953055
C           -2.52617650015806        1.50700729440084        0.77040211187821
O           -3.52979532203961        2.36891470078373        1.26832261688445
H           -5.49641175768462       -0.84167161051373        2.37749781189749
H           -6.88208904682615       -0.32368410318683        1.37580386036038
H           -5.99329629942942       -1.81746224188681        0.97354721826022
H           -4.05007391912736        0.56424900167445       -2.20012622345070
H           -4.54303240476499        1.84024029411843       -1.06707840940052
H           -3.03574179201800        2.00069405648956       -1.98778762058522
H           -0.38927503569576       -0.64059119046213       -2.87020851505487
H            1.31911922188773       -1.11800551742597       -2.93806909738155
H            0.87983056978785        0.56599090190053       -2.59710317942147
H            0.99883350116347       -2.88955502926245       -1.20667760271450
H            0.28606411996452       -2.49479997582382        0.36894661637646
H           -0.73214638593000       -2.51159348319492       -1.08376398036331
H            1.66913637193369        0.30955417271033        0.45876155158033
H            7.91084095610099        0.61564281271538        0.10246948828797
H            7.74579423623484        1.06134731394811        1.81394540153309
H            7.81109845175652       -0.64626407432796        1.32920332498633
H           -3.10052549688607        2.86101433438735        1.98990400930515

          :  Hamiltonian                  GFN1-xTB          :
         :: total energy             -83.602116901911 Eh    ::
         :: gradient norm              0.000165369587 Eh/a0 ::
         :: HOMO-LUMO gap              0.094632958720 eV    ::
         :: SCC energy               -84.327355151572 Eh    ::
         :: -> Gsolv                  -0.280057589174 Eh    ::
         :: repulsion energy           0.751369305508 Eh    ::

    * Orbital Energies and Occupations

         #    Occupation            Energy/Eh            Energy/eV
      -------------------------------------------------------------
         1        2.0000           -0.8249489             -22.4480
       ...           ...                  ...                  ...
        56        2.0000           -0.4388028             -11.9404
        57        2.0000           -0.4315415             -11.7428
        58        2.0000           -0.4234603             -11.5229
        59        2.0000           -0.4230249             -11.5111
        60        2.0000           -0.4185920             -11.3905
        61        2.0000           -0.4080099             -11.1025
        62        2.0000           -0.4031739             -10.9709
        63        2.0000           -0.3927753             -10.6880
        64        2.0000           -0.3824146             -10.4060
        65        2.0000           -0.3485990              -9.4859
        66        2.0000           -0.3242977              -8.8246
        67        2.0000           -0.3223134              -8.7706
        68        1.7236           -0.2765147              -7.5243 (HOMO)
        69        0.2764           -0.2730370              -7.4297 (LUMO)
        70                         -0.2268844              -6.1738
        71                         -0.2124841              -5.7820
        72                         -0.1686591              -4.5894
        73                         -0.1545145              -4.2046
        74                         -0.1313036              -3.5730
        75                         -0.1201044              -3.2682
        76                         -0.0948181              -2.5801
        77                         -0.0895443              -2.4366
        78                         -0.0876915              -2.3862
        79                         -0.0791104              -2.1527
       ...                                ...                  ...
       134                          0.7102279              19.3263
      -------------------------------------------------------------
                  HL-Gap            0.0034777 Eh            0.0946 eV

Wiberg/Mayer (AO) data.
largest (>0.10) Wiberg bond orders for each atom

     #   Z sym  total        # sym  WBO       # sym  WBO       # sym  WBO
 ---------------------------------------------------------------------------
     1   6 C    3.901 --    27 H    0.987    28 H    0.981    26 H    0.981
                             2 O    0.924
     2   8 O    2.153 --     3 C    1.041     1 C    0.924     4 O    0.108
     3   6 C    3.769 --     4 O    1.613     2 O    1.041     5 C    0.912
     4   8 O    1.867 --     3 C    1.613     2 O    0.108
     5   6 C    3.973 --     7 N    0.994     6 C    0.974    24 C    0.965
                             3 C    0.912
     6   6 C    3.982 --    29 H    0.988    31 H    0.987    30 H    0.987
                             5 C    0.974
     7   7 N    2.863 --     8 C    1.492     5 C    0.994    21 N    0.175
     8   6 C    3.958 --     7 N    1.492    21 N    1.398     9 C    0.951
     9   6 C    3.925 --    10 C    0.989    11 C    0.984     8 C    0.951
                            12 N    0.927
    10   6 C    3.994 --     9 C    0.989    34 H    0.987    33 H    0.985
                            32 H    0.983
    11   6 C    3.994 --    36 H    0.987    37 H    0.986    35 H    0.985
                             9 C    0.984
    12   7 N    3.316 --    13 C    1.255     9 C    0.927    38 H    0.875
                            14 O    0.164
    13   6 C    3.855 --    14 O    1.488    12 N    1.255    15 C    1.040
    14   8 O    1.774 --    13 C    1.488    12 N    0.164
    15   6 C    3.752 --    16 N    1.516    13 C    1.040    20 O    1.016
    16   7 N    2.872 --    15 C    1.516    17 N    1.185
    17   7 N    2.980 --    18 C    1.625    16 N    1.185
    18   6 C    3.846 --    17 N    1.625    20 O    1.065    19 C    1.026
    19   6 C    3.992 --    18 C    1.026    40 H    0.985    39 H    0.969
                            41 H    0.969
    20   8 O    2.247 --    18 C    1.065    15 C    1.016
    21   7 N    2.899 --     8 C    1.398    22 C    1.082     7 N    0.175
    22   6 C    3.913 --    24 C    1.355    23 O    1.354    21 N    1.082
    23   8 O    1.650 --    22 C    1.354    24 C    0.106
    24   6 C    3.612 --    22 C    1.355     5 C    0.965    25 O    0.951
                            23 O    0.106
    25   8 O    1.896 --    24 C    0.951    42 H    0.854
    26   1 H    1.013 --     1 C    0.981
    27   1 H    1.016 --     1 C    0.987
    28   1 H    1.015 --     1 C    0.981
    29   1 H    1.013 --     6 C    0.988
    30   1 H    1.018 --     6 C    0.987
    31   1 H    1.018 --     6 C    0.987
    32   1 H    1.030 --    10 C    0.983
    33   1 H    1.017 --    10 C    0.985
    34   1 H    1.010 --    10 C    0.987
    35   1 H    1.016 --    11 C    0.985
    36   1 H    1.010 --    11 C    0.987
    37   1 H    1.021 --    11 C    0.986
    38   1 H    1.001 --    12 N    0.875
    39   1 H    1.000 --    19 C    0.969
    40   1 H    1.002 --    19 C    0.985
    41   1 H    1.000 --    19 C    0.969
    42   1 H    0.906 --    25 O    0.854
 ---------------------------------------------------------------------------

           -------------------------------------------------
          | TOTAL ENERGY              -83.602116901911 Eh   |
          | GRADIENT NORM               0.000165369587 Eh/α |
          | HOMO-LUMO GAP               0.094632958720 eV   |
           -------------------------------------------------

 * finished run on 2023/06/20 at 17:37:32.863
