   * xtb version 6.5.1 (579679a) compiled by 'ehlert@majestix' on 2022-07-11
          program call               : /lustre/hpc/kemi/ree/PhD/git/ReactivityQM/dep/xtb-6.5.1/bin/xtb --gfn 1 /lustre/hpc/kemi/ree/PhD/git/ReactivityQM/calculations/RaltegravirCLI/reac01prodE05/conf04/RaltegravirCLI_reac01prodE05_conf04_gfn1.xyz --opt --vfukui --chrg -1 --uhf 0 --alpb DMSO

   ID    Z sym.   atoms
    1    6 C      1, 2, 5-7
    2    7 N      3, 4
    3    8 O      8, 10
    4   17 Cl     9
    5    1 H      11-16

      * Solvation model:               ALPB
        Solvent                        DMSO
        Solvent mass                       7.8130E+01 g/mol
          :  Hamiltonian                  GFN1-xTB          :
 * total energy  :   -34.1142883 Eh     change       -0.2422951E-11 Eh
 * total energy  :   -34.1249723 Eh     change       -0.1068400E-01 Eh
 * total energy  :   -34.1300570 Eh     change       -0.5084643E-02 Eh
 * total energy  :   -34.1320872 Eh     change       -0.2030238E-02 Eh
 * total energy  :   -34.1337059 Eh     change       -0.1618661E-02 Eh
 * total energy  :   -34.1350788 Eh     change       -0.1372878E-02 Eh
 * total energy  :   -34.1369937 Eh     change       -0.1914989E-02 Eh
 * total energy  :   -34.1401173 Eh     change       -0.3123600E-02 Eh
 * total energy  :   -34.1461200 Eh     change       -0.6002664E-02 Eh
 * total energy  :   -34.1520254 Eh     change       -0.5905411E-02 Eh
 * total energy  :   -34.1586433 Eh     change       -0.5202264E-04 Eh
 * total energy  :   -34.1586603 Eh     change       -0.1697609E-04 Eh
 * total energy  :   -34.1586780 Eh     change       -0.1769272E-04 Eh
 * total energy  :   -34.1586992 Eh     change       -0.2127958E-04 Eh
 * total energy  :   -34.1587169 Eh     change       -0.1762528E-04 Eh
 * total energy  :   -34.1587433 Eh     change       -0.2647303E-04 Eh
 * total energy  :   -34.1587536 Eh     change       -0.1023514E-04 Eh
 * total energy  :   -34.1587620 Eh     change       -0.8438297E-05 Eh
 * total energy  :   -34.1587640 Eh     change       -0.2013740E-05 Eh
   *** GEOMETRY OPTIMIZATION CONVERGED AFTER 31 ITERATIONS ***

 final structure:
================
16
 xtb: 6.5.1 (579679a)
C            2.67183228357590       -0.30235011449657       -0.51356599381630
C            1.30556292631364        0.05818322075412       -0.05568395118203
N            1.03216547008668        0.93044472963748        0.82637726068857
N           -0.39287603305403        0.94272304581213        0.98490342446957
C           -0.90062595184717       -0.06507626076943        0.00085520766225
C           -1.88820035072701       -1.11038872377215        0.43955675497112
C           -1.01730891570144        1.38280007322559       -0.24496306035888
O           -0.71168058083418        2.19555371937070       -1.09114459075469
Cl          -3.00788569511084        1.87756968622248        0.52892430198284
O            0.26078371143238       -0.60947409849852       -0.61248921306961
H            2.76794629339164       -0.10834218045902       -1.58136828000591
H            3.41026816949481        0.28089321558110        0.03043165411405
H            2.85029635556311       -1.36398096478210       -0.34797778598181
H           -2.36851547422688       -1.55311396014239       -0.43166057414361
H           -1.36738654999651       -1.89290604660396        0.98945507567147
H           -2.64437465836017       -0.66253434107936        1.07834976975340

          :  Hamiltonian                  GFN1-xTB          :
         :: total energy             -34.158764027024 Eh    ::
         :: gradient norm              0.000552937386 Eh/a0 ::
         :: HOMO-LUMO gap              3.346950227169 eV    ::
         :: SCC energy               -34.423123185200 Eh    ::
         :: -> Gsolv                  -0.099106097370 Eh    ::
         :: repulsion energy           0.271913270954 Eh    ::

    * Orbital Energies and Occupations

         #    Occupation            Energy/Eh            Energy/eV
      -------------------------------------------------------------
         1        2.0000           -0.8317193             -22.6322
       ...           ...                  ...                  ...
        16        2.0000           -0.5281376             -14.3714
        17        2.0000           -0.5230566             -14.2331
        18        2.0000           -0.5180282             -14.0963
        19        2.0000           -0.5117323             -13.9249
        20        2.0000           -0.5029249             -13.6853
        21        2.0000           -0.4790989             -13.0369
        22        2.0000           -0.4584306             -12.4745
        23        2.0000           -0.4530676             -12.3286
        24        2.0000           -0.4500043             -12.2452
        25        2.0000           -0.4445205             -12.0960
        26        2.0000           -0.4413380             -12.0094
        27        2.0000           -0.4244540             -11.5500
        28        2.0000           -0.3694985             -10.0546 (HOMO)
        29                         -0.2465003              -6.7076 (LUMO)
        30                         -0.2274258              -6.1886
        31                         -0.1313818              -3.5751
        32                         -0.1171747              -3.1885
        33                         -0.0839003              -2.2830
        34                         -0.0649792              -1.7682
        35                         -0.0639220              -1.7394
        36                         -0.0547142              -1.4888
        37                         -0.0453873              -1.2351
        38                         -0.0089803              -0.2444
        39                          0.0301129               0.8194
       ...                                ...                  ...
        57                          0.7585365              20.6408
      -------------------------------------------------------------
                  HL-Gap            0.1229982 Eh            3.3470 eV

Wiberg/Mayer (AO) data.
largest (>0.10) Wiberg bond orders for each atom

     #   Z sym  total        # sym  WBO       # sym  WBO       # sym  WBO
 ---------------------------------------------------------------------------
     1   6 C    3.991 --     2 C    1.020    12 H    0.985    13 H    0.969
                            11 H    0.968
     2   6 C    3.896 --     3 N    1.765    10 O    1.030     1 C    1.020
     3   7 N    2.969 --     2 C    1.765     4 N    0.976    10 O    0.117
     4   7 N    2.966 --     3 N    0.976     7 C    0.905     5 C    0.870
     5   6 C    3.812 --     6 C    1.001     7 C    0.905    10 O    0.903
                             4 N    0.870
     6   6 C    3.992 --     5 C    1.001    15 H    0.981    14 H    0.980
                            16 H    0.979
     7   6 C    3.857 --     8 O    1.624     4 N    0.905     5 C    0.905
                             9 Cl   0.340
     8   8 O    1.930 --     7 C    1.624     9 Cl   0.106
     9  17 Cl   0.517 --     7 C    0.340     8 O    0.106
    10   8 O    2.151 --     2 C    1.030     5 C    0.903     3 N    0.117
    11   1 H    1.001 --     1 C    0.968
    12   1 H    1.003 --     1 C    0.985
    13   1 H    1.001 --     1 C    0.969
    14   1 H    1.006 --     6 C    0.980
    15   1 H    1.007 --     6 C    0.981
    16   1 H    1.023 --     6 C    0.979
 ---------------------------------------------------------------------------

           -------------------------------------------------
          | TOTAL ENERGY              -34.158764027024 Eh   |
          | GRADIENT NORM               0.000552937386 Eh/α |
          | HOMO-LUMO GAP               3.346950227169 eV   |
           -------------------------------------------------

 * finished run on 2023/06/20 at 14:53:31.909
