   * xtb version 6.5.1 (579679a) compiled by 'ehlert@majestix' on 2022-07-11
          program call               : /lustre/hpc/kemi/ree/PhD/git/ReactivityQM/dep/xtb-6.5.1/bin/xtb --gfn 1 /lustre/hpc/kemi/ree/PhD/git/ReactivityQM/calculations/R03/reac02prodE12/conf10/R03_reac02prodE12_conf10_gfn1.xyz --opt --vfukui --chrg -1 --uhf 0 --alpb DMSO

   ID    Z sym.   atoms
    1    6 C      1, 3, 5, 6, 8, 9, 12-16, 18, 20, 23, 24
    2    8 O      2, 4, 7, 10, 19, 25
    3    7 N      11, 17, 21, 22, 26
    4    1 H      27-46

      * Solvation model:               ALPB
        Solvent                        DMSO
        Solvent mass                       7.8130E+01 g/mol
          :  Hamiltonian                  GFN1-xTB          :
 * total energy  :   -87.0202245 Eh     change       -0.5739764E-10 Eh
 * total energy  :   -87.0333678 Eh     change       -0.1314333E-01 Eh
 * total energy  :   -87.0396737 Eh     change       -0.6305894E-02 Eh
 * total energy  :   -87.0412573 Eh     change       -0.1583594E-02 Eh
 * total energy  :   -87.0422336 Eh     change       -0.9762727E-03 Eh
 * total energy  :   -87.0426379 Eh     change       -0.4043449E-03 Eh
 * total energy  :   -87.0429154 Eh     change       -0.2774971E-03 Eh
 * total energy  :   -87.0430976 Eh     change       -0.1821984E-03 Eh
 * total energy  :   -87.0432315 Eh     change       -0.1338309E-03 Eh
 * total energy  :   -87.0433511 Eh     change       -0.1196886E-03 Eh
 * total energy  :   -87.0452765 Eh     change       -0.1159912E-04 Eh
 * total energy  :   -87.0452882 Eh     change       -0.1172153E-04 Eh
 * total energy  :   -87.0452969 Eh     change       -0.8772641E-05 Eh
 * total energy  :   -87.0453044 Eh     change       -0.7422006E-05 Eh
 * total energy  :   -87.0453103 Eh     change       -0.5972561E-05 Eh
 * total energy  :   -87.0453161 Eh     change       -0.5726997E-05 Eh
 * total energy  :   -87.0453222 Eh     change       -0.6096397E-05 Eh
 * total energy  :   -87.0453316 Eh     change       -0.9393098E-05 Eh
 * total energy  :   -87.0453350 Eh     change       -0.3415244E-05 Eh
   *** GEOMETRY OPTIMIZATION CONVERGED AFTER 68 ITERATIONS ***

 final structure:
================
46
 xtb: 6.5.1 (579679a)
C           -1.12544281484688        4.20814477701934        0.07356881528558
O           -1.12008810735340        2.78555805715824        0.02477382137740
C           -2.32211013029697        2.19240736739586       -0.12045010374143
O           -3.35078858233433        2.86039174699933       -0.21930702380416
C           -2.27817417984861        0.73941266962164       -0.14172314450234
C           -3.41215229432834       -0.00403958316937       -0.26673922178504
O           -4.63178521498232        0.53907924913679       -0.38467393786043
C           -3.38736294734413       -1.55391132786064       -0.38372485699339
C           -3.15118453819676       -1.86327491200917       -1.90687388821060
O           -4.35678040261644       -2.18721585820876        0.15941493467792
N           -1.97226453572332       -1.94243763875785        0.29817687889173
C           -1.94823501675619       -3.33164546571675        0.71668126864876
C           -0.91475236428810       -1.12388422330728        0.23187084560482
C            0.53605785022519       -1.58271461837350        0.50871551813351
C            0.93716892026817       -2.86082122270947       -0.23784166126496
C            0.77728279928495       -1.70458653492857        2.02186162859364
N            1.37640450020623       -0.48679294913617        0.00848219712039
C            2.70392038381814       -0.39627524879028        0.11136717606007
O            3.46389325965200       -1.24991215368895        0.55089730589286
C            3.18376620365115        0.91767720616515       -0.41128083174315
N            2.44319730541292        1.87133231411368       -0.88820714688023
N            3.28473639043361        2.88663421085644       -1.23932809939532
C            4.48434695381862        2.48680414573386       -0.95212537886960
C            5.75095896617215        3.22764983138512       -1.14376909077583
O            4.48906956306445        1.25199475361597       -0.42679060801945
N           -1.01335032521447        0.15193950446524       -0.00741494627975
H           -0.09130660557956        4.52565651688004        0.19996714584123
H           -1.53293032167852        4.62366837907668       -0.85257599669467
H           -1.72860246408930        4.55958303853220        0.91568547622461
H           -4.56873770440124        1.52113714549829       -0.35132116025996
H           -2.25296897894128       -1.37664478606377       -2.28069104300313
H           -3.06529859545557       -2.93995101263585       -2.03681431963597
H           -4.01696867390870       -1.50777746194396       -2.46369684990713
H           -1.62151004951118       -3.99238291542815       -0.09157728982479
H           -1.30883390226474       -3.47660090606777        1.58526467626654
H           -2.97097086785005       -3.61040710060493        0.99312188050710
H            0.54672347632376       -3.74528020334450        0.25708390365234
H            0.57089405360926       -2.83079381603567       -1.26332443884835
H            2.02254710699945       -2.94635389790944       -0.25642822865422
H            1.81799952588537       -1.96233400228012        2.21254010756733
H            0.14783779776863       -2.47750802081662        2.45554556331876
H            0.55179190383254       -0.75462248995263        2.50573504034269
H            0.84094231488879        0.33188186154366       -0.29757419439542
H            6.28011024769110        3.31562622392599       -0.19551725825567
H            5.53745836046924        4.21879562605224       -1.53564815636095
H            6.39549373436162        2.69279372458377       -1.84084430805596

          :  Hamiltonian                  GFN1-xTB          :
         :: total energy             -87.045334975439 Eh    ::
         :: gradient norm              0.000399819829 Eh/a0 ::
         :: HOMO-LUMO gap              1.362237821046 eV    ::
         :: SCC energy               -87.839629751153 Eh    ::
         :: -> Gsolv                  -0.113309769398 Eh    ::
         :: repulsion energy           0.824220291103 Eh    ::

    * Orbital Energies and Occupations

         #    Occupation            Energy/Eh            Energy/eV
      -------------------------------------------------------------
         1        2.0000           -0.8551319             -23.2693
       ...           ...                  ...                  ...
        59        2.0000           -0.4688792             -12.7589
        60        2.0000           -0.4687522             -12.7554
        61        2.0000           -0.4577322             -12.4555
        62        2.0000           -0.4507334             -12.2651
        63        2.0000           -0.4499762             -12.2445
        64        2.0000           -0.4423570             -12.0371
        65        2.0000           -0.4382461             -11.9253
        66        2.0000           -0.4299542             -11.6997
        67        2.0000           -0.4153421             -11.3020
        68        2.0000           -0.3953635             -10.7584
        69        2.0000           -0.3731106             -10.1529
        70        2.0000           -0.3583845              -9.7521
        71        2.0000           -0.3464209              -9.4266 (HOMO)
        72                         -0.2963596              -8.0644 (LUMO)
        73                         -0.2678385              -7.2883
        74                         -0.2494648              -6.7883
        75                         -0.2231480              -6.0722
        76                         -0.1850100              -5.0344
        77                         -0.1398251              -3.8048
        78                         -0.1385274              -3.7695
        79                         -0.1280645              -3.4848
        80                         -0.1242369              -3.3807
        81                         -0.1137002              -3.0939
        82                         -0.0987580              -2.6873
       ...                                ...                  ...
       144                          0.7323113              19.9272
      -------------------------------------------------------------
                  HL-Gap            0.0500613 Eh            1.3622 eV

Wiberg/Mayer (AO) data.
largest (>0.10) Wiberg bond orders for each atom

     #   Z sym  total        # sym  WBO       # sym  WBO       # sym  WBO
 ---------------------------------------------------------------------------
     1   6 C    3.890 --    27 H    0.987    29 H    0.980    28 H    0.980
                             2 O    0.916
     2   8 O    2.176 --     3 C    1.073     1 C    0.916     4 O    0.108
     3   6 C    3.841 --     4 O    1.548     5 C    1.097     2 O    1.073
     4   8 O    1.900 --     3 C    1.548     2 O    0.108
     5   6 C    3.945 --     6 C    1.542     3 C    1.097    26 N    1.071
     6   6 C    3.873 --     5 C    1.542     7 O    1.114     8 C    0.907
     7   8 O    2.086 --     6 C    1.114    30 H    0.793
     8   6 C    3.922 --    10 O    1.297     9 C    0.921     6 C    0.907
                            11 N    0.711
     9   6 C    3.991 --    31 H    0.991    33 H    0.985    32 H    0.984
                             8 C    0.921
    10   8 O    1.589 --     8 C    1.297
    11   7 N    3.355 --    13 C    1.299    12 C    0.967     8 C    0.711
                            26 N    0.178
    12   6 C    3.960 --    34 H    0.978    35 H    0.978    36 H    0.967
                            11 N    0.967
    13   6 C    3.951 --    26 N    1.526    11 N    1.299    14 C    0.956
    14   6 C    3.930 --    15 C    0.992    16 C    0.983    13 C    0.956
                            17 N    0.923
    15   6 C    3.993 --    14 C    0.992    38 H    0.986    37 H    0.982
                            39 H    0.979
    16   6 C    3.993 --    42 H    0.986    14 C    0.983    40 H    0.981
                            41 H    0.978
    17   7 N    3.384 --    18 C    1.306    14 C    0.923    43 H    0.855
                            19 O    0.189
    18   6 C    3.925 --    19 O    1.557    17 N    1.306    20 C    0.979
    19   8 O    1.883 --    18 C    1.557    17 N    0.189
    20   6 C    3.869 --    21 N    1.620    25 O    1.060    18 C    0.979
    21   7 N    3.011 --    20 C    1.620    22 N    1.191
    22   7 N    2.980 --    23 C    1.615    21 N    1.191
    23   6 C    3.874 --    22 N    1.615    25 O    1.080    24 C    1.030
    24   6 C    3.988 --    23 C    1.030    45 H    0.983    44 H    0.966
                            46 H    0.964
    25   8 O    2.323 --    23 C    1.080    20 C    1.060
    26   7 N    3.003 --    13 C    1.526     5 C    1.071    11 N    0.178
    27   1 H    1.015 --     1 C    0.987
    28   1 H    1.012 --     1 C    0.980
    29   1 H    1.012 --     1 C    0.980
    30   1 H    0.876 --     7 O    0.793
    31   1 H    1.009 --     9 C    0.991
    32   1 H    1.013 --     9 C    0.984
    33   1 H    1.012 --     9 C    0.985
    34   1 H    1.010 --    12 C    0.978
    35   1 H    1.012 --    12 C    0.978
    36   1 H    1.028 --    12 C    0.967
    37   1 H    1.007 --    15 C    0.982
    38   1 H    1.005 --    15 C    0.986
    39   1 H    1.011 --    15 C    0.979
    40   1 H    1.010 --    16 C    0.981
    41   1 H    1.008 --    16 C    0.978
    42   1 H    1.007 --    16 C    0.986
    43   1 H    0.984 --    17 N    0.855
    44   1 H    0.998 --    24 C    0.966
    45   1 H    0.999 --    24 C    0.983
    46   1 H    0.998 --    24 C    0.964
 ---------------------------------------------------------------------------

           -------------------------------------------------
          | TOTAL ENERGY              -87.045334975439 Eh   |
          | GRADIENT NORM               0.000399819829 Eh/α |
          | HOMO-LUMO GAP               1.362237821046 eV   |
           -------------------------------------------------

 * finished run on 2023/06/20 at 15:32:38.673
