   * xtb version 6.5.1 (579679a) compiled by 'ehlert@majestix' on 2022-07-11
          program call               : /lustre/hpc/kemi/ree/PhD/git/ReactivityQM/dep/xtb-6.5.1/bin/xtb --gfn 1 /lustre/hpc/kemi/ree/PhD/git/ReactivityQM/calculations/R02/reac01prodN15/conf06/R02_reac01prodN15_conf06_gfn1.xyz --opt --vfukui --chrg 1 --uhf 0 --alpb DMSO

   ID    Z sym.   atoms
    1    6 C      1, 3, 5, 7-10, 12, 14, 17, 18, 21, 23, 24
    2    8 O      2, 4, 13, 19, 22, 25
    3    7 N      6, 11, 15, 16, 20
    4    1 H      26-43

      * Solvation model:               ALPB
        Solvent                        DMSO
        Solvent mass                       7.8130E+01 g/mol
          :  Hamiltonian                  GFN1-xTB          :
 * total energy  :   -83.0939591 Eh     change       -0.2765859E-09 Eh
 * total energy  :   -83.1099091 Eh     change       -0.1594999E-01 Eh
 * total energy  :   -83.1183537 Eh     change       -0.8444634E-02 Eh
 * total energy  :   -83.1203248 Eh     change       -0.1971092E-02 Eh
 * total energy  :   -83.1217371 Eh     change       -0.1412281E-02 Eh
 * total energy  :   -83.1227250 Eh     change       -0.9879199E-03 Eh
 * total energy  :   -83.1236881 Eh     change       -0.9630661E-03 Eh
 * total energy  :   -83.1244800 Eh     change       -0.7919239E-03 Eh
 * total energy  :   -83.1249960 Eh     change       -0.5160041E-03 Eh
 * total energy  :   -83.1252695 Eh     change       -0.2735443E-03 Eh
 * total energy  :   -83.1302180 Eh     change       -0.1428132E-04 Eh
 * total energy  :   -83.1302352 Eh     change       -0.1718882E-04 Eh
 * total energy  :   -83.1302454 Eh     change       -0.1021128E-04 Eh
 * total energy  :   -83.1302516 Eh     change       -0.6164338E-05 Eh
 * total energy  :   -83.1302571 Eh     change       -0.5531404E-05 Eh
 * total energy  :   -83.1302633 Eh     change       -0.6193960E-05 Eh
 * total energy  :   -83.1302700 Eh     change       -0.6641969E-05 Eh
 * total energy  :   -83.1302750 Eh     change       -0.5082542E-05 Eh
 * total energy  :   -83.1302787 Eh     change       -0.3697426E-05 Eh
   *** GEOMETRY OPTIMIZATION CONVERGED AFTER 63 ITERATIONS ***

 final structure:
================
43
 xtb: 6.5.1 (579679a)
C           -5.72942211151671        2.34497865542606        0.77512891344804
O           -4.66967319053388        1.37868252983616        0.64555276916805
C           -3.55433269793759        1.73881607439386        0.05766171065201
O           -3.29957501375288        2.81034435735183       -0.41633135678461
C           -2.55216630408339        0.58671174604508        0.04050839366138
N           -1.36207683375702        0.83222768362569        0.47644424909922
C           -0.39018463671660       -0.11118378858688        0.35040061626057
C            0.94641727102352        0.15938375919282        0.99444004285023
C            1.03435641605051        1.60468709631872        1.48178667874918
C            1.08662321555663       -0.82310853798771        2.17441273034673
N            2.04526920911790       -0.05149055684137        0.04356686461032
C            2.39672201556900       -1.21032596648109       -0.54107869553267
O            1.70603445818021       -2.23620904834209       -0.54552698688003
C            3.68406790304744       -1.14902440002069       -1.23885719098832
N            4.26613815231839       -2.07834867809967       -1.93415657690308
N            5.42849314989548       -1.55432277426621       -2.39210565694273
C            5.49320888203337       -0.33247281281009       -1.95217045673538
C            6.56321290557921        0.66037996561726       -2.17917193409355
O            4.41804258785846       -0.01545217218207       -1.21501630856637
N           -0.57953953193427       -1.22819768976709       -0.30016784054376
C           -1.80322700767283       -1.58141118084594       -0.92831980297621
O           -1.86970541053598       -2.49147741089739       -1.69428411947621
C           -2.97915219295401       -0.76576508314716       -0.41970683011732
C           -3.44376998635782       -1.52439130474495        0.86805489278458
O           -4.00593428502260       -0.67142403307901       -1.34501754846310
H           -5.63884080441006        2.83510901289527        1.74546225646699
H           -6.66347000891152        1.78898427026318        0.71927937087080
H           -5.66541047365416        3.08142676284835       -0.02744699098918
H            0.23811517618637        1.79855630324973        2.19794284701519
H            0.93180000630438        2.29246629880296        0.64429973726637
H            1.99482746928369        1.76735402902983        1.96630312929407
H            1.05043002042803       -1.85178438367698        1.82199670128980
H            0.27980324652231       -0.65844619808403        2.88589400037890
H            2.04091752499126       -0.64258004388071        2.66529253076221
H            2.70920757768136        0.70740881297182       -0.01223403916449
H            7.34007346472435        0.22953863132225       -2.80667512396925
H            6.98900303583808        0.96843406337403       -1.22431573806405
H            6.14812314762415        1.54567135294970       -2.66080865214551
H            0.30872571834383       -1.83837519051437       -0.44832883878437
H           -3.70805838931079       -2.54052303601523        0.58346392045426
H           -2.65271966688383       -1.54026295070076        1.61265042698444
H           -4.31866453660061       -1.01269958056468        1.26193207288665
H           -4.21369047161370       -1.53396358397216       -1.73075416717887

          :  Hamiltonian                  GFN1-xTB          :
         :: total energy             -83.130278740927 Eh    ::
         :: gradient norm              0.000391388003 Eh/a0 ::
         :: HOMO-LUMO gap              1.284567831507 eV    ::
         :: SCC energy               -83.914513611778 Eh    ::
         :: -> Gsolv                  -0.110091219880 Eh    ::
         :: repulsion energy           0.811201818274 Eh    ::

    * Orbital Energies and Occupations

         #    Occupation            Energy/Eh            Energy/eV
      -------------------------------------------------------------
         1        2.0000           -0.8867767             -24.1304
       ...           ...                  ...                  ...
        55        2.0000           -0.5375403             -14.6272
        56        2.0000           -0.5338888             -14.5279
        57        2.0000           -0.5309854             -14.4488
        58        2.0000           -0.5266863             -14.3319
        59        2.0000           -0.5225735             -14.2199
        60        2.0000           -0.5214687             -14.1899
        61        2.0000           -0.5103797             -13.8881
        62        2.0000           -0.5000765             -13.6078
        63        2.0000           -0.4957082             -13.4889
        64        2.0000           -0.4933369             -13.4244
        65        2.0000           -0.4836015             -13.1595
        66        2.0000           -0.4697882             -12.7836
        67        2.0000           -0.4690618             -12.7638 (HOMO)
        68                         -0.4218548             -11.4793 (LUMO)
        69                         -0.3456470              -9.4055
        70                         -0.3421209              -9.3096
        71                         -0.3007951              -8.1851
        72                         -0.2791859              -7.5970
        73                         -0.2714009              -7.3852
        74                         -0.2266683              -6.1680
        75                         -0.1561819              -4.2499
        76                         -0.1528392              -4.1590
        77                         -0.1487169              -4.0468
        78                         -0.1480628              -4.0290
       ...                                ...                  ...
       136                          0.7184799              19.5508
      -------------------------------------------------------------
                  HL-Gap            0.0472070 Eh            1.2846 eV

Wiberg/Mayer (AO) data.
largest (>0.10) Wiberg bond orders for each atom

     #   Z sym  total        # sym  WBO       # sym  WBO       # sym  WBO
 ---------------------------------------------------------------------------
     1   6 C    3.839 --    27 H    0.980    28 H    0.980    26 H    0.976
                             2 O    0.865
     2   8 O    2.247 --     3 C    1.170     1 C    0.865     4 O    0.156
     3   6 C    3.863 --     4 O    1.703     2 O    1.170     5 C    0.922
     4   8 O    1.978 --     3 C    1.703     2 O    0.156
     5   6 C    3.900 --     6 N    1.642    23 C    1.010     3 C    0.922
     6   7 N    3.053 --     5 C    1.642     7 C    1.198
     7   6 C    3.884 --    20 N    1.496     6 N    1.198     8 C    0.991
     8   6 C    3.928 --     9 C    0.998     7 C    0.991    10 C    0.946
                            11 N    0.922
     9   6 C    3.981 --     8 C    0.998    30 H    0.982    31 H    0.981
                            29 H    0.980
    10   6 C    3.976 --    33 H    0.982    32 H    0.980    34 H    0.974
                             8 C    0.946
    11   7 N    3.357 --    12 C    1.285     8 C    0.922    35 H    0.878
                            13 O    0.156
    12   6 C    3.905 --    13 O    1.489    11 N    1.285    14 C    1.029
    13   8 O    1.986 --    12 C    1.489    39 H    0.177    11 N    0.156
    14   6 C    3.881 --    15 N    1.597    19 O    1.045    12 C    1.029
    15   7 N    3.009 --    14 C    1.597    16 N    1.222
    16   7 N    2.984 --    17 C    1.585    15 N    1.222
    17   6 C    3.860 --    16 N    1.585    19 O    1.078    18 C    1.035
    18   6 C    3.983 --    17 C    1.035    36 H    0.981    38 H    0.960
                            37 H    0.959
    19   8 O    2.322 --    17 C    1.078    14 C    1.045
    20   7 N    3.499 --     7 C    1.496    21 C    0.999    39 H    0.674
    21   6 C    3.859 --    22 O    1.793    20 N    0.999    23 C    0.936
    22   8 O    2.047 --    21 C    1.793
    23   6 C    3.939 --     5 C    1.010    25 O    0.999    21 C    0.936
                            24 C    0.863
    24   6 C    3.964 --    41 H    0.985    42 H    0.974    40 H    0.972
                            23 C    0.863
    25   8 O    1.918 --    23 C    0.999    43 H    0.820
    26   1 H    1.001 --     1 C    0.976
    27   1 H    1.004 --     1 C    0.980
    28   1 H    1.003 --     1 C    0.980
    29   1 H    1.002 --     9 C    0.980
    30   1 H    0.997 --     9 C    0.982
    31   1 H    0.993 --     9 C    0.981
    32   1 H    0.999 --    10 C    0.980
    33   1 H    0.995 --    10 C    0.982
    34   1 H    0.993 --    10 C    0.974
    35   1 H    0.923 --    11 N    0.878
    36   1 H    0.997 --    18 C    0.981
    37   1 H    0.994 --    18 C    0.959
    38   1 H    0.995 --    18 C    0.960
    39   1 H    0.883 --    20 N    0.674    13 O    0.177
    40   1 H    0.992 --    24 C    0.972
    41   1 H    0.994 --    24 C    0.985
    42   1 H    1.002 --    24 C    0.974
    43   1 H    0.837 --    25 O    0.820
 ---------------------------------------------------------------------------

           -------------------------------------------------
          | TOTAL ENERGY              -83.130278740927 Eh   |
          | GRADIENT NORM               0.000391388003 Eh/α |
          | HOMO-LUMO GAP               1.284567831507 eV   |
           -------------------------------------------------

 * finished run on 2023/06/20 at 15:40:31.393
