   * xtb version 6.5.1 (579679a) compiled by 'ehlert@majestix' on 2022-07-11
          program call               : /lustre/hpc/kemi/ree/PhD/git/ReactivityQM/dep/xtb-6.5.1/bin/xtb --gfn 1 /lustre/hpc/kemi/ree/PhD/git/ReactivityQM/calculations/R01/reac01prodN03/conf09/R01_reac01prodN03_conf09_gfn1.xyz --opt --vfukui --chrg 1 --uhf 0 --alpb DMSO

   ID    Z sym.   atoms
    1    6 C      1, 3, 5, 7, 8, 11
    2    8 O      2, 4, 6
    3    7 N      9, 10
    4    1 H      12-20

      * Solvation model:               ALPB
        Solvent                        DMSO
        Solvent mass                       7.8130E+01 g/mol
          :  Hamiltonian                  GFN1-xTB          :
 * total energy  :   -37.6203491 Eh     change       -0.2629719E-10 Eh
 * total energy  :   -37.6366203 Eh     change       -0.1627123E-01 Eh
 * total energy  :   -37.6425605 Eh     change       -0.5940173E-02 Eh
 * total energy  :   -37.6433748 Eh     change       -0.8143125E-03 Eh
 * total energy  :   -37.6436496 Eh     change       -0.2748529E-03 Eh
 * total energy  :   -37.6436823 Eh     change       -0.3262078E-04 Eh
 * total energy  :   -37.6437014 Eh     change       -0.1910200E-04 Eh
 * total energy  :   -37.6437193 Eh     change       -0.1796409E-04 Eh
 * total energy  :   -37.6437370 Eh     change       -0.1769714E-04 Eh
 * total energy  :   -37.6437738 Eh     change       -0.3675193E-04 Eh
 * total energy  :   -37.6443350 Eh     change       -0.7107816E-05 Eh
 * total energy  :   -37.6443463 Eh     change       -0.1126897E-04 Eh
 * total energy  :   -37.6372831 Eh     change        0.7063186E-02 Eh
 * total energy  :   -37.6436254 Eh     change       -0.6342323E-02 Eh
 * total energy  :   -37.6441831 Eh     change       -0.5576542E-03 Eh
 * total energy  :   -37.6443407 Eh     change       -0.1576064E-03 Eh
 * total energy  :   -37.6443695 Eh     change       -0.2875885E-04 Eh
 * total energy  :   -37.6443773 Eh     change       -0.7799813E-05 Eh
 * total energy  :   -37.6443800 Eh     change       -0.2747581E-05 Eh
   *** GEOMETRY OPTIMIZATION CONVERGED AFTER 38 ITERATIONS ***

 final structure:
================
20
 xtb: 6.5.1 (579679a)
C            3.47955085671843       -0.51039988393246        0.56898391893002
O            2.11604827863998       -0.09084356300857        0.34067582523187
C            1.20025875339797       -1.02954888972738        0.29428580239095
O            1.35538232525130       -2.20618212641697        0.43042388815316
C           -0.15142950839723       -0.40940908159823        0.02956656248346
O           -1.24871973235340       -1.13767905805567       -0.08486137950224
C           -2.24637261013919       -0.27812330974068       -0.32683991233559
C           -3.62926261962176       -0.74611133205023       -0.50873433142245
N           -1.80144406983287        0.94978198292132       -0.36519037702679
N           -0.48534794771542        0.85183301214049       -0.14027896417728
C            0.33118166112138        2.04589829988091       -0.11464835531886
H            3.82436994662942       -1.09057389769461       -0.28775838713267
H            3.52744720413922       -1.11555092247619        1.47481943964866
H            4.05823091414587        0.40283830344068        0.67724887173941
H           -3.98449500653370       -1.20461696910822        0.41565242788846
H           -3.66112288819071       -1.50600939693317       -1.29017846587824
H           -4.27058156129147        0.09074594201747       -0.77295780611110
H            1.11071926983252        1.95220501204556       -0.86862591697828
H            0.78845063187854        2.13559874951327        0.86936633204942
H           -0.31286589767850        2.89614812878243       -0.32272717263204

          :  Hamiltonian                  GFN1-xTB          :
         :: total energy             -37.644380008616 Eh    ::
         :: gradient norm              0.000470672780 Eh/a0 ::
         :: HOMO-LUMO gap              3.656157108737 eV    ::
         :: SCC energy               -37.999371333866 Eh    ::
         :: -> Gsolv                  -0.081176243273 Eh    ::
         :: repulsion energy           0.363325985770 Eh    ::

    * Orbital Energies and Occupations

         #    Occupation            Energy/Eh            Energy/eV
      -------------------------------------------------------------
         1        2.0000           -0.9439720             -25.6868
       ...           ...                  ...                  ...
        18        2.0000           -0.6268999             -17.0588
        19        2.0000           -0.6086530             -16.5623
        20        2.0000           -0.6081778             -16.5494
        21        2.0000           -0.5935227             -16.1506
        22        2.0000           -0.5876367             -15.9904
        23        2.0000           -0.5744227             -15.6308
        24        2.0000           -0.5685362             -15.4707
        25        2.0000           -0.5615337             -15.2801
        26        2.0000           -0.5523318             -15.0297
        27        2.0000           -0.5441760             -14.8078
        28        2.0000           -0.5335052             -14.5174
        29        2.0000           -0.5321099             -14.4794
        30        2.0000           -0.5221675             -14.2089 (HOMO)
        31                         -0.3878062             -10.5527 (LUMO)
        32                         -0.3290856              -8.9549
        33                         -0.2702244              -7.3532
        34                         -0.1755920              -4.7781
        35                         -0.1693611              -4.6086
        36                         -0.1571189              -4.2754
        37                         -0.1120283              -3.0484
        38                         -0.1070674              -2.9135
        39                         -0.1002542              -2.7281
        40                         -0.0997542              -2.7145
        41                         -0.0922236              -2.5095
       ...                                ...                  ...
        62                          0.7339354              19.9714
      -------------------------------------------------------------
                  HL-Gap            0.1343613 Eh            3.6562 eV

Wiberg/Mayer (AO) data.
largest (>0.10) Wiberg bond orders for each atom

     #   Z sym  total        # sym  WBO       # sym  WBO       # sym  WBO
 ---------------------------------------------------------------------------
     1   6 C    3.824 --    14 H    0.983    13 H    0.977    12 H    0.975
                             2 O    0.853
     2   8 O    2.236 --     3 C    1.161     1 C    0.853     4 O    0.158
     3   6 C    3.882 --     4 O    1.711     2 O    1.161     5 C    0.940
     4   8 O    1.996 --     3 C    1.711     2 O    0.158
     5   6 C    3.852 --    10 N    1.449     6 O    1.136     3 C    0.940
     6   8 O    2.390 --     5 C    1.136     7 C    1.087
     7   6 C    3.837 --     9 N    1.547     6 O    1.087     8 C    1.045
     8   6 C    3.968 --     7 C    1.045    17 H    0.976    16 H    0.950
                            15 H    0.944
     9   7 N    2.967 --     7 C    1.547    10 N    1.176
    10   7 N    3.669 --     5 C    1.449     9 N    1.176    11 C    0.908
    11   6 C    3.876 --    20 H    0.978    18 H    0.962    19 H    0.961
                            10 N    0.908
    12   1 H    0.998 --     1 C    0.975
    13   1 H    0.998 --     1 C    0.977
    14   1 H    1.003 --     1 C    0.983
    15   1 H    0.987 --     8 C    0.944
    16   1 H    0.988 --     8 C    0.950
    17   1 H    0.990 --     8 C    0.976
    18   1 H    0.995 --    11 C    0.962
    19   1 H    0.994 --    11 C    0.961
    20   1 H    0.992 --    11 C    0.978
 ---------------------------------------------------------------------------

           -------------------------------------------------
          | TOTAL ENERGY              -37.644380008616 Eh   |
          | GRADIENT NORM               0.000470672780 Eh/α |
          | HOMO-LUMO GAP               3.656157108737 eV   |
           -------------------------------------------------

 * finished run on 2023/06/20 at 14:55:25.278
