   * xtb version 6.5.1 (579679a) compiled by 'ehlert@majestix' on 2022-07-11
          program call               : /lustre/hpc/kemi/ree/PhD/git/ReactivityQM/dep/xtb-6.5.1/bin/xtb --gfn 1 /lustre/hpc/kemi/ree/PhD/git/ReactivityQM/calculations/R03/reac02prodN08/conf08/R03_reac02prodN08_conf08_gfn1.xyz --opt --vfukui --chrg 1 --uhf 0 --alpb DMSO

   ID    Z sym.   atoms
    1    6 C      1, 3, 4, 6, 8-11, 13, 15, 18, 19, 22, 23, 25
    2    8 O      2, 5, 14, 20, 24, 26
    3    7 N      7, 12, 16, 17, 21
    4    1 H      27-46

      * Solvation model:               ALPB
        Solvent                        DMSO
        Solvent mass                       7.8130E+01 g/mol
          :  Hamiltonian                  GFN1-xTB          :
 * total energy  :   -86.1870978 Eh     change       -0.1033555E-09 Eh
 * total energy  :   -86.2054857 Eh     change       -0.1838788E-01 Eh
 * total energy  :   -86.2206549 Eh     change       -0.1516919E-01 Eh
 * total energy  :   -86.2274569 Eh     change       -0.6802032E-02 Eh
 * total energy  :   -86.2372960 Eh     change       -0.9839079E-02 Eh
 * total energy  :   -86.2529092 Eh     change       -0.1561321E-01 Eh
 * total energy  :   -86.2707846 Eh     change       -0.1787540E-01 Eh
 * total energy  :   -86.2794073 Eh     change       -0.8622678E-02 Eh
 * total energy  :   -86.2970049 Eh     change       -0.1759762E-01 Eh
 * total energy  :   -86.3080917 Eh     change       -0.1108679E-01 Eh
 * total energy  :   -86.3394362 Eh     change       -0.1163026E-04 Eh
 * total energy  :   -86.3394580 Eh     change       -0.2175246E-04 Eh
 * total energy  :   -86.3394708 Eh     change       -0.1280005E-04 Eh
 * total energy  :   -86.3394984 Eh     change       -0.2755390E-04 Eh
 * total energy  :   -86.3395099 Eh     change       -0.1157852E-04 Eh
 * total energy  :   -86.3395238 Eh     change       -0.1391346E-04 Eh
 * total energy  :   -86.3395407 Eh     change       -0.1681422E-04 Eh
 * total energy  :   -86.3395477 Eh     change       -0.7055132E-05 Eh
 * total energy  :   -86.3395514 Eh     change       -0.3677792E-05 Eh
   *** GEOMETRY OPTIMIZATION CONVERGED AFTER 76 ITERATIONS ***

 final structure:
================
46
 xtb: 6.5.1 (579679a)
C           -1.65781705420714        4.42997794700392       -0.55336086124214
O           -2.55122800073047        3.67708685160037       -1.40201751950523
C           -2.70059265114818        2.42230307424228       -1.25314801011213
C           -3.65358755471436        1.73894136871259       -2.14371072022941
O           -2.00651754603309        1.84080673958460       -0.33710843685135
C           -2.09986277343898        0.49376300373996        0.05237501217935
N           -0.90833841436705       -0.12045237899529        0.15070862931901
C           -0.82850299449436       -1.36195438855644        0.54797731907308
C            0.58122332888477       -1.95239106871007        0.57296749152511
C            0.78224383690059       -2.81229347699127       -0.68799669734239
C            0.91196052988389       -2.71735452250489        1.86336197309852
N            1.49375550430856       -0.80747340695196        0.49295325200918
C            2.83343637099880       -0.91368736316164        0.37381584088786
O            3.46997490185985       -1.95242801707191        0.36922393905663
C            3.45980681818702        0.42840797038450        0.26280254411925
N            2.84305223659812        1.57252173464124        0.27303056540584
N            3.80034764755214        2.53478275546959        0.15368809917535
C            4.94077918094382        1.91549370480210        0.07771999316989
C            6.28655893468728        2.51399133754939       -0.06365577381912
O            4.78988726986409        0.58492701346777        0.14080837869291
N           -1.95096417045433       -2.07230046859381        0.86256339366384
C           -1.96095407780237       -3.48163655978843        1.27418228731701
C           -3.21924013779220       -1.48916803962054        0.84215404292996
O           -4.22959535990996       -2.08958385520198        1.17003828178141
C           -3.26635011914704       -0.11288279962878        0.38796029895638
O           -4.47178971732824        0.47980398377609        0.33883550170657
H           -1.72298185684887        5.45962911838825       -0.89563456601524
H           -0.64649009566542        4.03943965372234       -0.66330241403400
H           -1.98487760560247        4.33496499451944        0.48179223564973
H           -3.79811767553358        2.32296395054898       -3.05022103455444
H           -4.61113819710617        1.66032242273255       -1.62146067460920
H           -3.31472173373852        0.72925093298194       -2.36708190833626
H            0.05225925153860       -3.61587365002191       -0.73288487851688
H            1.78102445910216       -3.24564139830257       -0.67550825610795
H            0.67191536897406       -2.18793281760584       -1.57292568905681
H            1.99396494063420       -2.78684407667718        1.96370542989408
H            0.51968745529614       -3.72920467013043        1.84044848129891
H            0.51108911736624       -2.19046620368632        2.72705911230716
H            1.07378301698774        0.11129756402691        0.42803514949204
H            6.94402973978970        2.14012521716067        0.72088556446228
H            6.71777393405769        2.23682649214772       -1.02589763505054
H            6.21370315614936        3.59674150602775        0.00179234637987
H           -1.74725490975899       -3.55193972940762        2.33929695070938
H           -1.23824195005733       -4.04853758834018        0.69883356156432
H           -2.95875474905601       -3.87365979297743        1.08165094204718
H           -5.14433965563417       -0.15066206430841        0.66284045751154

          :  Hamiltonian                  GFN1-xTB          :
         :: total energy             -86.339551390011 Eh    ::
         :: gradient norm              0.000588925047 Eh/a0 ::
         :: HOMO-LUMO gap              2.350443278114 eV    ::
         :: SCC energy               -87.175931352480 Eh    ::
         :: -> Gsolv                  -0.103370918069 Eh    ::
         :: repulsion energy           0.864755488500 Eh    ::

    * Orbital Energies and Occupations

         #    Occupation            Energy/Eh            Energy/eV
      -------------------------------------------------------------
         1        2.0000           -0.9323924             -25.3717
       ...           ...                  ...                  ...
        58        2.0000           -0.5210130             -14.1775
        59        2.0000           -0.5153269             -14.0228
        60        2.0000           -0.5141267             -13.9901
        61        2.0000           -0.5100666             -13.8796
        62        2.0000           -0.4992692             -13.5858
        63        2.0000           -0.4903479             -13.3430
        64        2.0000           -0.4866501             -13.2424
        65        2.0000           -0.4855894             -13.2136
        66        2.0000           -0.4700270             -12.7901
        67        2.0000           -0.4657505             -12.6737
        68        2.0000           -0.4567315             -12.4283
        69        2.0000           -0.4553442             -12.3905
        70        2.0000           -0.4514626             -12.2849 (HOMO)
        71                         -0.3650854              -9.9345 (LUMO)
        72                         -0.3278958              -8.9225
        73                         -0.3152144              -8.5774
        74                         -0.3051520              -8.3036
        75                         -0.2611092              -7.1051
        76                         -0.2033132              -5.5324
        77                         -0.2004838              -5.4554
        78                         -0.1803417              -4.9073
        79                         -0.1668219              -4.5395
        80                         -0.1571320              -4.2758
        81                         -0.1446822              -3.9370
       ...                                ...                  ...
       144                          0.7207198              19.6118
      -------------------------------------------------------------
                  HL-Gap            0.0863772 Eh            2.3504 eV

Wiberg/Mayer (AO) data.
largest (>0.10) Wiberg bond orders for each atom

     #   Z sym  total        # sym  WBO       # sym  WBO       # sym  WBO
 ---------------------------------------------------------------------------
     1   6 C    3.812 --    27 H    0.981    28 H    0.973    29 H    0.972
                             2 O    0.839
     2   8 O    2.336 --     3 C    1.321     1 C    0.839
     3   6 C    3.769 --     2 O    1.321     5 O    1.249     4 C    1.043
     4   6 C    3.964 --     3 C    1.043    30 H    0.965    32 H    0.960
                            31 H    0.910
     5   8 O    2.351 --     3 C    1.249     6 C    0.877
     6   6 C    3.840 --    25 C    1.491     7 N    1.227     5 O    0.877
     7   7 N    3.044 --     8 C    1.503     6 C    1.227
     8   6 C    3.919 --     7 N    1.503    21 N    1.217     9 C    0.980
     9   6 C    3.935 --    11 C    0.984     8 C    0.980    10 C    0.970
                            12 N    0.936
    10   6 C    3.985 --    35 H    0.984    33 H    0.978    34 H    0.975
                             9 C    0.970
    11   6 C    3.985 --    38 H    0.985     9 C    0.984    37 H    0.981
                            36 H    0.974
    12   7 N    3.341 --    13 C    1.253     9 C    0.936    39 H    0.874
                            14 O    0.179
    13   6 C    3.917 --    14 O    1.591    12 N    1.253    15 C    0.989
    14   8 O    1.914 --    13 C    1.591    12 N    0.179
    15   6 C    3.876 --    16 N    1.609    20 O    1.065    13 C    0.989
    16   7 N    3.014 --    15 C    1.609    17 N    1.201
    17   7 N    2.979 --    18 C    1.602    16 N    1.201
    18   6 C    3.870 --    17 N    1.602    20 O    1.084    19 C    1.032
    19   6 C    3.986 --    18 C    1.032    42 H    0.982    40 H    0.965
                            41 H    0.961
    20   8 O    2.332 --    18 C    1.084    15 C    1.065
    21   7 N    3.517 --     8 C    1.217    23 C    1.103    22 C    0.918
                            24 O    0.131
    22   6 C    3.906 --    44 H    0.975    43 H    0.973    45 H    0.970
                            21 N    0.918
    23   6 C    3.918 --    24 O    1.583    21 N    1.103    25 C    1.084
    24   8 O    1.927 --    23 C    1.583    21 N    0.131
    25   6 C    3.926 --     6 C    1.491    23 C    1.084    26 O    1.084
    26   8 O    2.066 --    25 C    1.084    46 H    0.791
    27   1 H    1.000 --     1 C    0.981
    28   1 H    0.997 --     1 C    0.973
    29   1 H    0.996 --     1 C    0.972
    30   1 H    0.987 --     4 C    0.965
    31   1 H    0.993 --     4 C    0.910
    32   1 H    0.988 --     4 C    0.960
    33   1 H    1.001 --    10 C    0.978
    34   1 H    1.006 --    10 C    0.975
    35   1 H    1.001 --    10 C    0.984
    36   1 H    1.005 --    11 C    0.974
    37   1 H    1.001 --    11 C    0.981
    38   1 H    1.000 --    11 C    0.985
    39   1 H    0.965 --    12 N    0.874
    40   1 H    0.996 --    19 C    0.965
    41   1 H    0.996 --    19 C    0.961
    42   1 H    0.998 --    19 C    0.982
    43   1 H    0.998 --    22 C    0.973
    44   1 H    1.005 --    22 C    0.975
    45   1 H    1.002 --    22 C    0.970
    46   1 H    0.827 --    26 O    0.791
 ---------------------------------------------------------------------------

           -------------------------------------------------
          | TOTAL ENERGY              -86.339551390011 Eh   |
          | GRADIENT NORM               0.000588925047 Eh/α |
          | HOMO-LUMO GAP               2.350443278114 eV   |
           -------------------------------------------------

 * finished run on 2023/06/20 at 15:42:54.239
