   * xtb version 6.5.1 (579679a) compiled by 'ehlert@majestix' on 2022-07-11
          program call               : /lustre/hpc/kemi/ree/PhD/git/ReactivityQM/dep/xtb-6.5.1/bin/xtb --gfn 1 /lustre/hpc/kemi/ree/PhD/git/ReactivityQM/calculations/R02/reac01prodE01/conf02/R02_reac01prodE01_conf02_gfn1.xyz --opt --vfukui --chrg -1 --uhf 0 --alpb DMSO

   ID    Z sym.   atoms
    1    6 C      1, 3, 5, 7-10, 12, 13, 15, 18, 19, 22, 24
    2    8 O      2, 4, 14, 20, 23, 25
    3    7 N      6, 11, 16, 17, 21
    4    1 H      26-43

      * Solvation model:               ALPB
        Solvent                        DMSO
        Solvent mass                       7.8130E+01 g/mol
          :  Hamiltonian                  GFN1-xTB          :
 * total energy  :   -83.8442529 Eh     change       -0.1323031E-10 Eh
 * total energy  :   -83.8592080 Eh     change       -0.1495513E-01 Eh
 * total energy  :   -83.8644934 Eh     change       -0.5285422E-02 Eh
 * total energy  :   -83.8656404 Eh     change       -0.1146993E-02 Eh
 * total energy  :   -83.8662137 Eh     change       -0.5732422E-03 Eh
 * total energy  :   -83.8664899 Eh     change       -0.2762027E-03 Eh
 * total energy  :   -83.8666555 Eh     change       -0.1656321E-03 Eh
 * total energy  :   -83.8667369 Eh     change       -0.8142447E-04 Eh
 * total energy  :   -83.8667812 Eh     change       -0.4427746E-04 Eh
 * total energy  :   -83.8668091 Eh     change       -0.2789002E-04 Eh
 * total energy  :   -83.8672690 Eh     change       -0.7459081E-05 Eh
 * total energy  :   -83.8672787 Eh     change       -0.9708178E-05 Eh
 * total energy  :   -83.8672840 Eh     change       -0.5235554E-05 Eh
 * total energy  :   -83.8672887 Eh     change       -0.4705769E-05 Eh
 * total energy  :   -83.8672964 Eh     change       -0.7736212E-05 Eh
 * total energy  :   -83.8673042 Eh     change       -0.7799978E-05 Eh
 * total energy  :   -83.8673097 Eh     change       -0.5428836E-05 Eh
 * total energy  :   -83.8673164 Eh     change       -0.6739872E-05 Eh
 * total energy  :   -83.8673195 Eh     change       -0.3099063E-05 Eh
   *** GEOMETRY OPTIMIZATION CONVERGED AFTER 44 ITERATIONS ***

 final structure:
================
43
 xtb: 6.5.1 (579679a)
C            6.15310771142055        1.47929076666695       -1.69535954923193
O            4.94977706603484        1.57397642090321       -0.92204056236473
C            4.15353234377332        0.49169207646295       -0.94281267993661
O            4.42768508251270       -0.50067011703384       -1.57585665184671
C            2.92270186935093        0.64133134470796       -0.12000278971428
N            2.10612942341274       -0.46033116995784       -0.18997887178121
C            0.99749372985153       -0.46826502016100        0.47376555723479
C            0.08701807941552       -1.67799808236969        0.50703342396766
C            0.47628788364049       -2.46153592376173        1.77818655615662
C            0.33834112280302       -2.56917378526042       -0.71800371027862
N           -1.28578496309674       -1.20990366393043        0.70258426291149
C           -2.08216276279063       -0.84821950928448       -0.58020056675859
C           -1.45738796078149        0.45486346076320       -1.16894232648892
O           -2.23267762535718       -1.82586621421204       -1.42048764963121
C           -3.45201459970992       -0.43148988487712        0.05357877564751
N           -4.11444742970166       -1.06602207143330        0.96876654522518
N           -5.33132098082651       -0.42513183213586        1.10511303225754
C           -5.32278180159657        0.54841861025247        0.25874935633210
C           -6.39552157582745        1.54312617942165        0.01240746255830
O           -4.17042258331617        0.60501578845748       -0.43956537146987
N            0.61945722771692        0.58067110239034        1.25507397829489
C            1.34122512288703        1.73534070156268        1.41452827064012
O            0.94446969632405        2.64449792000719        2.12982794351462
C            2.59445441615610        1.73132241291838        0.64817510062166
O            3.32576936237597        2.84926079231668        0.78835591087272
H            5.91144855810721        1.25113765412758       -2.73598514024509
H            6.79453022023327        0.69356630114428       -1.29025727595599
H            6.64791306624150        2.44441230108824       -1.62471552386044
H           -0.11757629461086       -3.37175610933960        1.84612857084017
H            0.29278464518664       -1.85442151437647        2.66340507769604
H            1.53145027615150       -2.73062273171780        1.74868279462407
H            0.20781362077179       -2.01269447288705       -1.64423347978203
H            1.36149411342746       -2.94484038089312       -0.67799771375659
H           -0.35443866182357       -3.40845375603582       -0.71379633290558
H           -1.81360060565514       -1.98258822078416        1.11113683410201
H           -2.08643368087064        0.79014830072776       -1.99211604636402
H           -1.39793110254235        1.23987436846071       -0.41718408778106
H           -0.46261953639667        0.24363025165892       -1.55624640438004
H           -7.26777003669663        1.29316218160385        0.61109052309811
H           -6.05155417360501        2.54253730929334        0.27880947356651
H           -6.66924572994775        1.55014821273815       -1.04209304378763
H           -0.27382626362388        0.49926372321880        1.73443442929577
H            4.15463473098259        2.82329927955716        0.28313989886222

          :  Hamiltonian                  GFN1-xTB          :
         :: total energy             -83.867319489226 Eh    ::
         :: gradient norm              0.000420289222 Eh/a0 ::
         :: HOMO-LUMO gap              0.935047909552 eV    ::
         :: SCC energy               -84.623356746306 Eh    ::
         :: -> Gsolv                  -0.118649827637 Eh    ::
         :: repulsion energy           0.783539771429 Eh    ::

    * Orbital Energies and Occupations

         #    Occupation            Energy/Eh            Energy/eV
      -------------------------------------------------------------
         1        2.0000           -0.8385310             -22.8176
       ...           ...                  ...                  ...
        56        2.0000           -0.4685416             -12.7497
        57        2.0000           -0.4616851             -12.5631
        58        2.0000           -0.4575527             -12.4506
        59        2.0000           -0.4544418             -12.3660
        60        2.0000           -0.4428450             -12.0504
        61        2.0000           -0.4375641             -11.9067
        62        2.0000           -0.4338748             -11.8063
        63        2.0000           -0.4157538             -11.3132
        64        2.0000           -0.4153282             -11.3017
        65        2.0000           -0.4096989             -11.1485
        66        2.0000           -0.3863423             -10.5129
        67        2.0000           -0.3499997              -9.5240
        68        2.0000           -0.3475511              -9.4573 (HOMO)
        69                         -0.3131887              -8.5223 (LUMO)
        70                         -0.2643782              -7.1941
        71                         -0.2306289              -6.2757
        72                         -0.2273833              -6.1874
        73                         -0.2115061              -5.7554
        74                         -0.1465942              -3.9890
        75                         -0.1349283              -3.6716
        76                         -0.1297814              -3.5315
        77                         -0.1122621              -3.0548
        78                         -0.0965248              -2.6266
        79                         -0.0911337              -2.4799
       ...                                ...                  ...
       136                          0.7356177              20.0172
      -------------------------------------------------------------
                  HL-Gap            0.0343624 Eh            0.9350 eV

Wiberg/Mayer (AO) data.
largest (>0.10) Wiberg bond orders for each atom

     #   Z sym  total        # sym  WBO       # sym  WBO       # sym  WBO
 ---------------------------------------------------------------------------
     1   6 C    3.866 --    28 H    0.986    27 H    0.980    26 H    0.980
                             2 O    0.889
     2   8 O    2.199 --     3 C    1.080     1 C    0.889     4 O    0.127
     3   6 C    3.843 --     4 O    1.668     2 O    1.080     5 C    1.010
     4   8 O    1.929 --     3 C    1.668     2 O    0.127
     5   6 C    3.966 --    24 C    1.499     6 N    1.183     3 C    1.010
     6   7 N    3.015 --     7 C    1.567     5 C    1.183
     7   6 C    3.911 --     6 N    1.567    21 N    1.172     8 C    0.977
     8   6 C    3.966 --    10 C    0.986    11 N    0.983     7 C    0.977
                             9 C    0.969
     9   6 C    3.994 --    31 H    0.986    30 H    0.986    29 H    0.983
                             8 C    0.969
    10   6 C    3.994 --     8 C    0.986    33 H    0.985    34 H    0.984
                            32 H    0.980
    11   7 N    2.992 --     8 C    0.983    35 H    0.941    12 C    0.832
    12   6 C    3.936 --    14 O    1.221    13 C    0.946    15 C    0.883
                            11 N    0.832
    13   6 C    3.992 --    37 H    0.989    36 H    0.985    38 H    0.983
                            12 C    0.946
    14   8 O    1.555 --    12 C    1.221
    15   6 C    3.809 --    16 N    1.656    20 O    1.046    12 C    0.883
    16   7 N    2.973 --    15 C    1.656    17 N    1.148
    17   7 N    2.977 --    18 C    1.657    16 N    1.148
    18   6 C    3.886 --    17 N    1.657    20 O    1.060    19 C    1.024
    19   6 C    3.993 --    18 C    1.024    39 H    0.985    41 H    0.971
                            40 H    0.969
    20   8 O    2.293 --    18 C    1.060    15 C    1.046
    21   7 N    3.479 --     7 C    1.172    22 C    1.145    42 H    0.875
                            23 O    0.135
    22   6 C    3.914 --    23 O    1.576    21 N    1.145    24 C    1.061
    23   8 O    1.872 --    22 C    1.576    21 N    0.135
    24   6 C    3.916 --     5 C    1.499    25 O    1.094    22 C    1.061
    25   8 O    2.074 --    24 C    1.094    43 H    0.806
    26   1 H    1.008 --     1 C    0.980
    27   1 H    1.007 --     1 C    0.980
    28   1 H    1.009 --     1 C    0.986
    29   1 H    1.002 --     9 C    0.983
    30   1 H    1.006 --     9 C    0.986
    31   1 H    1.006 --     9 C    0.986
    32   1 H    1.029 --    10 C    0.980
    33   1 H    1.012 --    10 C    0.985
    34   1 H    1.024 --    10 C    0.984
    35   1 H    0.984 --    11 N    0.941
    36   1 H    1.017 --    13 C    0.985
    37   1 H    1.012 --    13 C    0.989
    38   1 H    1.015 --    13 C    0.983
    39   1 H    1.003 --    19 C    0.985
    40   1 H    1.002 --    19 C    0.969
    41   1 H    1.002 --    19 C    0.971
    42   1 H    0.965 --    21 N    0.875
    43   1 H    0.858 --    25 O    0.806
 ---------------------------------------------------------------------------

           -------------------------------------------------
          | TOTAL ENERGY              -83.867319489226 Eh   |
          | GRADIENT NORM               0.000420289222 Eh/α |
          | HOMO-LUMO GAP               0.935047909552 eV   |
           -------------------------------------------------

 * finished run on 2023/06/20 at 14:52:19.774
