   * xtb version 6.5.1 (579679a) compiled by 'ehlert@majestix' on 2022-07-11
          program call               : /lustre/hpc/kemi/ree/PhD/git/ReactivityQM/dep/xtb-6.5.1/bin/xtb --gfn 1 /lustre/hpc/kemi/ree/PhD/git/ReactivityQM/calculations/R02deprot/reac01prodN02/conf04/R02deprot_reac01prodN02_conf04_gfn1.xyz --opt --vfukui --chrg 0 --uhf 0 --alpb DMSO

   ID    Z sym.   atoms
    1    6 C      1, 3, 5, 7-10, 12, 14, 15, 18, 19, 22, 24
    2    8 O      2, 4, 13, 20, 23, 25
    3    7 N      6, 11, 16, 17, 21
    4    1 H      26-42

      * Solvation model:               ALPB
        Solvent                        DMSO
        Solvent mass                       7.8130E+01 g/mol
          :  Hamiltonian                  GFN1-xTB          :
 * total energy  :   -82.9392706 Eh     change       -0.1457323E-09 Eh
 * total energy  :   -82.9588174 Eh     change       -0.1954676E-01 Eh
 * total energy  :   -82.9662517 Eh     change       -0.7434279E-02 Eh
 * total energy  :   -82.9675222 Eh     change       -0.1270549E-02 Eh
 * total energy  :   -82.9684548 Eh     change       -0.9326243E-03 Eh
 * total energy  :   -82.9688729 Eh     change       -0.4181142E-03 Eh
 * total energy  :   -82.9692647 Eh     change       -0.3917350E-03 Eh
 * total energy  :   -82.9696495 Eh     change       -0.3848413E-03 Eh
 * total energy  :   -82.9700177 Eh     change       -0.3681768E-03 Eh
 * total energy  :   -82.9703561 Eh     change       -0.3384053E-03 Eh
 * total energy  :   -82.9732815 Eh     change       -0.6939145E-05 Eh
 * total energy  :   -82.9732884 Eh     change       -0.6854124E-05 Eh
 * total energy  :   -82.9732957 Eh     change       -0.7307157E-05 Eh
 * total energy  :   -82.9733033 Eh     change       -0.7586610E-05 Eh
 * total energy  :   -82.9733106 Eh     change       -0.7327944E-05 Eh
 * total energy  :   -82.9733169 Eh     change       -0.6256606E-05 Eh
 * total energy  :   -82.9733225 Eh     change       -0.5609409E-05 Eh
 * total energy  :   -82.9733276 Eh     change       -0.5085435E-05 Eh
 * total energy  :   -82.9733322 Eh     change       -0.4661651E-05 Eh
   *** GEOMETRY OPTIMIZATION CONVERGED AFTER 54 ITERATIONS ***

 final structure:
================
42
 xtb: 6.5.1 (579679a)
C           -6.47921516593083       -1.28242485063455       -2.16922310019219
O           -5.16404758615639       -0.73105425754310       -2.19244198923779
C           -4.44102856149314       -0.87151670950847       -1.07159503009339
O           -4.88372663921234       -1.42348673991158       -0.08364958459694
C           -3.07436650296493       -0.30823781730771       -1.17176719956285
N           -2.30172556226277       -0.50055252633779       -0.05064145193469
C           -1.07151196463839       -0.06374055200174       -0.08785628956229
C           -0.23268120660208       -0.29495896190685        1.16608804203553
C           -0.29044568341445       -1.76697508659080        1.57802103989931
C           -0.71667765206150        0.62656533287338        2.29094075625528
N            1.12975789108210        0.08267582302998        0.77504027349406
C            2.22061560558254        0.01937077141317        1.46887825796361
O            2.17394356118511       -0.43454639468401        2.69522009619345
C            3.33934934920063       -0.56593311986442        3.51962738621418
C            3.45133657779163        0.45534551136907        0.83916926077025
N            4.66448459540736        0.49258422791275        1.31628460838777
N            5.45740787836306        0.97133037167918        0.33512089324366
C            4.69078296943243        1.20351223622619       -0.69480358159633
C            5.08813406568745        1.73123601337486       -2.01437719441731
O            3.41444827236767        0.89687053521016       -0.43441919185878
N           -0.44982831193084        0.56868428031001       -1.08494253072001
C           -1.15073481734529        0.81937081552458       -2.22101680752627
O           -0.69282317976166        1.40780935537958       -3.21314663585588
C           -2.54051660868554        0.34389348827501       -2.25125170907579
O           -3.19410734260634        0.60201337904729       -3.40130998487646
H           -6.91644414829031       -1.09555002156846       -3.14844857922394
H           -6.43617082939518       -2.35791681425542       -1.97587359967015
H           -7.07973400793549       -0.80319714283297       -1.39119339249753
H            0.18180251270494       -2.38615776309724        0.81710758827046
H            0.20715778871393       -1.92961081192576        2.53090780375173
H           -1.33891103692101       -2.05162188236120        1.66702474451069
H           -0.15311576442259        0.45016606666398        3.20446985500503
H           -0.59853470706190        1.66764836764662        1.99434186786481
H           -1.77132243246566        0.42468599679921        2.47449520894010
H            1.12892302731093        0.46994764079312       -0.19196548819606
H            2.98605689595153       -0.98189508876912        4.46130861470916
H            4.05864685154730       -1.23825803948706        3.04925259071350
H            3.79921881497849        0.41041298653716        3.68033281561724
H            6.16399094445522        1.88497279129283       -2.03838950626448
H            4.79795233054056        1.02887015118226       -2.79604364121168
H            4.57816339126748        2.67604607524859       -2.20480336897693
H           -2.55450361200982        1.07558736279768       -3.97447184669111

          :  Hamiltonian                  GFN1-xTB          :
         :: total energy             -82.973332211955 Eh    ::
         :: gradient norm              0.000238304540 Eh/a0 ::
         :: HOMO-LUMO gap              0.698769058332 eV    ::
         :: SCC energy               -83.742342029773 Eh    ::
         :: -> Gsolv                  -0.067567394370 Eh    ::
         :: repulsion energy           0.794234790092 Eh    ::

    * Orbital Energies and Occupations

         #    Occupation            Energy/Eh            Energy/eV
      -------------------------------------------------------------
         1        2.0000           -0.8930068             -24.3000
       ...           ...                  ...                  ...
        55        2.0000           -0.5003194             -13.6144
        56        2.0000           -0.4989632             -13.5775
        57        2.0000           -0.4880268             -13.2799
        58        2.0000           -0.4866014             -13.2411
        59        2.0000           -0.4826958             -13.1348
        60        2.0000           -0.4800854             -13.0638
        61        2.0000           -0.4731776             -12.8758
        62        2.0000           -0.4599126             -12.5149
        63        2.0000           -0.4541573             -12.3582
        64        2.0000           -0.4346865             -11.8284
        65        2.0000           -0.4175567             -11.3623
        66        2.0000           -0.3919673             -10.6660
        67        2.0000           -0.3853855             -10.4869 (HOMO)
        68        0.0000           -0.3597062              -9.7881 (LUMO)
        69                         -0.2863182              -7.7911
        70                         -0.2804289              -7.6309
        71                         -0.2444791              -6.6526
        72                         -0.2419525              -6.5839
        73                         -0.2014558              -5.4819
        74                         -0.1558194              -4.2401
        75                         -0.1506237              -4.0987
        76                         -0.1302005              -3.5429
        77                         -0.1273475              -3.4653
        78                         -0.1248945              -3.3986
       ...                                ...                  ...
       134                          0.7388865              20.1061
      -------------------------------------------------------------
                  HL-Gap            0.0256793 Eh            0.6988 eV

Wiberg/Mayer (AO) data.
largest (>0.10) Wiberg bond orders for each atom

     #   Z sym  total        # sym  WBO       # sym  WBO       # sym  WBO
 ---------------------------------------------------------------------------
     1   6 C    3.884 --    26 H    0.987    27 H    0.980    28 H    0.980
                             2 O    0.909
     2   8 O    2.188 --     3 C    1.090     1 C    0.909     4 O    0.126
     3   6 C    3.841 --     4 O    1.636     2 O    1.090     5 C    1.023
     4   8 O    1.898 --     3 C    1.636     2 O    0.126
     5   6 C    3.961 --    24 C    1.490     6 N    1.186     3 C    1.023
     6   7 N    3.002 --     7 C    1.496     5 C    1.186
     7   6 C    3.961 --     6 N    1.496    21 N    1.345     8 C    0.963
     8   6 C    3.894 --     9 C    0.984    10 C    0.976     7 C    0.963
                            11 N    0.894
     9   6 C    3.986 --    29 H    0.985    30 H    0.984     8 C    0.984
                            31 H    0.979
    10   6 C    3.985 --    33 H    0.985    32 H    0.984    34 H    0.982
                             8 C    0.976
    11   7 N    3.516 --    12 C    1.515     8 C    0.894    35 H    0.807
                            13 O    0.114
    12   6 C    3.902 --    11 N    1.515    13 O    1.168    15 C    1.072
    13   8 O    2.258 --    12 C    1.168    14 C    0.870    11 N    0.114
    14   6 C    3.839 --    36 H    0.981    37 H    0.976    38 H    0.975
                            13 O    0.870
    15   6 C    3.887 --    16 N    1.561    12 C    1.072    20 O    1.053
    16   7 N    3.026 --    15 C    1.561    17 N    1.238
    17   7 N    2.985 --    18 C    1.563    16 N    1.238
    18   6 C    3.854 --    17 N    1.563    20 O    1.088    19 C    1.038
    19   6 C    3.981 --    18 C    1.038    39 H    0.981    40 H    0.957
                            41 H    0.956
    20   8 O    2.335 --    18 C    1.088    15 C    1.053
    21   7 N    3.048 --     7 C    1.345    22 C    1.231    23 O    0.126
                            35 H    0.104
    22   6 C    3.926 --    23 O    1.494    21 N    1.231    24 C    1.064
    23   8 O    1.829 --    22 C    1.494    21 N    0.126
    24   6 C    3.908 --     5 C    1.490    25 O    1.083    22 C    1.064
    25   8 O    2.058 --    24 C    1.083    42 H    0.811
    26   1 H    1.013 --     1 C    0.987
    27   1 H    1.010 --     1 C    0.980
    28   1 H    1.010 --     1 C    0.980
    29   1 H    1.001 --     9 C    0.985
    30   1 H    1.006 --     9 C    0.984
    31   1 H    1.014 --     9 C    0.979
    32   1 H    1.004 --    10 C    0.984
    33   1 H    1.001 --    10 C    0.985
    34   1 H    1.006 --    10 C    0.982
    35   1 H    0.951 --    11 N    0.807    21 N    0.104
    36   1 H    1.004 --    14 C    0.981
    37   1 H    1.010 --    14 C    0.976
    38   1 H    1.010 --    14 C    0.975
    39   1 H    0.996 --    19 C    0.981
    40   1 H    0.993 --    19 C    0.957
    41   1 H    0.993 --    19 C    0.956
    42   1 H    0.869 --    25 O    0.811
 ---------------------------------------------------------------------------

           -------------------------------------------------
          | TOTAL ENERGY              -82.973332211955 Eh   |
          | GRADIENT NORM               0.000238304540 Eh/α |
          | HOMO-LUMO GAP               0.698769058332 eV   |
           -------------------------------------------------

 * finished run on 2023/06/20 at 18:07:05.050
