   * xtb version 6.5.1 (579679a) compiled by 'ehlert@majestix' on 2022-07-11
          program call               : /lustre/hpc/kemi/ree/PhD/git/ReactivityQM/dep/xtb-6.5.1/bin/xtb --gfn 1 /lustre/hpc/kemi/ree/PhD/git/ReactivityQM/calculations/R01/reac02prodN06/conf03/R01_reac02prodN06_conf03_gfn1.xyz --opt --vfukui --chrg 1 --uhf 0 --alpb DMSO

   ID    Z sym.   atoms
    1    6 C      1, 3, 5, 6, 8-11, 14, 16
    2    8 O      2, 4, 15, 17
    3    7 N      7, 12, 13
    4    1 H      18-33

      * Solvation model:               ALPB
        Solvent                        DMSO
        Solvent mass                       7.8130E+01 g/mol
          :  Hamiltonian                  GFN1-xTB          :
 * total energy  :   -57.7915882 Eh     change       -0.1672817E-08 Eh
 * total energy  :   -57.8071817 Eh     change       -0.1559352E-01 Eh
 * total energy  :   -57.8128072 Eh     change       -0.5625481E-02 Eh
 * total energy  :   -57.8139460 Eh     change       -0.1138821E-02 Eh
 * total energy  :   -57.8146163 Eh     change       -0.6703218E-03 Eh
 * total energy  :   -57.8148146 Eh     change       -0.1982726E-03 Eh
 * total energy  :   -57.8149594 Eh     change       -0.1447822E-03 Eh
 * total energy  :   -57.8150351 Eh     change       -0.7567190E-04 Eh
 * total energy  :   -57.8150859 Eh     change       -0.5082166E-04 Eh
 * total energy  :   -57.8151365 Eh     change       -0.5058957E-04 Eh
 * total energy  :   -57.8152751 Eh     change       -0.2811471E-04 Eh
 * total energy  :   -57.8153018 Eh     change       -0.2673816E-04 Eh
 * total energy  :   -57.8153218 Eh     change       -0.1994584E-04 Eh
 * total energy  :   -57.8153379 Eh     change       -0.1617222E-04 Eh
 * total energy  :   -57.8153509 Eh     change       -0.1299494E-04 Eh
 * total energy  :   -57.8153558 Eh     change       -0.4837489E-05 Eh
 * total energy  :   -57.8153609 Eh     change       -0.5153279E-05 Eh
 * total energy  :   -57.8153630 Eh     change       -0.2109357E-05 Eh
 * total energy  :   -57.8153650 Eh     change       -0.1974421E-05 Eh
   *** GEOMETRY OPTIMIZATION CONVERGED AFTER 22 ITERATIONS ***

 final structure:
================
33
 xtb: 6.5.1 (579679a)
C            2.72089891593265        1.95457836510274       -1.15388676003750
O            1.90636484963616        0.93254118879356       -0.52696293657217
C            2.18955635011188       -0.30246836750032       -0.78380905883531
O            3.06061811148812       -0.75791490190396       -1.44924486683404
C            1.13594907956647       -1.29424501369653       -0.04006684566577
C            1.40433012513245       -2.70818605764361       -0.55882965173479
N           -0.14276435471831       -0.81295568096608       -0.44626977888238
C           -0.83287803804178       -0.03323332434689        0.29416081949878
C           -2.18815545985990        0.45680826893427       -0.19373054958551
C           -3.28248081498605       -0.05854310600076        0.75044417135071
C           -2.18988128522231        1.98914052217635       -0.25728382920128
N           -2.43644845449286       -0.06473665836901       -1.52282499536084
N           -0.41746265532778        0.38069618429869        1.55205603345565
C            0.69894502271356       -0.07714671101081        2.16964877650395
O            1.06585385131373        0.21899040417844        3.28497883153409
C            1.46564289438044       -1.06290625660322        1.35359254200445
O            2.45785469300398       -1.64192684456090        1.91102993183061
H            2.37276428191778        2.89895227370276       -0.74398888661496
H            3.76871430996232        1.78016430262658       -0.90824405239198
H            2.57377704010014        1.91918637615553       -2.23338849902959
H            2.42101176419135       -3.00465554641128       -0.31026656026148
H            0.69758346515963       -3.39229444846979       -0.09510098370951
H            1.27030436612276       -2.72208165361869       -1.63789881312902
H           -3.24615775370895       -1.14553365090716        0.80702085631052
H           -3.15423228654755        0.35232153155568        1.74988338600513
H           -4.25472103907416        0.24392852360743        0.36367122663529
H           -2.09902156172286        2.41815942667880        0.73854668595815
H           -1.36076591015155        2.33911528409282       -0.87028003084261
H           -3.12642454610523        2.32271318133765       -0.70213545089372
H           -1.71033276335817        0.25673801011935       -2.15018089198589
H           -2.39497286509123       -1.07589928497912       -1.49725674964000
H           -0.98292567557311        1.03090410056743        2.08239002007600
H            2.60945734324818       -1.34020843694329        2.83600991004383

          :  Hamiltonian                  GFN1-xTB          :
         :: total energy             -57.815364996420 Eh    ::
         :: gradient norm              0.000407318881 Eh/a0 ::
         :: HOMO-LUMO gap              0.245067571811 eV    ::
         :: SCC energy               -58.394403176155 Eh    ::
         :: -> Gsolv                  -0.097616643908 Eh    ::
         :: repulsion energy           0.599043087242 Eh    ::

    * Orbital Energies and Occupations

         #    Occupation            Energy/Eh            Energy/eV
      -------------------------------------------------------------
         1        2.0000           -0.9144496             -24.8834
       ...           ...                  ...                  ...
        35        2.0000           -0.5501482             -14.9703
        36        2.0000           -0.5484953             -14.9253
        37        2.0000           -0.5391866             -14.6720
        38        2.0000           -0.5351430             -14.5620
        39        2.0000           -0.5281930             -14.3729
        40        2.0000           -0.5251186             -14.2892
        41        2.0000           -0.5244924             -14.2722
        42        2.0000           -0.5127060             -13.9514
        43        2.0000           -0.5053566             -13.7515
        44        2.0000           -0.5032954             -13.6954
        45        2.0000           -0.4901771             -13.3384
        46        2.0000           -0.4867945             -13.2464
        47        1.9827           -0.4315474             -11.7430 (HOMO)
        48        0.0173           -0.4225413             -11.4979 (LUMO)
        49                         -0.3318027              -9.0288
        50                         -0.3048484              -8.2953
        51                         -0.2643863              -7.1943
        52                         -0.1639917              -4.4624
        53                         -0.1573852              -4.2827
        54                         -0.1526078              -4.1527
        55                         -0.1479957              -4.0272
        56                         -0.1358167              -3.6958
        57                         -0.1253066              -3.4098
        58                         -0.1023583              -2.7853
       ...                                ...                  ...
       100                          0.7458628              20.2960
      -------------------------------------------------------------
                  HL-Gap            0.0090061 Eh            0.2451 eV

Wiberg/Mayer (AO) data.
largest (>0.10) Wiberg bond orders for each atom

     #   Z sym  total        # sym  WBO       # sym  WBO       # sym  WBO
 ---------------------------------------------------------------------------
     1   6 C    3.819 --    18 H    0.982    19 H    0.979    20 H    0.978
                             2 O    0.839
     2   8 O    2.248 --     3 C    1.214     1 C    0.839     4 O    0.147
     3   6 C    3.853 --     4 O    1.750     2 O    1.214     5 C    0.710
     4   8 O    2.088 --     3 C    1.750     2 O    0.147
     5   6 C    3.956 --    16 C    1.103     7 N    1.017     6 C    0.955
                             3 C    0.710
     6   6 C    3.967 --    21 H    0.981    23 H    0.980    22 H    0.978
                             5 C    0.955
     7   7 N    3.030 --     8 C    1.689     5 C    1.017
     8   6 C    3.894 --     7 N    1.689    13 N    1.089     9 C    0.964
     9   6 C    3.964 --    12 N    1.004    11 C    0.980    10 C    0.979
                             8 C    0.964
    10   6 C    3.990 --    24 H    0.984    25 H    0.984    26 H    0.981
                             9 C    0.979
    11   6 C    3.991 --    28 H    0.985    27 H    0.983    29 H    0.981
                             9 C    0.980
    12   7 N    2.950 --     9 C    1.004    30 H    0.938    31 H    0.938
    13   7 N    3.478 --    14 C    1.202     8 C    1.089    32 H    0.868
                            15 O    0.168
    14   6 C    3.920 --    15 O    1.632    13 N    1.202    16 C    0.977
    15   8 O    1.969 --    14 C    1.632    13 N    0.168
    16   6 C    3.792 --    17 O    1.356     5 C    1.103    14 C    0.977
    17   8 O    2.275 --    16 C    1.356    33 H    0.744
    18   1 H    1.003 --     1 C    0.982
    19   1 H    0.998 --     1 C    0.979
    20   1 H    0.997 --     1 C    0.978
    21   1 H    0.998 --     6 C    0.981
    22   1 H    0.994 --     6 C    0.978
    23   1 H    0.998 --     6 C    0.980
    24   1 H    0.999 --    10 C    0.984
    25   1 H    0.999 --    10 C    0.984
    26   1 H    1.001 --    10 C    0.981
    27   1 H    0.998 --    11 C    0.983
    28   1 H    0.999 --    11 C    0.985
    29   1 H    1.001 --    11 C    0.981
    30   1 H    0.959 --    12 N    0.938
    31   1 H    0.960 --    12 N    0.938
    32   1 H    0.913 --    13 N    0.868
    33   1 H    0.788 --    17 O    0.744
 ---------------------------------------------------------------------------

           -------------------------------------------------
          | TOTAL ENERGY              -57.815364996420 Eh   |
          | GRADIENT NORM               0.000407318881 Eh/α |
          | HOMO-LUMO GAP               0.245067571811 eV   |
           -------------------------------------------------

 * finished run on 2023/06/20 at 15:06:57.126
