                         Program Version 5.0.1 -  RELEASE  -
|  1> # ORCA input file
|  2> ! SP r2SCAN-3c CPCM
|  3>
|  4> %maxcore 1875.0
|  5> %pal nprocs 4 end
|  6> %cpcm smd true SMDsolvent "DMSO" end
|  7>
|  8> *xyz 1 1
|  9> C       3.763884   -2.722852    0.180717
| 10> O       2.535225   -1.979567    0.120076
| 11> C       2.632123   -0.676294    0.008906
| 12> O       3.681758   -0.065814   -0.039662
| 13> C       1.308542    0.020505   -0.062775
| 14> N       0.196204   -0.734422    0.009430
| 15> C      -0.967177   -0.155287   -0.075982
| 16> C      -2.265432   -0.917455    0.020020
| 17> C      -2.156723   -2.233941   -0.760288
| 18> C      -2.545548   -1.184883    1.506354
| 19> N      -3.307864   -0.047865   -0.511079
| 20> N      -1.064772    1.190057   -0.222750
| 21> C      -0.013317    2.013072   -0.299740
| 22> O      -0.315853    3.276443   -0.450802
| 23> C       0.671547    4.315767   -0.569838
| 24> C       1.268659    1.406233   -0.213014
| 25> O       2.353587    2.168576   -0.285521
| 26> H       4.357899   -2.523369   -0.713010
| 27> H       4.326873   -2.428706    1.068333
| 28> H       3.483942   -3.772635    0.231819
| 29> H      -3.095855   -2.778646   -0.686532
| 30> H      -1.944491   -2.031168   -1.808713
| 31> H      -1.352484   -2.842139   -0.347560
| 32> H      -3.469378   -1.752525    1.603318
| 33> H      -2.649501   -0.241725    2.040589
| 34> H      -1.728115   -1.756345    1.943764
| 35> H      -4.210022   -0.330160   -0.154417
| 36> H      -3.335647   -0.120515   -1.518868
| 37> H      -2.015798    1.558456   -0.303610
| 38> H       0.102729    5.237195   -0.687520
| 39> H       1.284125    4.358907    0.331279
| 40> H       1.297933    4.140819   -1.445130
| 41> H       3.172950    1.610285   -0.221494
| 42> **                         ****END OF INPUT****

CARTESIAN COORDINATES (ANGSTROEM)
---------------------------------
  C      3.763884   -2.722852    0.180717
  O      2.535225   -1.979567    0.120076
  C      2.632123   -0.676294    0.008906
  O      3.681758   -0.065814   -0.039662
  C      1.308542    0.020505   -0.062775
  N      0.196204   -0.734422    0.009430
  C     -0.967177   -0.155287   -0.075982
  C     -2.265432   -0.917455    0.020020
  C     -2.156723   -2.233941   -0.760288
  C     -2.545548   -1.184883    1.506354
  N     -3.307864   -0.047865   -0.511079
  N     -1.064772    1.190057   -0.222750
  C     -0.013317    2.013072   -0.299740
  O     -0.315853    3.276443   -0.450802
  C      0.671547    4.315767   -0.569838
  C      1.268659    1.406233   -0.213014
  O      2.353587    2.168576   -0.285521
  H      4.357899   -2.523369   -0.713010
  H      4.326873   -2.428706    1.068333
  H      3.483942   -3.772635    0.231819
  H     -3.095855   -2.778646   -0.686532
  H     -1.944491   -2.031168   -1.808713
  H     -1.352484   -2.842139   -0.347560
  H     -3.469378   -1.752525    1.603318
  H     -2.649501   -0.241725    2.040589
  H     -1.728115   -1.756345    1.943764
  H     -4.210022   -0.330160   -0.154417
  H     -3.335647   -0.120515   -1.518868
  H     -2.015798    1.558456   -0.303610
  H      0.102729    5.237195   -0.687520
  H      1.284125    4.358907    0.331279
  H      1.297933    4.140819   -1.445130
  H      3.172950    1.610285   -0.221494

 Total Charge           Charge          ....    1
 Multiplicity           Mult            ....    1
 Number of Electrons    NEL             ....  128
 Basis Dimension        Dim             ....  438

ORBITAL ENERGIES
----------------

  NO   OCC          E(Eh)            E(eV)
   0   2.0000     -19.051664      -518.4221
   1   2.0000     -19.027692      -517.7698
   2   2.0000     -19.016784      -517.4730
   3   2.0000     -18.977034      -516.3914
   4   2.0000     -14.271663      -388.3517
   5   2.0000     -14.199012      -386.3748
   6   2.0000     -14.152866      -385.1191
   7   2.0000     -10.208358      -277.7836
   8   2.0000     -10.195222      -277.4261
   9   2.0000     -10.160907      -276.4923
  10   2.0000     -10.150575      -276.2112
  11   2.0000     -10.130604      -275.6677
  12   2.0000     -10.098711      -274.7999
  13   2.0000     -10.097067      -274.7552
  14   2.0000     -10.088739      -274.5285
  15   2.0000     -10.028132      -272.8793
  16   2.0000     -10.022217      -272.7184
  17   2.0000      -1.116977       -30.3945
  18   2.0000      -1.109525       -30.1917
  19   2.0000      -1.070885       -29.1403
  20   2.0000      -1.021176       -27.7876
  21   2.0000      -1.018701       -27.7203
  22   2.0000      -0.924571       -25.1589
  23   2.0000      -0.884582       -24.0707
  24   2.0000      -0.807263       -21.9667
  25   2.0000      -0.746833       -20.3224
  26   2.0000      -0.732886       -19.9428
  27   2.0000      -0.729447       -19.8493
  28   2.0000      -0.684634       -18.6298
  29   2.0000      -0.665296       -18.1036
  30   2.0000      -0.661186       -17.9918
  31   2.0000      -0.597727       -16.2650
  32   2.0000      -0.581018       -15.8103
  33   2.0000      -0.568138       -15.4598
  34   2.0000      -0.560303       -15.2466
  35   2.0000      -0.533130       -14.5072
  36   2.0000      -0.517247       -14.0750
  37   2.0000      -0.501908       -13.6576
  38   2.0000      -0.499997       -13.6056
  39   2.0000      -0.475814       -12.9476
  40   2.0000      -0.475426       -12.9370
  41   2.0000      -0.471280       -12.8242
  42   2.0000      -0.446119       -12.1395
  43   2.0000      -0.433606       -11.7990
  44   2.0000      -0.431345       -11.7375
  45   2.0000      -0.422015       -11.4836
  46   2.0000      -0.409351       -11.1390
  47   2.0000      -0.406887       -11.0720
  48   2.0000      -0.397599       -10.8192
  49   2.0000      -0.388546       -10.5729
  50   2.0000      -0.378454       -10.2983
  51   2.0000      -0.365563        -9.9475
  52   2.0000      -0.352559        -9.5936
  53   2.0000      -0.351171        -9.5558
  54   2.0000      -0.344868        -9.3843
  55   2.0000      -0.343271        -9.3409
  56   2.0000      -0.337289        -9.1781
  57   2.0000      -0.323285        -8.7970
  58   2.0000      -0.318104        -8.6561
  59   2.0000      -0.301205        -8.1962
  60   2.0000      -0.300123        -8.1667
  61   2.0000      -0.270063        -7.3488
  62   2.0000      -0.246927        -6.7192
  63   2.0000      -0.234794        -6.3891
  64   0.0000      -0.133816        -3.6413
  65   0.0000      -0.074348        -2.0231
  66   0.0000      -0.024356        -0.6627
  67   0.0000       0.021728         0.5913
  68   0.0000       0.047413         1.2902

MULLIKEN ATOMIC CHARGES
-----------------------
   0 C :   -0.303188
   1 O :   -0.178653
   2 C :    0.199391
   3 O :   -0.470622
   4 C :    0.254958
   5 N :   -0.173504
   6 C :    0.308585
   7 C :    0.163861
   8 C :   -0.536706
   9 C :   -0.566940
  10 N :   -0.692787
  11 N :   -0.001575
  12 C :    0.082757
  13 O :   -0.154240
  14 C :   -0.300575
  15 C :    0.152272
  16 O :   -0.371762
  17 H :    0.185885
  18 H :    0.186926
  19 H :    0.186555
  20 H :    0.186211
  21 H :    0.176891
  22 H :    0.178312
  23 H :    0.188896
  24 H :    0.183469
  25 H :    0.191122
  26 H :    0.306332
  27 H :    0.298489
  28 H :    0.353840
  29 H :    0.190399
  30 H :    0.194050
  31 H :    0.193734
  32 H :    0.387616
Sum of atomic charges:    1.0000000

LOEWDIN ATOMIC CHARGES
----------------------
   0 C :   -0.022230
   1 O :   -0.537917
   2 C :    0.414121
   3 O :   -0.439952
   4 C :    0.252078
   5 N :   -0.495934
   6 C :    0.383164
   7 C :    0.061851
   8 C :   -0.361285
   9 C :   -0.343305
  10 N :   -0.666575
  11 N :   -0.391079
  12 C :    0.457608
  13 O :   -0.523185
  14 C :   -0.000165
  15 C :    0.289400
  16 O :   -0.449034
  17 H :    0.188972
  18 H :    0.188767
  19 H :    0.192374
  20 H :    0.170906
  21 H :    0.171442
  22 H :    0.173180
  23 H :    0.173933
  24 H :    0.174224
  25 H :    0.175084
  26 H :    0.263249
  27 H :    0.259129
  28 H :    0.333705
  29 H :    0.195854
  30 H :    0.193915
  31 H :    0.193786
  32 H :    0.323920

  Mayer bond orders larger than 0.100000
B(  0-C ,  1-O ) :   0.8148 B(  0-C , 17-H ) :   0.9508 B(  0-C , 18-H ) :   0.9498
B(  0-C , 19-H ) :   0.9581 B(  1-O ,  2-C ) :   1.2377 B(  2-C ,  3-O ) :   1.7082
B(  2-C ,  4-C ) :   1.0301 B(  4-C ,  5-N ) :   1.1595 B(  4-C , 15-C ) :   1.2955
B(  5-N ,  6-C ) :   1.4388 B(  6-C ,  7-C ) :   0.8555 B(  6-C , 10-N ) :  -0.1032
B(  6-C , 11-N ) :   1.1578 B(  7-C ,  8-C ) :   0.9587 B(  7-C ,  9-C ) :   0.9138
B(  7-C , 10-N ) :   0.9290 B(  8-C , 20-H ) :   0.9668 B(  8-C , 21-H ) :   0.9619
B(  8-C , 22-H ) :   0.9642 B(  9-C , 23-H ) :   0.9575 B(  9-C , 24-H ) :   0.9571
B(  9-C , 25-H ) :   0.9664 B( 10-N , 26-H ) :   0.9051 B( 10-N , 27-H ) :   0.9060
B( 11-N , 12-C ) :   1.3790 B( 11-N , 28-H ) :   0.8229 B( 12-C , 13-O ) :   1.4222
B( 12-C , 15-C ) :   1.1232 B( 13-O , 14-C ) :   0.8090 B( 14-C , 29-H ) :   0.9507
B( 14-C , 30-H ) :   0.9448 B( 14-C , 31-H ) :   0.9450 B( 15-C , 16-O ) :   1.0712
B( 16-O , 32-H ) :   0.7463

Dispersion correction           -0.012679982
FINAL SINGLE POINT ENERGY      -855.562475138276

DIPOLE MOMENT
-------------
                                X             Y             Z
Electronic contribution:      9.28419       7.76249      -1.30265
Nuclear contribution   :    -10.80670      -6.80401       0.88585
                        -----------------------------------------
Total Dipole Moment    :     -1.52251       0.95848      -0.41680
                        -----------------------------------------
Magnitude (a.u.)       :      1.84674
Magnitude (Debye)      :      4.69404

Rotational constants in cm-1:     0.016991     0.013522     0.007943
Rotational constants in MHz :   509.372136   405.366734   238.121042

                             ****ORCA TERMINATED NORMALLY****
TOTAL RUN TIME: 0 days 0 hours 1 minutes 21 seconds 572 msec
