   * xtb version 6.5.1 (579679a) compiled by 'ehlert@majestix' on 2022-07-11
          program call               : /lustre/hpc/kemi/ree/PhD/git/ReactivityQM/dep/xtb-6.5.1/bin/xtb --gfn 1 /lustre/hpc/kemi/ree/PhD/git/ReactivityQM/calculations/R01/reac02prodN12/conf05/R01_reac02prodN12_conf05_gfn1.xyz --opt --vfukui --chrg 1 --uhf 0 --alpb DMSO

   ID    Z sym.   atoms
    1    6 C      1, 3, 5, 7-10, 13, 15, 16
    2    8 O      2, 4, 14, 17
    3    7 N      6, 11, 12
    4    1 H      18-33

      * Solvation model:               ALPB
        Solvent                        DMSO
        Solvent mass                       7.8130E+01 g/mol
          :  Hamiltonian                  GFN1-xTB          :
 * total energy  :   -57.8407457 Eh     change       -0.3545608E-11 Eh
 * total energy  :   -57.8585631 Eh     change       -0.1781743E-01 Eh
 * total energy  :   -57.8643248 Eh     change       -0.5761613E-02 Eh
 * total energy  :   -57.8658054 Eh     change       -0.1480631E-02 Eh
 * total energy  :   -57.8668778 Eh     change       -0.1072442E-02 Eh
 * total energy  :   -57.8672359 Eh     change       -0.3580617E-03 Eh
 * total energy  :   -57.8674141 Eh     change       -0.1782010E-03 Eh
 * total energy  :   -57.8675098 Eh     change       -0.9567241E-04 Eh
 * total energy  :   -57.8675724 Eh     change       -0.6265026E-04 Eh
 * total energy  :   -57.8676263 Eh     change       -0.5390493E-04 Eh
 * total energy  :   -57.8679007 Eh     change       -0.1264100E-04 Eh
 * total energy  :   -57.8679071 Eh     change       -0.6468675E-05 Eh
 * total energy  :   -57.8679150 Eh     change       -0.7885994E-05 Eh
 * total energy  :   -57.8679233 Eh     change       -0.8244823E-05 Eh
 * total energy  :   -57.8679308 Eh     change       -0.7500788E-05 Eh
 * total energy  :   -57.8679382 Eh     change       -0.7381993E-05 Eh
 * total energy  :   -57.8679449 Eh     change       -0.6769798E-05 Eh
 * total energy  :   -57.8679506 Eh     change       -0.5662000E-05 Eh
 * total energy  :   -57.8679554 Eh     change       -0.4800543E-05 Eh
   *** GEOMETRY OPTIMIZATION CONVERGED AFTER 29 ITERATIONS ***

 final structure:
================
33
 xtb: 6.5.1 (579679a)
C            3.76388401803975       -2.72285160754828        0.18071722472586
O            2.53522521662415       -1.97956687437949        0.12007638598335
C            2.63212319608781       -0.67629357301084        0.00890595661592
O            3.68175757418512       -0.06581378851056       -0.03966235146911
C            1.30854205239628        0.02050464307438       -0.06277484218743
N            0.19620376633393       -0.73442227506939        0.00942959003133
C           -0.96717714286617       -0.15528694312867       -0.07598204475807
C           -2.26543247306230       -0.91745532076184        0.02002009997982
C           -2.15672280926303       -2.23394125576034       -0.76028795090098
C           -2.54554776523540       -1.18488308336826        1.50635415504677
N           -3.30786422639871       -0.04786461020654       -0.51107909540938
N           -1.06477225966138        1.19005711099574       -0.22275021261778
C           -0.01331708820595        2.01307214471572       -0.29974026805416
O           -0.31585328057626        3.27644256963061       -0.45080174762253
C            0.67154683888456        4.31576742457510       -0.56983813863037
C            1.26865940980043        1.40623270057372       -0.21301437507128
O            2.35358663811917        2.16857572057231       -0.28552073522451
H            4.35789940345663       -2.52336937462810       -0.71301008162215
H            4.32687268618881       -2.42870638075617        1.06833257155094
H            3.48394217235170       -3.77263547288352        0.23181870347322
H           -3.09585544283867       -2.77864575092959       -0.68653241114771
H           -1.94449104348972       -2.03116752665105       -1.80871345920518
H           -1.35248355268677       -2.84213867557151       -0.34755988526355
H           -3.46937820797987       -1.75252482394429        1.60331826109456
H           -2.64950147830211       -0.24172511452384        2.04058916492958
H           -1.72811491121393       -1.75634487468378        1.94376421511338
H           -4.21002233732028       -0.33015953306863       -0.15441665143047
H           -3.33564664347817       -0.12051485311174       -1.51886758835404
H           -2.01579784934210        1.55845610175256       -0.30360976318915
H            0.10272865431671        5.23719528790300       -0.68751997657055
H            1.28412491074640        4.35890733641683        0.33127923653562
H            1.29793266461694        4.14081857301202       -1.44512985949711
H            3.17295030977333        1.61028509927651       -0.22149412685513

          :  Hamiltonian                  GFN1-xTB          :
         :: total energy             -57.867955388354 Eh    ::
         :: gradient norm              0.000343901434 Eh/a0 ::
         :: HOMO-LUMO gap              1.742168801439 eV    ::
         :: SCC energy               -58.439873333513 Eh    ::
         :: -> Gsolv                  -0.087163621620 Eh    ::
         :: repulsion energy           0.589851435804 Eh    ::

    * Orbital Energies and Occupations

         #    Occupation            Energy/Eh            Energy/eV
      -------------------------------------------------------------
         1        2.0000           -0.8911900             -24.2505
       ...           ...                  ...                  ...
        35        2.0000           -0.5385340             -14.6543
        36        2.0000           -0.5344141             -14.5421
        37        2.0000           -0.5309780             -14.4486
        38        2.0000           -0.5307271             -14.4418
        39        2.0000           -0.5287524             -14.3881
        40        2.0000           -0.5220007             -14.2044
        41        2.0000           -0.5204237             -14.1614
        42        2.0000           -0.5163319             -14.0501
        43        2.0000           -0.5084274             -13.8350
        44        2.0000           -0.5030842             -13.6896
        45        2.0000           -0.4836362             -13.1604
        46        2.0000           -0.4749621             -12.9244
        47        2.0000           -0.4391473             -11.9498 (HOMO)
        48                         -0.3751237             -10.2076 (LUMO)
        49                         -0.3278810              -8.9221
        50                         -0.2841126              -7.7311
        51                         -0.2015666              -5.4849
        52                         -0.1574910              -4.2855
        53                         -0.1482968              -4.0354
        54                         -0.1387735              -3.7762
        55                         -0.1350487              -3.6749
        56                         -0.1267228              -3.4483
        57                         -0.1108892              -3.0174
        58                         -0.1026036              -2.7920
       ...                                ...                  ...
       100                          0.6832860              18.5932
      -------------------------------------------------------------
                  HL-Gap            0.0640235 Eh            1.7422 eV

Wiberg/Mayer (AO) data.
largest (>0.10) Wiberg bond orders for each atom

     #   Z sym  total        # sym  WBO       # sym  WBO       # sym  WBO
 ---------------------------------------------------------------------------
     1   6 C    3.848 --    20 H    0.985    18 H    0.977    19 H    0.977
                             2 O    0.875
     2   8 O    2.244 --     3 C    1.174     1 C    0.875     4 O    0.142
     3   6 C    3.856 --     4 O    1.622     2 O    1.174     5 C    0.985
     4   8 O    1.972 --     3 C    1.622     2 O    0.142
     5   6 C    3.970 --    16 C    1.379     6 N    1.297     3 C    0.985
     6   7 N    3.039 --     7 C    1.498     5 C    1.297
     7   6 C    3.898 --     6 N    1.498    12 N    1.197     8 C    0.983
     8   6 C    3.959 --    11 N    0.991     7 C    0.983     9 C    0.980
                            10 C    0.970
     9   6 C    3.990 --    22 H    0.984    21 H    0.983    23 H    0.983
                             8 C    0.980
    10   6 C    3.988 --    25 H    0.985    26 H    0.985    24 H    0.980
                             8 C    0.970
    11   7 N    2.989 --     8 C    0.991    28 H    0.934    27 H    0.929
    12   7 N    3.547 --    13 C    1.276     7 C    1.197    29 H    0.838
    13   6 C    3.894 --    12 N    1.276    16 C    1.205    14 O    1.175
    14   8 O    2.252 --    13 C    1.175    15 C    0.861
    15   6 C    3.829 --    30 H    0.981    32 H    0.977    31 H    0.977
                            14 O    0.861
    16   6 C    3.933 --     5 C    1.379    13 C    1.205    17 O    1.134
    17   8 O    2.093 --    16 C    1.134    33 H    0.743
    18   1 H    1.002 --     1 C    0.977
    19   1 H    1.002 --     1 C    0.977
    20   1 H    1.007 --     1 C    0.985
    21   1 H    0.999 --     9 C    0.983
    22   1 H    1.000 --     9 C    0.984
    23   1 H    1.005 --     9 C    0.983
    24   1 H    0.997 --    10 C    0.980
    25   1 H    1.000 --    10 C    0.985
    26   1 H    1.001 --    10 C    0.985
    27   1 H    0.943 --    11 N    0.929
    28   1 H    0.946 --    11 N    0.934
    29   1 H    0.932 --    12 N    0.838
    30   1 H    1.004 --    15 C    0.981
    31   1 H    1.005 --    15 C    0.977
    32   1 H    1.005 --    15 C    0.977
    33   1 H    0.828 --    17 O    0.743
 ---------------------------------------------------------------------------

           -------------------------------------------------
          | TOTAL ENERGY              -57.867955388354 Eh   |
          | GRADIENT NORM               0.000343901434 Eh/α |
          | HOMO-LUMO GAP               1.742168801439 eV   |
           -------------------------------------------------

 * finished run on 2023/06/20 at 15:11:46.315
