   * xtb version 6.5.1 (579679a) compiled by 'ehlert@majestix' on 2022-07-11
          program call               : /lustre/hpc/kemi/ree/PhD/git/ReactivityQM/dep/xtb-6.5.1/bin/xtb --gfn 1 /lustre/hpc/kemi/ree/PhD/git/ReactivityQM/calculations/R02oxygendeprot/reac01prodN17/conf06/R02oxygendeprot_reac01prodN17_conf06_gfn1.xyz --opt --vfukui --chrg 0 --uhf 0 --alpb DMSO

   ID    Z sym.   atoms
    1    6 C      1, 3, 5, 7-10, 12, 13, 15, 18, 19, 22, 24
    2    8 O      2, 4, 14, 20, 23, 25
    3    7 N      6, 11, 16, 17, 21
    4    1 H      26-42

      * Solvation model:               ALPB
        Solvent                        DMSO
        Solvent mass                       7.8130E+01 g/mol
          :  Hamiltonian                  GFN1-xTB          :
 * total energy  :   -82.9263200 Eh     change       -0.1684981E-09 Eh
 * total energy  :   -82.9402420 Eh     change       -0.1392202E-01 Eh
 * total energy  :   -82.9451451 Eh     change       -0.4903127E-02 Eh
 * total energy  :   -82.9461767 Eh     change       -0.1031584E-02 Eh
 * total energy  :   -82.9469733 Eh     change       -0.7966262E-03 Eh
 * total energy  :   -82.9475051 Eh     change       -0.5317507E-03 Eh
 * total energy  :   -82.9479687 Eh     change       -0.4636044E-03 Eh
 * total energy  :   -82.9483408 Eh     change       -0.3721068E-03 Eh
 * total energy  :   -82.9485737 Eh     change       -0.2329590E-03 Eh
 * total energy  :   -82.9487057 Eh     change       -0.1319239E-03 Eh
 * total energy  :   -82.9868369 Eh     change       -0.4402882E-05 Eh
 * total energy  :   -82.9868431 Eh     change       -0.6176820E-05 Eh
 * total energy  :   -82.9868462 Eh     change       -0.3130204E-05 Eh
 * total energy  :   -82.9868539 Eh     change       -0.7686945E-05 Eh
 * total energy  :   -82.9868641 Eh     change       -0.1016404E-04 Eh
 * total energy  :   -82.9868722 Eh     change       -0.8145813E-05 Eh
 * total energy  :   -82.9868783 Eh     change       -0.6118983E-05 Eh
 * total energy  :   -82.9868836 Eh     change       -0.5311736E-05 Eh
 * total energy  :   -82.9868882 Eh     change       -0.4514812E-05 Eh
   *** GEOMETRY OPTIMIZATION CONVERGED AFTER 190 ITERATIONS ***

 final structure:
================
42
 xtb: 6.5.1 (579679a)
C           -2.09511595015465        3.95711183280631        2.37509977205203
O           -2.39343739154106        2.77844620698134        1.62925607952374
C           -1.34722771674223        2.14696835501334        1.07832616461074
O           -0.20993626386134        2.56107211723338        1.21940855752057
C           -1.72312214743654        0.95488087915174        0.31656110878835
N           -0.72021361246938        0.27611019336639       -0.37964120732310
C           -0.95541728924198       -0.74407235537703       -1.15335167075873
C            0.21550743178976       -1.28044270275837       -1.92894483037442
C            0.25700021358991       -2.80635768346285       -1.97097825214146
C            0.20580065647144       -0.67280539242185       -3.33436115209581
N            1.33967413681157       -0.78062173990789       -1.11382431583934
C            2.62913695767755       -0.56754219126080       -1.78211948069005
C            0.78052506132847        0.76174093927896       -0.47166905997478
O            1.00209405919030        1.65557197525418       -1.26978459819749
C            1.42291041767439        0.65478664158558        0.88544977707490
N            2.44875535538742        1.29694029071119        1.33532303637808
N            2.75153272084128        0.74225923235266        2.55134908208251
C            1.90740538245766       -0.21570037612647        2.74774311117023
C            1.82170340501622       -1.13174037291236        3.90634264359923
O            1.03809444086428       -0.33703120722660        1.71983082086729
N           -2.19820589393856       -1.24144370213929       -1.28794639369035
C           -3.31339683813542       -0.73640206284640       -0.62959415058562
O           -4.39346087916652       -1.26313871084125       -0.79049308188951
C           -3.06730320783958        0.48179519829691        0.23941391520527
O           -4.03775232624778        0.97692008222092        0.81270662623294
H           -3.04928677467988        4.37739304042192        2.68970017137881
H           -1.48681448858852        3.71064328285406        3.24938655492824
H           -1.55386974322598        4.67581624763257        1.75327608152609
H            0.19005921642905       -3.21774967212206       -0.96529614378913
H           -0.57073156077235       -3.18473525327675       -2.56719131286378
H            1.18879001906963       -3.13438812684211       -2.42708565529112
H            0.28440270164642        0.41269938084403       -3.28012559755534
H            1.02979807309470       -1.07004336637953       -3.92215176375095
H           -0.72992521970638       -0.93874516919415       -3.82313985644964
H            1.46600086322234       -1.41319780673606       -0.32689342282889
H            3.37098812452161       -0.37982472709415       -1.00790545802653
H            2.89629050330599       -1.45554787260632       -2.34827484505887
H            2.55211716511501        0.29831951982950       -2.43808041087600
H            1.99158333843443       -2.15709768216899        3.57943807254780
H            2.57274519085918       -0.85870460105695        4.64392733875033
H            0.82963616253953       -1.08189978533952        4.35476343877412
H           -2.34733229362572       -2.05024285573398       -1.86845069294072

          :  Hamiltonian                  GFN1-xTB          :
         :: total energy             -82.986888156770 Eh    ::
         :: gradient norm              0.000913614818 Eh/a0 ::
         :: HOMO-LUMO gap              2.590117378100 eV    ::
         :: SCC energy               -83.753075635333 Eh    ::
         :: -> Gsolv                  -0.088596514781 Eh    ::
         :: repulsion energy           0.795873209597 Eh    ::

    * Orbital Energies and Occupations

         #    Occupation            Energy/Eh            Energy/eV
      -------------------------------------------------------------
         1        2.0000           -0.8650077             -23.5381
       ...           ...                  ...                  ...
        55        2.0000           -0.5085329             -13.8379
        56        2.0000           -0.5025752             -13.6758
        57        2.0000           -0.5008132             -13.6278
        58        2.0000           -0.4942632             -13.4496
        59        2.0000           -0.4876638             -13.2700
        60        2.0000           -0.4782895             -13.0149
        61        2.0000           -0.4760188             -12.9531
        62        2.0000           -0.4739755             -12.8975
        63        2.0000           -0.4615180             -12.5585
        64        2.0000           -0.4507637             -12.2659
        65        2.0000           -0.4481090             -12.1937
        66        2.0000           -0.4241397             -11.5414
        67        2.0000           -0.4132024             -11.2438 (HOMO)
        68                         -0.3180173              -8.6537 (LUMO)
        69                         -0.3021731              -8.2225
        70                         -0.2843352              -7.7372
        71                         -0.2535388              -6.8991
        72                         -0.2342198              -6.3734
        73                         -0.1806917              -4.9169
        74                         -0.1586532              -4.3172
        75                         -0.1538246              -4.1858
        76                         -0.1470321              -4.0009
        77                         -0.1430795              -3.8934
        78                         -0.1413804              -3.8472
       ...                                ...                  ...
       134                          0.7518277              20.4583
      -------------------------------------------------------------
                  HL-Gap            0.0951851 Eh            2.5901 eV

Wiberg/Mayer (AO) data.
largest (>0.10) Wiberg bond orders for each atom

     #   Z sym  total        # sym  WBO       # sym  WBO       # sym  WBO
 ---------------------------------------------------------------------------
     1   6 C    3.881 --    26 H    0.986    27 H    0.980    28 H    0.980
                             2 O    0.907
     2   8 O    2.192 --     3 C    1.092     1 C    0.907     4 O    0.119
     3   6 C    3.867 --     4 O    1.589     2 O    1.092     5 C    1.090
     4   8 O    1.896 --     3 C    1.589     2 O    0.119
     5   6 C    3.855 --    24 C    1.250     3 C    1.090     6 N    1.064
                            25 O    0.134
     6   7 N    3.555 --     7 C    1.454     5 C    1.064    13 C    0.738
     7   6 C    3.924 --     6 N    1.454    21 N    1.208     8 C    0.981
     8   6 C    3.931 --     9 C    0.990     7 C    0.981    10 C    0.979
                            11 N    0.924
     9   6 C    3.984 --     8 C    0.990    29 H    0.981    31 H    0.979
                            30 H    0.978
    10   6 C    3.980 --    34 H    0.981    33 H    0.980     8 C    0.979
                            32 H    0.978
    11   7 N    3.508 --    12 C    0.937     8 C    0.924    35 H    0.903
                            13 C    0.541    14 O    0.125
    12   6 C    3.917 --    36 H    0.983    37 H    0.981    38 H    0.977
                            11 N    0.937
    13   6 C    3.888 --    14 O    1.538    15 C    0.950     6 N    0.738
                            11 N    0.541
    14   8 O    1.868 --    13 C    1.538    11 N    0.125
    15   6 C    3.877 --    16 N    1.653    20 O    1.047    13 C    0.950
    16   7 N    2.996 --    15 C    1.653    17 N    1.169
    17   7 N    2.983 --    18 C    1.644    16 N    1.169
    18   6 C    3.868 --    17 N    1.644    20 O    1.050    19 C    1.031
    19   6 C    3.987 --    18 C    1.031    40 H    0.982    41 H    0.965
                            39 H    0.963
    20   8 O    2.293 --    18 C    1.050    15 C    1.047
    21   7 N    3.452 --     7 C    1.208    22 C    1.086    42 H    0.878
                            23 O    0.118
    22   6 C    3.865 --    23 O    1.665    21 N    1.086    24 C    0.950
    23   8 O    1.935 --    22 C    1.665    21 N    0.118
    24   6 C    3.942 --    25 O    1.578     5 C    1.250    22 C    0.950
    25   8 O    1.887 --    24 C    1.578     5 C    0.134
    26   1 H    1.012 --     1 C    0.986
    27   1 H    1.009 --     1 C    0.980
    28   1 H    1.010 --     1 C    0.980
    29   1 H    0.995 --     9 C    0.981
    30   1 H    0.995 --     9 C    0.978
    31   1 H    0.994 --     9 C    0.979
    32   1 H    1.008 --    10 C    0.978
    33   1 H    0.996 --    10 C    0.980
    34   1 H    0.998 --    10 C    0.981
    35   1 H    0.945 --    11 N    0.903
    36   1 H    0.998 --    12 C    0.983
    37   1 H    0.995 --    12 C    0.981
    38   1 H    1.005 --    12 C    0.977
    39   1 H    0.998 --    19 C    0.963
    40   1 H    0.998 --    19 C    0.982
    41   1 H    0.997 --    19 C    0.965
    42   1 H    0.923 --    21 N    0.878
 ---------------------------------------------------------------------------

           -------------------------------------------------
          | TOTAL ENERGY              -82.986888156770 Eh   |
          | GRADIENT NORM               0.000913614818 Eh/α |
          | HOMO-LUMO GAP               2.590117378100 eV   |
           -------------------------------------------------

 * finished run on 2023/06/21 at 17:37:44.760
