   * xtb version 6.5.1 (579679a) compiled by 'ehlert@majestix' on 2022-07-11
          program call               : /lustre/hpc/kemi/ree/PhD/git/ReactivityQM/dep/xtb-6.5.1/bin/xtb --gfn 1 /lustre/hpc/kemi/ree/PhD/git/ReactivityQM/calculations/R02/reac01prodN13/conf17/R02_reac01prodN13_conf17_gfn1.xyz --opt --vfukui --chrg 1 --uhf 0 --alpb DMSO

   ID    Z sym.   atoms
    1    6 C      1, 3, 5, 7-10, 12, 14, 17-19, 22, 24
    2    8 O      2, 4, 13, 20, 23, 25
    3    7 N      6, 11, 15, 16, 21
    4    1 H      26-43

      * Solvation model:               ALPB
        Solvent                        DMSO
        Solvent mass                       7.8130E+01 g/mol
          :  Hamiltonian                  GFN1-xTB          :
 * total energy  :   -83.1016742 Eh     change       -0.4913261E-09 Eh
 * total energy  :   -83.1160530 Eh     change       -0.1437887E-01 Eh
 * total energy  :   -83.1215085 Eh     change       -0.5455456E-02 Eh
 * total energy  :   -83.1225336 Eh     change       -0.1025072E-02 Eh
 * total energy  :   -83.1233919 Eh     change       -0.8583481E-03 Eh
 * total energy  :   -83.1237931 Eh     change       -0.4012271E-03 Eh
 * total energy  :   -83.1241652 Eh     change       -0.3720126E-03 Eh
 * total energy  :   -83.1244640 Eh     change       -0.2988901E-03 Eh
 * total energy  :   -83.1246612 Eh     change       -0.1971422E-03 Eh
 * total energy  :   -83.1247456 Eh     change       -0.8436910E-04 Eh
 * total energy  :   -83.1259963 Eh     change       -0.2827323E-04 Eh
 * total energy  :   -83.1260278 Eh     change       -0.3150238E-04 Eh
 * total energy  :   -83.1260554 Eh     change       -0.2758756E-04 Eh
 * total energy  :   -83.1260782 Eh     change       -0.2279733E-04 Eh
 * total energy  :   -83.1261041 Eh     change       -0.2584773E-04 Eh
 * total energy  :   -83.1261250 Eh     change       -0.2088949E-04 Eh
 * total energy  :   -83.1261381 Eh     change       -0.1311648E-04 Eh
 * total energy  :   -83.1261465 Eh     change       -0.8382050E-05 Eh
 * total energy  :   -83.1261502 Eh     change       -0.3725950E-05 Eh
   *** GEOMETRY OPTIMIZATION CONVERGED AFTER 41 ITERATIONS ***

 final structure:
================
43
 xtb: 6.5.1 (579679a)
C           -5.94909047681806       -1.10472837573886       -2.09358046822445
O           -4.73915365303180       -0.66181948504686       -1.46328024212591
C           -4.76252259077545       -0.54193789458517       -0.14964278875561
O           -5.73824197676069       -0.79276203414803        0.53479094788060
C           -3.48350697289661       -0.06380139932678        0.43661439166244
N           -2.44489473505879        0.17148027942337       -0.41666622342346
C           -1.32597434481537        0.60437128203112        0.06556506600096
C           -0.17901988356676        0.91911138009961       -0.86787091132838
C           -0.10576318386134        2.43229111708180       -1.09008372196991
C           -0.34759788155564        0.16796385590195       -2.19193984618693
N            1.07405268546901        0.49873797696974       -0.22752542959318
C            1.22174776851032       -0.73932370971862        0.27065980293020
O            0.36866960310477       -1.59797169684402        0.33058237234650
C            2.60995792997353       -0.97808781275636        0.79932112660340
N            3.03118243917409       -2.14630013721467        1.36841882190397
N            4.24702518365560       -2.00417277692511        1.68497221618090
C            4.70163322427126       -0.70439765339041        1.32638432676931
C            5.81523869217852       -0.78435974934784        0.27502062680900
C            5.12744385454384        0.08951549303536        2.56729380555042
O            3.54073746882908       -0.10205355077965        0.74785757270041
N           -1.14797326967284        0.84977128316811        1.38987698792684
C           -2.10525885392913        0.61689833000925        2.36615289368509
O           -1.86924588650314        0.82604930457617        3.53832999972823
C           -3.36943290800543        0.12078308388649        1.80069248175516
O           -4.34389714410616       -0.11768887956330        2.66323521713372
H           -6.26919910277926       -2.05419282050531       -1.65920168572694
H           -5.71958061065348       -1.22383894679237       -3.15023213054618
H           -6.73226630943827       -0.35680836640821       -1.95337428307291
H           -1.02918221505431        2.77853716622961       -1.55204932995349
H            0.72920279630694        2.66781973542387       -1.74670190644129
H            0.03105766595308        2.94545362003806       -0.14030331368669
H           -1.26877178689655        0.49651371145276       -2.67059725320877
H           -0.40593263461548       -0.90410534929965       -2.01035186104628
H            0.49688179965049        0.37999864043595       -2.84338339669889
H            1.86512876842640        1.11822806267178       -0.26752346127165
H            6.67631497752552       -1.28392278148730        0.71260860074309
H            6.08245328781120        0.22523737119107       -0.02645104651908
H            5.45611199721948       -1.34350577473036       -0.58614460261717
H            5.99156669847944       -0.39535440872733        3.01503227992463
H            4.30478305256618        0.11502268303542        3.27786193662722
H            5.38284971068991        1.10080095083245        2.26248441751950
H           -0.26281351501957        1.21092519153526        1.70818084015341
H           -5.15472066851129       -0.43437891572484        2.19201916990746

          :  Hamiltonian                  GFN1-xTB          :
         :: total energy             -83.126150183373 Eh    ::
         :: gradient norm              0.000610980172 Eh/a0 ::
         :: HOMO-LUMO gap              0.138609526047 eV    ::
         :: SCC energy               -83.911778918894 Eh    ::
         :: -> Gsolv                  -0.123790206820 Eh    ::
         :: repulsion energy           0.812089048562 Eh    ::

    * Orbital Energies and Occupations

         #    Occupation            Energy/Eh            Energy/eV
      -------------------------------------------------------------
         1        2.0000           -0.9339948             -25.4153
       ...           ...                  ...                  ...
        55        2.0000           -0.5373813             -14.6229
        56        2.0000           -0.5283783             -14.3779
        57        2.0000           -0.5241794             -14.2636
        58        2.0000           -0.5223558             -14.2140
        59        2.0000           -0.5154918             -14.0272
        60        2.0000           -0.5108615             -13.9012
        61        2.0000           -0.5061444             -13.7729
        62        2.0000           -0.5046439             -13.7321
        63        2.0000           -0.5022298             -13.6664
        64        2.0000           -0.4958338             -13.4923
        65        2.0000           -0.4782431             -13.0137
        66        2.0000           -0.4645216             -12.6403
        67        1.8718           -0.4472674             -12.1708 (HOMO)
        68        0.1282           -0.4421736             -12.0322 (LUMO)
        69                         -0.3586201              -9.7586
        70                         -0.3423287              -9.3152
        71                         -0.3038539              -8.2683
        72                         -0.2587891              -7.0420
        73                         -0.2576030              -7.0097
        74                         -0.1782354              -4.8500
        75                         -0.1608497              -4.3769
        76                         -0.1552689              -4.2251
        77                         -0.1495645              -4.0699
        78                         -0.1434659              -3.9039
       ...                                ...                  ...
       136                          0.7117405              19.3674
      -------------------------------------------------------------
                  HL-Gap            0.0050938 Eh            0.1386 eV

Wiberg/Mayer (AO) data.
largest (>0.10) Wiberg bond orders for each atom

     #   Z sym  total        # sym  WBO       # sym  WBO       # sym  WBO
 ---------------------------------------------------------------------------
     1   6 C    3.858 --    27 H    0.986    26 H    0.978    28 H    0.978
                             2 O    0.885
     2   8 O    2.226 --     3 C    1.151     1 C    0.885     4 O    0.134
     3   6 C    3.850 --     4 O    1.609     2 O    1.151     5 C    1.009
     4   8 O    1.950 --     3 C    1.609     2 O    0.134
     5   6 C    3.920 --    24 C    1.438     6 N    1.209     3 C    1.009
     6   7 N    2.991 --     7 C    1.546     5 C    1.209
     7   6 C    3.900 --     6 N    1.546    21 N    1.193     8 C    0.977
     8   6 C    3.914 --     9 C    0.979    10 C    0.979     7 C    0.977
                            11 N    0.912
     9   6 C    3.981 --    31 H    0.983    29 H    0.981    30 H    0.980
                             8 C    0.979
    10   6 C    3.979 --    34 H    0.984    33 H    0.981    32 H    0.980
                             8 C    0.979
    11   7 N    3.399 --    12 C    1.280     8 C    0.912    35 H    0.879
                            13 O    0.211
    12   6 C    3.925 --    13 O    1.609    11 N    1.280    14 C    0.953
    13   8 O    1.929 --    12 C    1.609    11 N    0.211
    14   6 C    3.731 --    20 O    1.310    15 N    1.225    12 C    0.953
    15   7 N    3.012 --    16 N    1.647    14 C    1.225
    16   7 N    2.899 --    15 N    1.647    17 C    1.056
    17   6 C    3.815 --    16 N    1.056    19 C    0.906    18 C    0.905
                            20 O    0.859
    18   6 C    3.940 --    38 H    0.979    36 H    0.977    37 H    0.976
                            17 C    0.905
    19   6 C    3.940 --    40 H    0.979    39 H    0.977    41 H    0.976
                            17 C    0.906
    20   8 O    2.349 --    14 C    1.310    17 C    0.859
    21   7 N    3.455 --     7 C    1.193    22 C    1.105    42 H    0.881
                            23 O    0.127
    22   6 C    3.896 --    23 O    1.626    21 N    1.105    24 C    1.043
    23   8 O    1.894 --    22 C    1.626    21 N    0.127
    24   6 C    3.863 --     5 C    1.438    25 O    1.161    22 C    1.043
    25   8 O    2.093 --    24 C    1.161    43 H    0.760
    26   1 H    1.005 --     1 C    0.978
    27   1 H    1.009 --     1 C    0.986
    28   1 H    1.004 --     1 C    0.978
    29   1 H    0.997 --     9 C    0.981
    30   1 H    0.993 --     9 C    0.980
    31   1 H    0.996 --     9 C    0.983
    32   1 H    1.005 --    10 C    0.980
    33   1 H    1.004 --    10 C    0.981
    34   1 H    0.998 --    10 C    0.984
    35   1 H    0.916 --    11 N    0.879
    36   1 H    0.992 --    18 C    0.977
    37   1 H    0.991 --    18 C    0.976
    38   1 H    0.991 --    18 C    0.979
    39   1 H    0.992 --    19 C    0.977
    40   1 H    0.991 --    19 C    0.979
    41   1 H    0.991 --    19 C    0.976
    42   1 H    0.925 --    21 N    0.881
    43   1 H    0.842 --    25 O    0.760
 ---------------------------------------------------------------------------

           -------------------------------------------------
          | TOTAL ENERGY              -83.126150183373 Eh   |
          | GRADIENT NORM               0.000610980172 Eh/α |
          | HOMO-LUMO GAP               0.138609526047 eV   |
           -------------------------------------------------

 * finished run on 2023/06/20 at 15:35:56.925
