   * xtb version 6.5.1 (579679a) compiled by 'ehlert@majestix' on 2022-07-11
          program call               : /lustre/hpc/kemi/ree/PhD/git/ReactivityQM/dep/xtb-6.5.1/bin/xtb --gfn 1 /lustre/hpc/kemi/ree/PhD/git/ReactivityQM/calculations/R02methylcation/reac01prodN02/conf06/R02methylcation_reac01prodN02_conf06_gfn1.xyz --opt --vfukui --chrg 0 --uhf 0 --alpb DMSO

   ID    Z sym.   atoms
    1    6 C      1, 3, 5, 7-10, 12, 14, 15, 18, 19, 22, 24
    2    8 O      2, 4, 13, 20, 23, 25
    3    7 N      6, 11, 16, 17, 21
    4    1 H      26-42

      * Solvation model:               ALPB
        Solvent                        DMSO
        Solvent mass                       7.8130E+01 g/mol
          :  Hamiltonian                  GFN1-xTB          :
 * total energy  :   -82.9413317 Eh     change       -0.2751221E-10 Eh
 * total energy  :   -82.9596323 Eh     change       -0.1830054E-01 Eh
 * total energy  :   -82.9674275 Eh     change       -0.7795259E-02 Eh
 * total energy  :   -82.9686452 Eh     change       -0.1217644E-02 Eh
 * total energy  :   -82.9694633 Eh     change       -0.8181771E-03 Eh
 * total energy  :   -82.9697885 Eh     change       -0.3252052E-03 Eh
 * total energy  :   -82.9700951 Eh     change       -0.3066020E-03 Eh
 * total energy  :   -82.9703077 Eh     change       -0.2125997E-03 Eh
 * total energy  :   -82.9704773 Eh     change       -0.1695495E-03 Eh
 * total energy  :   -82.9706284 Eh     change       -0.1511423E-03 Eh
 * total energy  :   -82.9714561 Eh     change       -0.1533730E-04 Eh
 * total energy  :   -82.9714754 Eh     change       -0.1926327E-04 Eh
 * total energy  :   -82.9714852 Eh     change       -0.9817106E-05 Eh
 * total energy  :   -82.9714976 Eh     change       -0.1234530E-04 Eh
 * total energy  :   -82.9715055 Eh     change       -0.7938324E-05 Eh
 * total energy  :   -82.9715133 Eh     change       -0.7838084E-05 Eh
 * total energy  :   -82.9715229 Eh     change       -0.9552668E-05 Eh
 * total energy  :   -82.9715292 Eh     change       -0.6292013E-05 Eh
 * total energy  :   -82.9715336 Eh     change       -0.4397745E-05 Eh
   *** GEOMETRY OPTIMIZATION CONVERGED AFTER 42 ITERATIONS ***

 final structure:
================
42
 xtb: 6.5.1 (579679a)
C            6.38103399846003        0.02826782365330        2.57500016456913
O            5.35404036474740        0.62754412824061        1.79376883205757
C            4.31837654437969       -0.17590750242047        1.46123057727397
O            4.28618001057247       -1.34433624080334        1.82461754852688
C            3.28579486873635        0.46557599745423        0.65387417135419
N            2.25172678177282       -0.39134019907606        0.33886031766238
C            1.26332379259186        0.00488840408081       -0.36930992964205
C            0.16063155470453       -0.96189857859713       -0.74273220105010
C            0.28489722398239       -2.23486442948123        0.09612844827134
C            0.22218310358240       -1.26012606527801       -2.24582990327908
N           -1.12824340092679       -0.29259245506015       -0.42995411563848
C           -2.32695423674558       -0.77480510784132       -0.63779022133987
O           -2.45964911929214       -1.96531209101501       -1.14847171030184
C           -3.73875319270980       -2.56005544426239       -1.41414373126999
C           -3.45014344684693        0.05782646447669       -0.28067316888090
N           -4.73171996937936       -0.17461546567992       -0.37742587389308
N           -5.36487206127179        0.91928293769437        0.08757452846457
C           -4.44376990385845        1.77148381988915        0.44774475785254
C           -4.62982942890094        3.11800540336851        1.02046174754638
O           -3.21533315321754        1.28155607046487        0.23958639961673
N            1.18045927045263        1.29364098341632       -0.86275625107112
C            2.13549691640375        2.25695822529477       -0.62210648116473
O            1.99203132691568        3.38028917028367       -1.08802625411659
C            3.31656617443279        1.81865631373188        0.21990613830898
O            4.20723610317906        2.64764384419211        0.46314858863239
H            7.13566737820102        0.79427722745459        2.75053155417640
H            6.82641055829331       -0.81781636273838        2.04255860821991
H            5.98137053076166       -0.32588738847104        3.53014220531146
H            0.15523382268961       -1.99634381185891        1.15060978265532
H            1.28180259195003       -2.64992591980524       -0.04956546398672
H           -0.45707494624009       -2.97028501350730       -0.20218247522364
H            0.03180304920435       -0.35249311261813       -2.81479474471596
H           -0.50992999999357       -2.01328722182265       -2.52476585816917
H            1.21748575490393       -1.63062625854201       -2.48829818385173
H           -1.08513828273738        0.63199059532226       -0.01939689796720
H           -3.52166968912810       -3.54151050053710       -1.83135433036225
H           -4.30852221585356       -2.65084131961992       -0.48812700857470
H           -4.29214850279140       -1.95002622295176       -2.12942904992841
H           -4.18137343950545        3.16154980231856        2.01380148247851
H           -5.69025997658897        3.34618119843680        1.08620834807679
H           -4.12935204123049        3.85838555876448        0.39519950152913
H            0.39498228630014        1.57089374345217       -1.42382284816094

          :  Hamiltonian                  GFN1-xTB          :
         :: total energy             -82.971533590233 Eh    ::
         :: gradient norm              0.000898412768 Eh/a0 ::
         :: HOMO-LUMO gap              0.213579527555 eV    ::
         :: SCC energy               -83.747724222958 Eh    ::
         :: -> Gsolv                  -0.103974612048 Eh    ::
         :: repulsion energy           0.801548253497 Eh    ::

    * Orbital Energies and Occupations

         #    Occupation            Energy/Eh            Energy/eV
      -------------------------------------------------------------
         1        2.0000           -0.8979486             -24.4344
       ...           ...                  ...                  ...
        55        2.0000           -0.5076397             -13.8136
        56        2.0000           -0.5028275             -13.6826
        57        2.0000           -0.4982342             -13.5576
        58        2.0000           -0.4919569             -13.3868
        59        2.0000           -0.4836423             -13.1606
        60        2.0000           -0.4797943             -13.0559
        61        2.0000           -0.4699582             -12.7882
        62        2.0000           -0.4670501             -12.7091
        63        2.0000           -0.4520536             -12.3010
        64        2.0000           -0.4438143             -12.0768
        65        2.0000           -0.4298706             -11.6974
        66        2.0000           -0.3889810             -10.5847
        67        1.9684           -0.3768582             -10.2548 (HOMO)
        68        0.0316           -0.3690093             -10.0413 (LUMO)
        69                         -0.2843638              -7.7379
        70                         -0.2790027              -7.5920
        71                         -0.2544924              -6.9251
        72                         -0.2493846              -6.7861
        73                         -0.2056877              -5.5970
        74                         -0.1586469              -4.3170
        75                         -0.1521967              -4.1415
        76                         -0.1362145              -3.7066
        77                         -0.1340231              -3.6470
        78                         -0.1238765              -3.3709
       ...                                ...                  ...
       134                          0.7544987              20.5310
      -------------------------------------------------------------
                  HL-Gap            0.0078489 Eh            0.2136 eV

Wiberg/Mayer (AO) data.
largest (>0.10) Wiberg bond orders for each atom

     #   Z sym  total        # sym  WBO       # sym  WBO       # sym  WBO
 ---------------------------------------------------------------------------
     1   6 C    3.894 --    26 H    0.987    28 H    0.980    27 H    0.980
                             2 O    0.920
     2   8 O    2.167 --     3 C    1.060     1 C    0.920     4 O    0.113
     3   6 C    3.850 --     4 O    1.584     5 C    1.099     2 O    1.060
     4   8 O    1.855 --     3 C    1.584     2 O    0.113
     5   6 C    3.895 --    24 C    1.260     6 N    1.166     3 C    1.099
                            25 O    0.124
     6   7 N    3.036 --     7 C    1.628     5 C    1.166
     7   6 C    3.924 --     6 N    1.628    21 N    1.089     8 C    0.978
     8   6 C    3.893 --     9 C    0.989    10 C    0.979     7 C    0.978
                            11 N    0.874
     9   6 C    3.983 --     8 C    0.989    31 H    0.984    29 H    0.984
                            30 H    0.979
    10   6 C    3.982 --    32 H    0.983    34 H    0.982    33 H    0.981
                             8 C    0.979
    11   7 N    3.471 --    12 C    1.454     8 C    0.874    35 H    0.874
                            13 O    0.108
    12   6 C    3.880 --    11 N    1.454    13 O    1.188    15 C    1.089
    13   8 O    2.270 --    12 C    1.188    14 C    0.864    11 N    0.108
    14   6 C    3.831 --    36 H    0.980    37 H    0.974    38 H    0.974
                            13 O    0.864
    15   6 C    3.881 --    16 N    1.543    12 C    1.089    20 O    1.046
    16   7 N    3.014 --    15 C    1.543    17 N    1.247
    17   7 N    2.986 --    18 C    1.554    16 N    1.247
    18   6 C    3.847 --    17 N    1.554    20 O    1.086    19 C    1.039
    19   6 C    3.979 --    18 C    1.039    40 H    0.980    41 H    0.956
                            39 H    0.954
    20   8 O    2.328 --    18 C    1.086    15 C    1.046
    21   7 N    3.411 --    22 C    1.143     7 C    1.089    42 H    0.896
                            23 O    0.133
    22   6 C    3.871 --    23 O    1.599    21 N    1.143    24 C    0.962
    23   8 O    1.875 --    22 C    1.599    21 N    0.133
    24   6 C    3.937 --    25 O    1.537     5 C    1.260    22 C    0.962
    25   8 O    1.833 --    24 C    1.537     5 C    0.124
    26   1 H    1.015 --     1 C    0.987
    27   1 H    1.013 --     1 C    0.980
    28   1 H    1.013 --     1 C    0.980
    29   1 H    1.005 --     9 C    0.984
    30   1 H    1.012 --     9 C    0.979
    31   1 H    1.004 --     9 C    0.984
    32   1 H    0.999 --    10 C    0.983
    33   1 H    1.003 --    10 C    0.981
    34   1 H    1.000 --    10 C    0.982
    35   1 H    0.925 --    11 N    0.874
    36   1 H    1.003 --    14 C    0.980
    37   1 H    1.009 --    14 C    0.974
    38   1 H    1.008 --    14 C    0.974
    39   1 H    0.992 --    19 C    0.954
    40   1 H    0.995 --    19 C    0.980
    41   1 H    0.992 --    19 C    0.956
    42   1 H    0.940 --    21 N    0.896
 ---------------------------------------------------------------------------

           -------------------------------------------------
          | TOTAL ENERGY              -82.971533590233 Eh   |
          | GRADIENT NORM               0.000898412768 Eh/α |
          | HOMO-LUMO GAP               0.213579527555 eV   |
           -------------------------------------------------

 * finished run on 2023/06/21 at 17:31:13.610
