   * xtb version 6.5.1 (579679a) compiled by 'ehlert@majestix' on 2022-07-11
          program call               : /lustre/hpc/kemi/ree/PhD/git/ReactivityQM/dep/xtb-6.5.1/bin/xtb --gfn 1 /lustre/hpc/kemi/ree/PhD/git/ReactivityQM/calculations/R02methylcation/reac01prodN08/conf12/R02methylcation_reac01prodN08_conf12_gfn1.xyz --opt --vfukui --chrg 0 --uhf 0 --alpb DMSO

   ID    Z sym.   atoms
    1    6 C      1, 3, 5, 7-10, 12, 14, 17, 18, 21, 23, 25
    2    8 O      2, 4, 13, 19, 22, 24
    3    7 N      6, 11, 15, 16, 20
    4    1 H      26-42

      * Solvation model:               ALPB
        Solvent                        DMSO
        Solvent mass                       7.8130E+01 g/mol
          :  Hamiltonian                  GFN1-xTB          :
 * total energy  :   -82.9965617 Eh     change       -0.1401190E-10 Eh
 * total energy  :   -83.0109560 Eh     change       -0.1439426E-01 Eh
 * total energy  :   -83.0160271 Eh     change       -0.5071081E-02 Eh
 * total energy  :   -83.0172727 Eh     change       -0.1245622E-02 Eh
 * total energy  :   -83.0179373 Eh     change       -0.6645923E-03 Eh
 * total energy  :   -83.0182143 Eh     change       -0.2769789E-03 Eh
 * total energy  :   -83.0183978 Eh     change       -0.1835531E-03 Eh
 * total energy  :   -83.0185545 Eh     change       -0.1566602E-03 Eh
 * total energy  :   -83.0186667 Eh     change       -0.1121927E-03 Eh
 * total energy  :   -83.0187294 Eh     change       -0.6270504E-04 Eh
 * total energy  :   -83.0193959 Eh     change       -0.1688985E-04 Eh
 * total energy  :   -83.0194078 Eh     change       -0.1183482E-04 Eh
 * total energy  :   -83.0194170 Eh     change       -0.9266547E-05 Eh
 * total energy  :   -83.0194376 Eh     change       -0.2052248E-04 Eh
 * total energy  :   -83.0194498 Eh     change       -0.1220138E-04 Eh
 * total energy  :   -83.0194646 Eh     change       -0.1478483E-04 Eh
 * total energy  :   -83.0194720 Eh     change       -0.7441487E-05 Eh
 * total energy  :   -83.0194799 Eh     change       -0.7876484E-05 Eh
 * total energy  :   -83.0194831 Eh     change       -0.3230752E-05 Eh
   *** GEOMETRY OPTIMIZATION CONVERGED AFTER 38 ITERATIONS ***

 final structure:
================
42
 xtb: 6.5.1 (579679a)
C           -5.11752543406807       -2.68612499574823        0.32468302886268
O           -3.96239594647218       -1.84482962176926        0.34533769852553
C           -4.03705347049416       -0.71849976980044       -0.37104311823751
O           -5.01686472832309       -0.41393194413872       -1.01120050006027
C           -2.78248353364047        0.08375515226991       -0.27116291847471
N           -1.79222085760428       -0.47849406737800        0.49019364376696
C           -0.67263368958701        0.14446405695424        0.64155714587450
C            0.40454407973425       -0.46725741555148        1.52375076604699
C            0.66618097528826        0.43425530793206        2.73752825723913
C           -0.05123727287892       -1.85144966547148        1.98858946790093
N            1.63804379664143       -0.66546799097088        0.74961410728113
C            2.49959265893086        0.29824681668165        0.37173503770715
O            2.33425349391994        1.50060712055765        0.51246669938267
C            3.69827474142880       -0.28492145069755       -0.27728131388049
N            3.91593540734103       -1.54783050206246       -0.49354109813038
N            5.12631687531668       -1.63736174467790       -1.10943325795266
C            5.57170568399482       -0.42228909065337       -1.22960542437385
C            6.85108166255605        0.01612912534106       -1.82862714390615
O            4.71334092786673        0.47511043105918       -0.72460614041280
N           -0.44628844018061        1.35313751164074        0.06456218785696
C           -1.34942258809681        2.01988774783169       -0.73278821911341
O           -1.05302392979745        3.09929501966196       -1.22664251249917
C           -2.62025955924854        1.30468992946404       -0.89041484922770
O           -3.62635558876225        1.80366918428985       -1.61907712453352
C           -3.55879150510281        3.06889588562276       -2.27616151988886
H           -5.33756931836397       -3.00048082774146       -0.69879494802508
H           -5.97990359618156       -2.15176893406123        0.73121988390458
H           -4.88461205351353       -3.55064821581625        0.94276098627686
H           -0.23942834999116        0.49396070257477        3.33934350437970
H            0.95087103863740        1.43811410275586        2.43100764998290
H            1.46591325455232        0.00821428909824        3.34051604581781
H           -0.24425035066381       -2.49375819344064        1.13064869814375
H           -0.96974201471345       -1.75921931889108        2.56567243007169
H            0.71724085134429       -2.30392870505310        2.61195138592756
H            1.91671779874921       -1.62212732904634        0.58656350482834
H            7.44078503524223        0.55700433973462       -1.08868216242993
H            7.40828595460118       -0.85023320250607       -2.17633643480010
H            6.66040532258593        0.68865748258218       -2.66498524529490
H            0.45565925013182        1.80733607389858        0.20028839861793
H           -2.76672777138874        3.08115696452046       -3.02849622766358
H           -3.39904112036873        3.87809172592479       -1.55994681531849
H           -4.52731868941969        3.19594301508599       -2.76192855418152

          :  Hamiltonian                  GFN1-xTB          :
         :: total energy             -83.019483104039 Eh    ::
         :: gradient norm              0.000337618734 Eh/a0 ::
         :: HOMO-LUMO gap              2.775913269516 eV    ::
         :: SCC energy               -83.801003439422 Eh    ::
         :: -> Gsolv                  -0.049310179627 Eh    ::
         :: repulsion energy           0.806634046539 Eh    ::

    * Orbital Energies and Occupations

         #    Occupation            Energy/Eh            Energy/eV
      -------------------------------------------------------------
         1        2.0000           -0.8667106             -23.5844
       ...           ...                  ...                  ...
        55        2.0000           -0.5090453             -13.8518
        56        2.0000           -0.5039182             -13.7123
        57        2.0000           -0.4962182             -13.5028
        58        2.0000           -0.4863138             -13.2333
        59        2.0000           -0.4827821             -13.1372
        60        2.0000           -0.4820097             -13.1162
        61        2.0000           -0.4712428             -12.8232
        62        2.0000           -0.4679014             -12.7322
        63        2.0000           -0.4583663             -12.4728
        64        2.0000           -0.4563174             -12.4170
        65        2.0000           -0.4487045             -12.2099
        66        2.0000           -0.4450763             -12.1111
        67        2.0000           -0.4257221             -11.5845 (HOMO)
        68                         -0.3237091              -8.8086 (LUMO)
        69                         -0.3162074              -8.6044
        70                         -0.2842732              -7.7355
        71                         -0.2595569              -7.0629
        72                         -0.2389473              -6.5021
        73                         -0.2040480              -5.5524
        74                         -0.1598546              -4.3499
        75                         -0.1432110              -3.8970
        76                         -0.1380345              -3.7561
        77                         -0.1316009              -3.5810
        78                         -0.1309676              -3.5638
       ...                                ...                  ...
       134                          0.7338233              19.9683
      -------------------------------------------------------------
                  HL-Gap            0.1020129 Eh            2.7759 eV

Wiberg/Mayer (AO) data.
largest (>0.10) Wiberg bond orders for each atom

     #   Z sym  total        # sym  WBO       # sym  WBO       # sym  WBO
 ---------------------------------------------------------------------------
     1   6 C    3.874 --    28 H    0.986    26 H    0.979    27 H    0.979
                             2 O    0.900
     2   8 O    2.195 --     3 C    1.105     1 C    0.900     4 O    0.133
     3   6 C    3.851 --     4 O    1.659     2 O    1.105     5 C    1.004
     4   8 O    1.921 --     3 C    1.659     2 O    0.133
     5   6 C    3.962 --    23 C    1.478     6 N    1.188     3 C    1.004
     6   7 N    3.026 --     7 C    1.578     5 C    1.188
     7   6 C    3.933 --     6 N    1.578    20 N    1.188     8 C    0.970
     8   6 C    3.933 --    10 C    1.001     9 C    0.982     7 C    0.970
                            11 N    0.917
     9   6 C    3.988 --    29 H    0.985    31 H    0.983     8 C    0.982
                            30 H    0.979
    10   6 C    3.991 --     8 C    1.001    34 H    0.985    32 H    0.983
                            33 H    0.982
    11   7 N    3.347 --    12 C    1.265     8 C    0.917    35 H    0.892
                            13 O    0.175
    12   6 C    3.916 --    13 O    1.569    11 N    1.265    14 C    0.995
    13   8 O    1.923 --    12 C    1.569    11 N    0.175
    14   6 C    3.877 --    15 N    1.606    19 O    1.065    12 C    0.995
    15   7 N    3.018 --    14 C    1.606    16 N    1.204
    16   7 N    2.981 --    17 C    1.600    15 N    1.204
    17   6 C    3.869 --    16 N    1.600    19 O    1.084    18 C    1.032
    18   6 C    3.986 --    17 C    1.032    37 H    0.982    38 H    0.963
                            36 H    0.963
    19   8 O    2.333 --    17 C    1.084    14 C    1.065
    20   7 N    3.476 --     7 C    1.188    21 C    1.139    39 H    0.849
                            22 O    0.133
    21   6 C    3.912 --    22 O    1.571    20 N    1.139    23 C    1.065
    22   8 O    1.897 --    21 C    1.571    20 N    0.133
    23   6 C    3.918 --     5 C    1.478    24 O    1.101    21 C    1.065
    24   8 O    2.198 --    23 C    1.101    25 C    0.897
    25   6 C    3.872 --    42 H    0.984    41 H    0.979    40 H    0.979
                            24 O    0.897
    26   1 H    1.008 --     1 C    0.979
    27   1 H    1.008 --     1 C    0.979
    28   1 H    1.011 --     1 C    0.986
    29   1 H    1.001 --     9 C    0.985
    30   1 H    1.008 --     9 C    0.979
    31   1 H    0.999 --     9 C    0.983
    32   1 H    1.005 --    10 C    0.983
    33   1 H    1.008 --    10 C    0.982
    34   1 H    0.999 --    10 C    0.985
    35   1 H    0.949 --    11 N    0.892
    36   1 H    0.996 --    18 C    0.963
    37   1 H    0.998 --    18 C    0.982
    38   1 H    0.996 --    18 C    0.963
    39   1 H    0.932 --    20 N    0.849
    40   1 H    1.015 --    25 C    0.979
    41   1 H    1.015 --    25 C    0.979
    42   1 H    1.012 --    25 C    0.984
 ---------------------------------------------------------------------------

           -------------------------------------------------
          | TOTAL ENERGY              -83.019483104039 Eh   |
          | GRADIENT NORM               0.000337618734 Eh/α |
          | HOMO-LUMO GAP               2.775913269516 eV   |
           -------------------------------------------------

 * finished run on 2023/06/21 at 17:39:06.953
