   * xtb version 6.5.1 (579679a) compiled by 'ehlert@majestix' on 2022-07-11
          program call               : /lustre/hpc/kemi/ree/PhD/git/ReactivityQM/dep/xtb-6.5.1/bin/xtb --gfn 1 /lustre/hpc/kemi/ree/PhD/git/ReactivityQM/calculations/R01/reac02prodE07/conf03/R01_reac02prodE07_conf03_gfn1.xyz --opt --vfukui --chrg -1 --uhf 0 --alpb DMSO

   ID    Z sym.   atoms
    1    6 C      1, 3, 5, 6, 8, 10, 12-15
    2    8 O      2, 4, 7, 9
    3    7 N      11, 16, 17
    4    1 H      18-33

      * Solvation model:               ALPB
        Solvent                        DMSO
        Solvent mass                       7.8130E+01 g/mol
          :  Hamiltonian                  GFN1-xTB          :
 * total energy  :   -58.5004830 Eh     change       -0.1634248E-11 Eh
 * total energy  :   -58.5158329 Eh     change       -0.1534990E-01 Eh
 * total energy  :   -58.5198494 Eh     change       -0.4016477E-02 Eh
 * total energy  :   -58.5203349 Eh     change       -0.4854881E-03 Eh
 * total energy  :   -58.5206495 Eh     change       -0.3145989E-03 Eh
 * total energy  :   -58.5208056 Eh     change       -0.1561342E-03 Eh
 * total energy  :   -58.5211119 Eh     change       -0.3062354E-03 Eh
 * total energy  :   -58.5214032 Eh     change       -0.2912936E-03 Eh
 * total energy  :   -58.5219923 Eh     change       -0.5891715E-03 Eh
 * total energy  :   -58.5224832 Eh     change       -0.4908141E-03 Eh
 * total energy  :   -58.5274158 Eh     change        0.6201039E-04 Eh
 * total energy  :   -58.5275022 Eh     change       -0.8638173E-04 Eh
 * total energy  :   -58.5275137 Eh     change       -0.1146438E-04 Eh
 * total energy  :   -58.5275198 Eh     change       -0.6151230E-05 Eh
 * total energy  :   -58.5275293 Eh     change       -0.9467794E-05 Eh
 * total energy  :   -58.5275358 Eh     change       -0.6523799E-05 Eh
 * total energy  :   -58.5275401 Eh     change       -0.4291491E-05 Eh
 * total energy  :   -58.5275462 Eh     change       -0.6126605E-05 Eh
 * total energy  :   -58.5275491 Eh     change       -0.2887628E-05 Eh
   *** GEOMETRY OPTIMIZATION CONVERGED AFTER 65 ITERATIONS ***

 final structure:
================
33
 xtb: 6.5.1 (579679a)
C            3.60728849931679       -2.89666402142879       -1.14584388368142
O            2.43445630717579       -2.21096494142602       -0.75952377829110
C            2.61953908420908       -0.85431869874312       -0.44408813545428
O            3.79252604840843       -0.37040001501960       -0.53281911753392
C            1.48759470070740       -0.15819205246951       -0.07602382879456
C            1.56914327336654        1.25484368497221        0.29884663088326
O            2.80671255157515        1.83208978048693        0.34969546950939
C            0.45274636604614        1.91586322557047        0.64891723051393
O            0.38234821476142        3.22848162355444        1.08888871032457
C           -0.05387482741078        4.17392893764278        0.11937245656080
N           -0.83618912525530        1.27761343650206        0.49265743237381
C           -0.80117430105106       -0.12521036269582        0.34996037774499
C           -2.15297782955756       -0.81648364007931        0.45687890564902
C           -1.95381205224097       -2.33582772363020        0.51409137457061
C           -3.00579815056740       -0.43437939710954       -0.76111309788489
N           -2.87891184032731       -0.40631968500950        1.66392514024415
N            0.23395747713184       -0.79691311377510        0.04114777109984
H            3.32411258051269       -3.92945997386449       -1.35967051387981
H            4.35963985176281       -2.88874160997629       -0.34634423981008
H            4.05447834053118       -2.45316799963699       -2.04509773571149
H            3.43962083744535        1.11038730586084        0.02288282228471
H           -0.12446906848536        5.14007646030845        0.62232335618893
H            0.65789441865546        4.24875287622389       -0.71367054771413
H           -1.03900710999269        3.90360488853633       -0.27924839679109
H           -1.50902112593011        1.60050339598977        1.17484596987849
H           -2.91968194990215       -2.83355225721606        0.59573238374944
H           -1.34680968679818       -2.59895500171381        1.38076652272744
H           -1.44339773201737       -2.68345090750786       -0.38457485231816
H           -4.00263447973239       -0.86629118447345       -0.67321060489242
H           -2.54095071279291       -0.80013984228433       -1.67703595397881
H           -3.09676470807943        0.64998196463360       -0.82515944699636
H           -2.25877320241921       -0.39963066299582        2.46314285041338
H           -3.25781164904558        0.52293651077407        1.55112872901454

          :  Hamiltonian                  GFN1-xTB          :
         :: total energy             -58.527549122809 Eh    ::
         :: gradient norm              0.000564068134 Eh/a0 ::
         :: HOMO-LUMO gap              2.215601857376 eV    ::
         :: SCC energy               -59.061412173531 Eh    ::
         :: -> Gsolv                  -0.102733345250 Eh    ::
         :: repulsion energy           0.551908175835 Eh    ::

    * Orbital Energies and Occupations

         #    Occupation            Energy/Eh            Energy/eV
      -------------------------------------------------------------
         1        2.0000           -0.7642642             -20.7967
       ...           ...                  ...                  ...
        36        2.0000           -0.4730006             -12.8710
        37        2.0000           -0.4662776             -12.6881
        38        2.0000           -0.4628960             -12.5960
        39        2.0000           -0.4593947             -12.5008
        40        2.0000           -0.4520579             -12.3011
        41        2.0000           -0.4352660             -11.8442
        42        2.0000           -0.4329358             -11.7808
        43        2.0000           -0.4108447             -11.1797
        44        2.0000           -0.4022605             -10.9461
        45        2.0000           -0.3865796             -10.5194
        46        2.0000           -0.3748522             -10.2002
        47        2.0000           -0.3702485             -10.0750
        48        2.0000           -0.2937400              -7.9931 (HOMO)
        49                         -0.2123181              -5.7775 (LUMO)
        50                         -0.1818701              -4.9489
        51                         -0.1158451              -3.1523
        52                         -0.1083551              -2.9485
        53                         -0.1081335              -2.9425
        54                         -0.1060781              -2.8865
        55                         -0.0918643              -2.4998
        56                         -0.0851416              -2.3168
        57                         -0.0602444              -1.6393
        58                         -0.0571644              -1.5555
        59                         -0.0549526              -1.4953
       ...                                ...                  ...
       100                          0.7085346              19.2802
      -------------------------------------------------------------
                  HL-Gap            0.0814219 Eh            2.2156 eV

Wiberg/Mayer (AO) data.
largest (>0.10) Wiberg bond orders for each atom

     #   Z sym  total        # sym  WBO       # sym  WBO       # sym  WBO
 ---------------------------------------------------------------------------
     1   6 C    3.919 --    18 H    0.987    20 H    0.981    19 H    0.980
                             2 O    0.951
     2   8 O    2.063 --     1 C    0.951     3 C    0.936
     3   6 C    3.871 --     5 C    1.427     4 O    1.338     2 O    0.936
     4   8 O    1.794 --     3 C    1.338    21 H    0.128     5 C    0.122
     5   6 C    3.862 --     3 C    1.427     6 C    1.071    17 N    1.056
                             4 O    0.122
     6   6 C    3.915 --     8 C    1.648     5 C    1.071     7 O    1.042
     7   8 O    1.972 --     6 C    1.042    21 H    0.749
     8   6 C    3.819 --     6 C    1.648     9 O    0.957    11 N    0.952
     9   8 O    2.022 --     8 C    0.957    10 C    0.934
    10   6 C    3.919 --    22 H    0.986    24 H    0.983    23 H    0.983
                             9 O    0.934
    11   7 N    3.189 --    12 C    1.042     8 C    0.952    25 H    0.920
                            17 N    0.111
    12   6 C    3.944 --    17 N    1.727    11 N    1.042    13 C    0.968
    13   6 C    3.964 --    14 C    0.999    15 C    0.988    16 N    0.974
                            12 C    0.968
    14   6 C    3.997 --    13 C    0.999    26 H    0.988    28 H    0.986
                            27 H    0.986
    15   6 C    3.994 --    13 C    0.988    30 H    0.987    29 H    0.986
                            31 H    0.985
    16   7 N    2.951 --    13 C    0.974    32 H    0.948    33 H    0.946
    17   7 N    3.029 --    12 C    1.727     5 C    1.056    11 N    0.111
    18   1 H    1.020 --     1 C    0.987
    19   1 H    1.020 --     1 C    0.980
    20   1 H    1.021 --     1 C    0.981
    21   1 H    0.890 --     7 O    0.749     4 O    0.128
    22   1 H    1.019 --    10 C    0.986
    23   1 H    1.015 --    10 C    0.983
    24   1 H    1.016 --    10 C    0.983
    25   1 H    0.965 --    11 N    0.920
    26   1 H    1.011 --    14 C    0.988
    27   1 H    1.012 --    14 C    0.986
    28   1 H    1.020 --    14 C    0.986
    29   1 H    1.006 --    15 C    0.986
    30   1 H    1.007 --    15 C    0.987
    31   1 H    1.009 --    15 C    0.985
    32   1 H    0.964 --    16 N    0.948
    33   1 H    0.963 --    16 N    0.946
 ---------------------------------------------------------------------------

           -------------------------------------------------
          | TOTAL ENERGY              -58.527549122809 Eh   |
          | GRADIENT NORM               0.000564068134 Eh/α |
          | HOMO-LUMO GAP               2.215601857376 eV   |
           -------------------------------------------------

 * finished run on 2023/06/20 at 15:01:56.987
