   * xtb version 6.5.1 (579679a) compiled by 'ehlert@majestix' on 2022-07-11
          program call               : /lustre/hpc/kemi/ree/PhD/git/ReactivityQM/dep/xtb-6.5.1/bin/xtb --gfn 1 /lustre/hpc/kemi/ree/PhD/git/ReactivityQM/calculations/R03/reac02prodN07/conf20/R03_reac02prodN07_conf20_gfn1.xyz --opt --vfukui --chrg 1 --uhf 0 --alpb DMSO

   ID    Z sym.   atoms
    1    6 C      1, 3, 5, 7-10, 12, 14, 17-19, 22, 23, 25
    2    8 O      2, 4, 13, 20, 24, 26
    3    7 N      6, 11, 15, 16, 21
    4    1 H      27-46

      * Solvation model:               ALPB
        Solvent                        DMSO
        Solvent mass                       7.8130E+01 g/mol
          :  Hamiltonian                  GFN1-xTB          :
 * total energy  :   -86.3314839 Eh     change       -0.2714273E-10 Eh
 * total energy  :   -86.3502533 Eh     change       -0.1876942E-01 Eh
 * total energy  :   -86.3568847 Eh     change       -0.6631465E-02 Eh
 * total energy  :   -86.3579798 Eh     change       -0.1095093E-02 Eh
 * total energy  :   -86.3584540 Eh     change       -0.4742152E-03 Eh
 * total energy  :   -86.3586112 Eh     change       -0.1571970E-03 Eh
 * total energy  :   -86.3587502 Eh     change       -0.1389954E-03 Eh
 * total energy  :   -86.3588638 Eh     change       -0.1135614E-03 Eh
 * total energy  :   -86.3589578 Eh     change       -0.9401823E-04 Eh
 * total energy  :   -86.3590267 Eh     change       -0.6892014E-04 Eh
 * total energy  :   -86.3592092 Eh     change       -0.3516854E-04 Eh
 * total energy  :   -86.3592329 Eh     change       -0.2375014E-04 Eh
 * total energy  :   -86.3592470 Eh     change       -0.1404367E-04 Eh
 * total energy  :   -86.3592487 Eh     change       -0.1745126E-05 Eh
 * total energy  :   -86.3592636 Eh     change       -0.1490334E-04 Eh
 * total energy  :   -86.3592751 Eh     change       -0.1147643E-04 Eh
 * total energy  :   -86.3592842 Eh     change       -0.9084973E-05 Eh
 * total energy  :   -86.3593019 Eh     change       -0.1770841E-04 Eh
 * total energy  :   -86.3593062 Eh     change       -0.4267176E-05 Eh
   *** GEOMETRY OPTIMIZATION CONVERGED AFTER 22 ITERATIONS ***

 final structure:
================
46
 xtb: 6.5.1 (579679a)
C           -6.37529678667753       -2.64259941086655        0.96648611128688
O           -5.47964451370137       -1.52115500721294        0.89296021947769
C           -4.37612503480192       -1.70203832161746        0.15598186107765
O           -4.13599467279364       -2.73222683861146       -0.42514918441396
C           -3.48495494421220       -0.50844540690820        0.13236291549058
N           -2.36097274107275       -0.69546465925893       -0.62478739577081
C           -1.46224267893576        0.22402957670116       -0.74043470923268
C           -0.29584651855185       -0.10614876567732       -1.66316746968756
C           -0.36676213914038       -1.58530054450292       -2.06632668729078
C           -0.35166910453341        0.77849266186456       -2.91598208272698
N            0.96042912522899        0.09338464676443       -0.91302080512468
C            2.17414742163884        0.00111604372890       -1.47963409939488
O            2.43303062985043       -0.12823534822006       -2.65436895862810
C            3.25844861372624        0.10490561524843       -0.43952085159525
N            3.11743552910194        0.27208007700701        0.84156939599499
N            4.37216448887117        0.28916604068333        1.32897199243291
C            4.59628949670364        0.47406508125219        2.74841494867834
C            5.23706964399548        0.13635218676282        0.34614272254337
C            6.70652123157720        0.08135604960419        0.40444473646242
O            4.55709537457840        0.01710294925551       -0.77449162115755
N           -1.59218250371199        1.43707566060415       -0.11839104464846
C           -0.61856836292187        2.52856600632818       -0.18029344389365
C           -2.70830512464485        1.75399774538222        0.65642552015576
O           -2.80241445376917        2.85257628242846        1.18051709586105
C           -3.69899164577173        0.68315839653854        0.77410055104730
O           -4.75718186679404        0.99451734399323        1.52793053392526
H           -7.20924047163983       -2.33504653363284        1.59246004753010
H           -6.72387797211861       -2.90399687104833       -0.03503199027448
H           -5.85963451239106       -3.49732785847288        1.40933516141500
H           -1.28770761140137       -1.77138126958474       -2.61620004770694
H           -0.35176429821996       -2.21548106232295       -1.17914645965028
H            0.48500889197905       -1.83105038545726       -2.69743597775515
H            0.32910345155144        0.39894720534307       -3.67522387826912
H           -0.08151197048743        1.80667215623407       -2.69052461499882
H           -1.36598246776229        0.75850978548504       -3.31283088985048
H            0.90928276208433        0.07078903840166        0.09213663158561
H            4.94047171173170        1.49330894012852        2.92120025270781
H            3.65274035630510        0.30177323518440        3.25983805359976
H            5.35171879147981       -0.23470490552680        3.08061988562448
H            7.11279278406751        0.12857641754664       -0.60436845972969
H            7.02025387939076       -0.85241533469190        0.87608724979783
H            7.09016666805530        0.90525839058511        1.00566928813182
H           -0.44475220874036        2.88268900317528        0.83598307846471
H           -1.03619488386311        3.34337673261545       -0.77275420043648
H            0.31487635530903        2.19111604513180       -0.61061712746364
H           -5.39122671857051        0.26005820963121        1.60390774640663

          :  Hamiltonian                  GFN1-xTB          :
         :: total energy             -86.359306156138 Eh    ::
         :: gradient norm              0.000598884272 Eh/a0 ::
         :: HOMO-LUMO gap              1.964593722689 eV    ::
         :: SCC energy               -87.203772075228 Eh    ::
         :: -> Gsolv                  -0.125752421567 Eh    ::
         :: repulsion energy           0.872907668210 Eh    ::

    * Orbital Energies and Occupations

         #    Occupation            Energy/Eh            Energy/eV
      -------------------------------------------------------------
         1        2.0000           -0.9400241             -25.5794
       ...           ...                  ...                  ...
        58        2.0000           -0.5262740             -14.3206
        59        2.0000           -0.5228422             -14.2273
        60        2.0000           -0.5189431             -14.1212
        61        2.0000           -0.5186555             -14.1133
        62        2.0000           -0.5121447             -13.9362
        63        2.0000           -0.5027151             -13.6796
        64        2.0000           -0.4948443             -13.4654
        65        2.0000           -0.4903887             -13.3442
        66        2.0000           -0.4824060             -13.1269
        67        2.0000           -0.4780369             -13.0080
        68        2.0000           -0.4647194             -12.6457
        69        2.0000           -0.4534509             -12.3390
        70        2.0000           -0.4352250             -11.8431 (HOMO)
        71                         -0.3630275              -9.8785 (LUMO)
        72                         -0.3468665              -9.4387
        73                         -0.3298269              -8.9750
        74                         -0.2917577              -7.9391
        75                         -0.2468667              -6.7176
        76                         -0.2461077              -6.6969
        77                         -0.1856649              -5.0522
        78                         -0.1733803              -4.7179
        79                         -0.1648957              -4.4870
        80                         -0.1500976              -4.0844
        81                         -0.1393917              -3.7930
       ...                                ...                  ...
       144                          0.7300307              19.8651
      -------------------------------------------------------------
                  HL-Gap            0.0721975 Eh            1.9646 eV

Wiberg/Mayer (AO) data.
largest (>0.10) Wiberg bond orders for each atom

     #   Z sym  total        # sym  WBO       # sym  WBO       # sym  WBO
 ---------------------------------------------------------------------------
     1   6 C    3.859 --    27 H    0.986    29 H    0.980    28 H    0.980
                             2 O    0.882
     2   8 O    2.204 --     3 C    1.092     1 C    0.882     4 O    0.131
     3   6 C    3.848 --     4 O    1.673     2 O    1.092     5 C    1.003
     4   8 O    1.934 --     3 C    1.673     2 O    0.131
     5   6 C    3.962 --    25 C    1.490     6 N    1.183     3 C    1.003
     6   7 N    3.035 --     7 C    1.578     5 C    1.183
     7   6 C    3.934 --     6 N    1.578    21 N    1.173     8 C    0.975
     8   6 C    3.917 --     9 C    0.989    10 C    0.984     7 C    0.975
                            11 N    0.902
     9   6 C    3.987 --     8 C    0.989    31 H    0.984    32 H    0.983
                            30 H    0.982
    10   6 C    3.986 --     8 C    0.984    35 H    0.983    34 H    0.981
                            33 H    0.977
    11   7 N    3.373 --    12 C    1.275     8 C    0.902    36 H    0.893
                            13 O    0.195
    12   6 C    3.924 --    13 O    1.623    11 N    1.275    14 C    0.953
    13   8 O    1.949 --    12 C    1.623    11 N    0.195
    14   6 C    3.842 --    15 N    1.608    20 O    1.068    12 C    0.953
    15   7 N    2.992 --    14 C    1.608    16 N    1.151
    16   7 N    3.630 --    18 C    1.421    15 N    1.151    17 C    0.908
    17   6 C    3.883 --    38 H    0.977    39 H    0.974    37 H    0.964
                            16 N    0.908
    18   6 C    3.841 --    16 N    1.421    20 O    1.156    19 C    1.041
    19   6 C    3.960 --    18 C    1.041    40 H    0.971    42 H    0.954
                            41 H    0.937
    20   8 O    2.392 --    18 C    1.156    14 C    1.068
    21   7 N    3.501 --     7 C    1.173    23 C    1.107    22 C    0.930
                            24 O    0.136
    22   6 C    3.922 --    45 H    0.979    44 H    0.974    43 H    0.974
                            21 N    0.930
    23   6 C    3.912 --    24 O    1.591    21 N    1.107    25 C    1.066
    24   8 O    1.903 --    23 C    1.591    21 N    0.136
    25   6 C    3.920 --     5 C    1.490    26 O    1.112    23 C    1.066
    26   8 O    2.093 --    25 C    1.112    46 H    0.799
    27   1 H    1.008 --     1 C    0.986
    28   1 H    1.006 --     1 C    0.980
    29   1 H    1.006 --     1 C    0.980
    30   1 H    1.009 --     9 C    0.982
    31   1 H    1.008 --     9 C    0.984
    32   1 H    1.003 --     9 C    0.983
    33   1 H    1.008 --    10 C    0.977
    34   1 H    1.000 --    10 C    0.981
    35   1 H    1.000 --    10 C    0.983
    36   1 H    0.939 --    11 N    0.893
    37   1 H    0.989 --    17 C    0.964
    38   1 H    0.992 --    17 C    0.977
    39   1 H    0.989 --    17 C    0.974
    40   1 H    0.986 --    19 C    0.971
    41   1 H    0.985 --    19 C    0.937
    42   1 H    0.986 --    19 C    0.954
    43   1 H    1.005 --    22 C    0.974
    44   1 H    1.001 --    22 C    0.974
    45   1 H    1.008 --    22 C    0.979
    46   1 H    0.850 --    26 O    0.799
 ---------------------------------------------------------------------------

           -------------------------------------------------
          | TOTAL ENERGY              -86.359306156138 Eh   |
          | GRADIENT NORM               0.000598884272 Eh/α |
          | HOMO-LUMO GAP               1.964593722689 eV   |
           -------------------------------------------------

 * finished run on 2023/06/20 at 15:42:14.343
