   * xtb version 6.5.1 (579679a) compiled by 'ehlert@majestix' on 2022-07-11
          program call               : /lustre/hpc/kemi/ree/PhD/git/ReactivityQM/dep/xtb-6.5.1/bin/xtb --gfn 1 /lustre/hpc/kemi/ree/PhD/git/ReactivityQM/calculations/R01/reac02prodE08/conf06/R01_reac02prodE08_conf06_gfn1.xyz --opt --vfukui --chrg -1 --uhf 0 --alpb DMSO

   ID    Z sym.   atoms
    1    6 C      1, 3, 5, 7-10, 13, 15, 16
    2    8 O      2, 4, 14, 17
    3    7 N      6, 11, 12
    4    1 H      18-33

      * Solvation model:               ALPB
        Solvent                        DMSO
        Solvent mass                       7.8130E+01 g/mol
          :  Hamiltonian                  GFN1-xTB          :
 * total energy  :   -58.5569503 Eh     change       -0.7254641E-11 Eh
 * total energy  :   -58.5666124 Eh     change       -0.9662194E-02 Eh
 * total energy  :   -58.5693947 Eh     change       -0.2782264E-02 Eh
 * total energy  :   -58.5696819 Eh     change       -0.2872054E-03 Eh
 * total energy  :   -58.5698633 Eh     change       -0.1813422E-03 Eh
 * total energy  :   -58.5699135 Eh     change       -0.5023878E-04 Eh
 * total energy  :   -58.5699719 Eh     change       -0.5837311E-04 Eh
 * total energy  :   -58.5700052 Eh     change       -0.3331109E-04 Eh
 * total energy  :   -58.5700282 Eh     change       -0.2304932E-04 Eh
 * total energy  :   -58.5700481 Eh     change       -0.1983823E-04 Eh
 * total energy  :   -58.5700642 Eh     change       -0.1614440E-04 Eh
 * total energy  :   -58.5700859 Eh     change       -0.2173218E-04 Eh
 * total energy  :   -58.5700989 Eh     change       -0.1296997E-04 Eh
 * total energy  :   -58.5701113 Eh     change       -0.1239414E-04 Eh
 * total energy  :   -58.5701215 Eh     change       -0.1015271E-04 Eh
 * total energy  :   -58.5701283 Eh     change       -0.6879332E-05 Eh
 * total energy  :   -58.5701329 Eh     change       -0.4542315E-05 Eh
   *** GEOMETRY OPTIMIZATION CONVERGED AFTER 17 ITERATIONS ***

 final structure:
================
33
 xtb: 6.5.1 (579679a)
C           -3.57766850657680        2.44848428120636       -0.39451969686357
O           -2.33663593316937        1.79051054367576       -0.22144056298690
C           -2.42818088594595        0.42474832354262        0.04127042605329
O           -3.56014554070969       -0.10375774044326        0.11393960448172
C           -1.20545372708446       -0.23045660597528        0.21028018036934
N           -0.03164479361243        0.47161256674961        0.14329620372101
C            1.10107031105209       -0.09181841978597        0.34183868479107
C            2.40069007841900        0.68714003433966        0.28649095040229
C            2.96146864803928        0.88285236172697        1.70336573184375
C            2.14394840152147        2.04867989829796       -0.37087490270593
N            3.41484972878373       -0.01880863462208       -0.50445601102425
N            1.19616862460094       -1.45761607252001        0.69226430736181
C            0.13963336600582       -2.27953965848386        0.87136750233848
O            0.30017080872868       -3.42534790492599        1.28686129627524
C           -1.23708987036283       -1.73222611881411        0.45881283159074
C           -1.64383388246767       -2.50025062439089       -0.82286968531718
O           -2.15534066190256       -2.06233600819050        1.50095933425443
H           -4.14478916430449        2.01343526187014       -1.22644594685875
H           -3.36139243758611        3.49528016125559       -0.61392912335497
H           -4.19039275705831        2.38686938799212        0.51317206041483
H            2.25887706769774        1.45363542850009        2.31062684770506
H            3.90912866816729        1.41910657896925        1.65910013112722
H            3.13103263738850       -0.08247092765303        2.17941841065124
H            1.75347443901763        1.90817917248179       -1.37895787006282
H            3.07433116446695        2.61241162922569       -0.42851630995781
H            1.41411293195489        2.61518685278178        0.20803129750730
H            3.00817648597303       -0.36771337348014       -1.36227294661445
H            3.78231411309086       -0.80413472572548        0.01221977039816
H            2.10699668564370       -1.83876998854384        0.88502867192191
H           -1.65778681696518       -3.57119824866609       -0.62120076357277
H           -2.63691745221846       -2.18218823547407       -1.13594004627303
H           -0.93317441838126       -2.29164381809904       -1.62063842431019
H           -2.99599531220693       -1.61785637682103        1.27415404669455

          :  Hamiltonian                  GFN1-xTB          :
         :: total energy             -58.570132881285 Eh    ::
         :: gradient norm              0.000725582463 Eh/a0 ::
         :: HOMO-LUMO gap              2.296794370548 eV    ::
         :: SCC energy               -59.112275915759 Eh    ::
         :: -> Gsolv                  -0.102986627341 Eh    ::
         :: repulsion energy           0.561127636118 Eh    ::

    * Orbital Energies and Occupations

         #    Occupation            Energy/Eh            Energy/eV
      -------------------------------------------------------------
         1        2.0000           -0.7807963             -21.2465
       ...           ...                  ...                  ...
        36        2.0000           -0.4788679             -13.0307
        37        2.0000           -0.4749901             -12.9251
        38        2.0000           -0.4702397             -12.7959
        39        2.0000           -0.4665086             -12.6943
        40        2.0000           -0.4587448             -12.4831
        41        2.0000           -0.4417383             -12.0203
        42        2.0000           -0.4370420             -11.8925
        43        2.0000           -0.4227649             -11.5040
        44        2.0000           -0.4186770             -11.3928
        45        2.0000           -0.4048689             -11.0170
        46        2.0000           -0.3922631             -10.6740
        47        2.0000           -0.3790640             -10.3149
        48        2.0000           -0.3248637              -8.8400 (HOMO)
        49                         -0.2404581              -6.5432 (LUMO)
        50                         -0.1950235              -5.3069
        51                         -0.1382180              -3.7611
        52                         -0.1147632              -3.1229
        53                         -0.1115968              -3.0367
        54                         -0.1100890              -2.9957
        55                         -0.0962606              -2.6194
        56                         -0.0917719              -2.4972
        57                         -0.0636901              -1.7331
        58                         -0.0619520              -1.6858
        59                         -0.0501941              -1.3659
       ...                                ...                  ...
       100                          0.6791983              18.4819
      -------------------------------------------------------------
                  HL-Gap            0.0844056 Eh            2.2968 eV

Wiberg/Mayer (AO) data.
largest (>0.10) Wiberg bond orders for each atom

     #   Z sym  total        # sym  WBO       # sym  WBO       # sym  WBO
 ---------------------------------------------------------------------------
     1   6 C    3.913 --    19 H    0.987    20 H    0.981    18 H    0.981
                             2 O    0.943
     2   8 O    2.084 --     3 C    0.962     1 C    0.943
     3   6 C    3.867 --     4 O    1.429     5 C    1.340     2 O    0.962
     4   8 O    1.801 --     3 C    1.429     5 C    0.113
     5   6 C    3.860 --     3 C    1.340     6 N    1.189    15 C    0.967
                             4 O    0.113
     6   7 N    3.049 --     7 C    1.633     5 C    1.189
     7   6 C    3.907 --     6 N    1.633    12 N    0.993     8 C    0.976
     8   6 C    3.966 --    10 C    0.998     9 C    0.988     7 C    0.976
                            11 N    0.973
     9   6 C    3.992 --     8 C    0.988    21 H    0.987    22 H    0.986
                            23 H    0.985
    10   6 C    3.997 --     8 C    0.998    25 H    0.988    26 H    0.986
                            24 H    0.986
    11   7 N    2.947 --     8 C    0.973    27 H    0.947    28 H    0.946
    12   7 N    3.395 --    13 C    1.237     7 C    0.993    29 H    0.903
                            14 O    0.143
    13   6 C    3.884 --    14 O    1.578    12 N    1.237    15 C    0.938
    14   8 O    1.856 --    13 C    1.578    12 N    0.143
    15   6 C    3.915 --     5 C    0.967    16 C    0.963    17 O    0.942
                            13 C    0.938
    16   6 C    3.996 --    32 H    0.988    30 H    0.986    31 H    0.983
                            15 C    0.963
    17   8 O    1.878 --    15 C    0.942    33 H    0.840
    18   1 H    1.019 --     1 C    0.981
    19   1 H    1.019 --     1 C    0.987
    20   1 H    1.019 --     1 C    0.981
    21   1 H    1.007 --     9 C    0.987
    22   1 H    1.005 --     9 C    0.986
    23   1 H    1.004 --     9 C    0.985
    24   1 H    1.011 --    10 C    0.986
    25   1 H    1.010 --    10 C    0.988
    26   1 H    1.017 --    10 C    0.986
    27   1 H    0.965 --    11 N    0.947
    28   1 H    0.963 --    11 N    0.946
    29   1 H    0.953 --    12 N    0.903
    30   1 H    1.012 --    16 C    0.986
    31   1 H    1.017 --    16 C    0.983
    32   1 H    1.011 --    16 C    0.988
    33   1 H    0.903 --    17 O    0.840
 ---------------------------------------------------------------------------

           -------------------------------------------------
          | TOTAL ENERGY              -58.570132881285 Eh   |
          | GRADIENT NORM               0.000725582463 Eh/α |
          | HOMO-LUMO GAP               2.296794370548 eV   |
           -------------------------------------------------

 * finished run on 2023/06/20 at 15:02:10.961
