   * xtb version 6.5.1 (579679a) compiled by 'ehlert@majestix' on 2022-07-11
          program call               : /lustre/hpc/kemi/ree/PhD/git/ReactivityQM/dep/xtb-6.5.1/bin/xtb --gfn 1 /lustre/hpc/kemi/ree/PhD/git/ReactivityQM/calculations/R01/reac01prodN07/conf09/R01_reac01prodN07_conf09_gfn1.xyz --opt --vfukui --chrg 1 --uhf 0 --alpb DMSO

   ID    Z sym.   atoms
    1    6 C      1, 3, 5, 8-10
    2    8 O      2, 4, 11
    3    7 N      6, 7
    4    1 H      12-20

      * Solvation model:               ALPB
        Solvent                        DMSO
        Solvent mass                       7.8130E+01 g/mol
          :  Hamiltonian                  GFN1-xTB          :
 * total energy  :   -37.5579364 Eh     change       -0.3559819E-11 Eh
 * total energy  :   -37.5689152 Eh     change       -0.1097882E-01 Eh
 * total energy  :   -37.5734802 Eh     change       -0.4564973E-02 Eh
 * total energy  :   -37.5742589 Eh     change       -0.7787371E-03 Eh
 * total energy  :   -37.5747995 Eh     change       -0.5405434E-03 Eh
 * total energy  :   -37.5749297 Eh     change       -0.1302131E-03 Eh
 * total energy  :   -37.5750523 Eh     change       -0.1225814E-03 Eh
 * total energy  :   -37.5751292 Eh     change       -0.7696292E-04 Eh
 * total energy  :   -37.5751666 Eh     change       -0.3733380E-04 Eh
 * total energy  :   -37.5751856 Eh     change       -0.1899562E-04 Eh
 * total energy  :   -37.5751914 Eh     change       -0.5771933E-05 Eh
 * total energy  :   -37.5751950 Eh     change       -0.3651736E-05 Eh
   *** GEOMETRY OPTIMIZATION CONVERGED AFTER 12 ITERATIONS ***

 final structure:
================
20
 xtb: 6.5.1 (579679a)
C            3.70336630635313       -0.20895721489312        1.12925886495799
O            2.31321473138096       -0.12183399073334        0.75358685543038
C            2.01675403786572       -0.25750960022609       -0.50421785686188
O            2.75013141913277       -0.44980790440697       -1.42765185632517
C            0.50027250950730       -0.13774977617572       -0.71023890288338
N           -0.11757190998314       -0.22906508930304       -1.93539496736594
N           -1.35406005451932       -0.08754997185552       -1.74073339603031
C           -1.62020385647194        0.10724509945983       -0.36283840703549
C           -2.48934132545057       -1.02831986004070        0.20110853430219
C           -2.24323546585373        1.49029862658329       -0.11255274815225
O           -0.32542688669309        0.05519991276718        0.22591767758277
H            4.07395559801815       -1.20967802081989        0.90334436988878
H            4.27582928908790        0.53440308466478        0.57283465200639
H            3.73534315208389       -0.01155592841958        2.19755485037739
H           -2.61191395900962       -0.87197710912232        1.27021456779311
H           -1.99500008884302       -1.97994873346268        0.01776123200827
H           -3.45610861238759       -1.00529768451767       -0.29610101000021
H           -2.38198769141388        1.61902568569451        0.95816350383812
H           -1.57307775619427        2.25631301517382       -0.49665928868878
H           -3.20093843660962        1.53676645963303       -0.62513267484189

          :  Hamiltonian                  GFN1-xTB          :
         :: total energy             -37.575195002935 Eh    ::
         :: gradient norm              0.000497117752 Eh/a0 ::
         :: HOMO-LUMO gap              1.781350941587 eV    ::
         :: SCC energy               -37.911056375006 Eh    ::
         :: -> Gsolv                  -0.082795439380 Eh    ::
         :: repulsion energy           0.344287093790 Eh    ::

    * Orbital Energies and Occupations

         #    Occupation            Energy/Eh            Energy/eV
      -------------------------------------------------------------
         1        2.0000           -0.9573680             -26.0513
       ...           ...                  ...                  ...
        18        2.0000           -0.6147545             -16.7283
        19        2.0000           -0.6117253             -16.6459
        20        2.0000           -0.6108369             -16.6217
        21        2.0000           -0.5875085             -15.9869
        22        2.0000           -0.5857261             -15.9384
        23        2.0000           -0.5790380             -15.7564
        24        2.0000           -0.5749313             -15.6447
        25        2.0000           -0.5686190             -15.4729
        26        2.0000           -0.5557744             -15.1234
        27        2.0000           -0.5517950             -15.0151
        28        2.0000           -0.5425276             -14.7629
        29        2.0000           -0.5355766             -14.5738
        30        2.0000           -0.5252915             -14.2939 (HOMO)
        31                         -0.4598281             -12.5126 (LUMO)
        32                         -0.3770390             -10.2598
        33                         -0.2803219              -7.6279
        34                         -0.1701835              -4.6309
        35                         -0.1643890              -4.4733
        36                         -0.1598600              -4.3500
        37                         -0.1203681              -3.2754
        38                         -0.1124436              -3.0597
        39                         -0.0978220              -2.6619
        40                         -0.0950895              -2.5875
        41                         -0.0923168              -2.5121
       ...                                ...                  ...
        62                          0.7359360              20.0258
      -------------------------------------------------------------
                  HL-Gap            0.0654634 Eh            1.7814 eV

Wiberg/Mayer (AO) data.
largest (>0.10) Wiberg bond orders for each atom

     #   Z sym  total        # sym  WBO       # sym  WBO       # sym  WBO
 ---------------------------------------------------------------------------
     1   6 C    3.819 --    14 H    0.982    13 H    0.972    12 H    0.971
                             2 O    0.853
     2   8 O    2.272 --     3 C    1.203     1 C    0.853     4 O    0.174
     3   6 C    3.882 --     4 O    1.710     2 O    1.203     5 C    0.898
     4   8 O    1.997 --     3 C    1.710     2 O    0.174
     5   6 C    3.790 --    11 O    1.391     6 N    1.202     3 C    0.898
     6   7 N    3.022 --     7 N    1.676     5 C    1.202
     7   7 N    2.995 --     6 N    1.676     8 C    1.075
     8   6 C    3.813 --     7 N    1.075     9 C    0.884    10 C    0.883
                            11 O    0.867
     9   6 C    3.941 --    16 H    0.978    17 H    0.975    15 H    0.974
                             8 C    0.884
    10   6 C    3.941 --    19 H    0.978    20 H    0.975    18 H    0.974
                             8 C    0.883
    11   8 O    2.439 --     5 C    1.391     8 C    0.867
    12   1 H    0.996 --     1 C    0.971
    13   1 H    0.996 --     1 C    0.972
    14   1 H    1.002 --     1 C    0.982
    15   1 H    0.989 --     9 C    0.974
    16   1 H    0.989 --     9 C    0.978
    17   1 H    0.989 --     9 C    0.975
    18   1 H    0.989 --    10 C    0.974
    19   1 H    0.989 --    10 C    0.978
    20   1 H    0.989 --    10 C    0.975
 ---------------------------------------------------------------------------

           -------------------------------------------------
          | TOTAL ENERGY              -37.575195002935 Eh   |
          | GRADIENT NORM               0.000497117752 Eh/α |
          | HOMO-LUMO GAP               1.781350941587 eV   |
           -------------------------------------------------

 * finished run on 2023/06/20 at 14:56:44.995
