   * xtb version 6.5.1 (579679a) compiled by 'ehlert@majestix' on 2022-07-11
          program call               : /lustre/hpc/kemi/ree/PhD/git/ReactivityQM/dep/xtb-6.5.1/bin/xtb --gfn 1 /lustre/hpc/kemi/ree/PhD/git/ReactivityQM/calculations/R02methylcation/reac01prodE13/conf04/R02methylcation_reac01prodE13_conf04_gfn1.xyz --opt --vfukui --chrg -2 --uhf 0 --alpb DMSO

   ID    Z sym.   atoms
    1    6 C      1, 3, 5, 6, 8, 10, 12-15, 17, 19, 22, 23
    2    8 O      2, 4, 7, 9, 18, 24
    3    7 N      11, 16, 20, 21, 25
    4    1 H      26-42

      * Solvation model:               ALPB
        Solvent                        DMSO
        Solvent mass                       7.8130E+01 g/mol
          :  Hamiltonian                  GFN1-xTB          :
 * total energy  :   -83.5662912 Eh     change       -0.9033840E-10 Eh
 * total energy  :   -83.5804308 Eh     change       -0.1413960E-01 Eh
 * total energy  :   -83.5859483 Eh     change       -0.5517554E-02 Eh
 * total energy  :   -83.5868644 Eh     change       -0.9160566E-03 Eh
 * total energy  :   -83.5872799 Eh     change       -0.4155603E-03 Eh
 * total energy  :   -83.5873978 Eh     change       -0.1178467E-03 Eh
 * total energy  :   -83.5874880 Eh     change       -0.9023979E-04 Eh
 * total energy  :   -83.5875717 Eh     change       -0.8367015E-04 Eh
 * total energy  :   -83.5876776 Eh     change       -0.1059021E-03 Eh
 * total energy  :   -83.5878481 Eh     change       -0.1705024E-03 Eh
 * total energy  :   -83.5938306 Eh     change       -0.1057554E-04 Eh
 * total energy  :   -83.5938423 Eh     change       -0.1176364E-04 Eh
 * total energy  :   -83.5938560 Eh     change       -0.1364839E-04 Eh
 * total energy  :   -83.5938673 Eh     change       -0.1133482E-04 Eh
 * total energy  :   -83.5938806 Eh     change       -0.1330769E-04 Eh
 * total energy  :   -83.5938916 Eh     change       -0.1093334E-04 Eh
 * total energy  :   -83.5938989 Eh     change       -0.7361262E-05 Eh
 * total energy  :   -83.5939058 Eh     change       -0.6916462E-05 Eh
 * total energy  :   -83.5939091 Eh     change       -0.3260054E-05 Eh
   *** GEOMETRY OPTIMIZATION CONVERGED AFTER 78 ITERATIONS ***

 final structure:
================
42
 xtb: 6.5.1 (579679a)
C            3.89827204565494        3.78947092585055       -0.64868133058999
O            3.75767028814375        2.38763062282304       -0.62052936611497
C            2.45893665390052        1.92848535222989       -0.35434150206090
O            1.56129443652762        2.78223892082337       -0.17190983078557
C            2.30514480204060        0.52857766990939       -0.31740612471627
C            3.37885434952876       -0.47040252861674       -0.51500641420670
O            4.58447619031994       -0.16251596314347       -0.77965985838799
C            2.95740491353202       -1.79608401736998       -0.38245809586812
O            3.77377564306021       -2.92433262539147       -0.47623065291646
C            4.49273583641463       -3.07219933960168       -1.69322103746949
N            1.61240419698022       -2.12748776411820       -0.12575362742703
C            0.68702171498352       -1.13056068388626        0.04965700651530
C           -0.74554556239084       -1.56063723447125        0.33913140972860
C           -1.27943226352183       -2.39389227052299       -0.84194866316206
C           -0.79473905841974       -2.38433699807268        1.63693194035712
N           -1.52387695827503       -0.34262311902569        0.50453215204601
C           -2.90163232153330       -0.33758201210352        0.60543429789363
O           -3.57353489079199       -1.35614415214016        0.87905649596605
C           -3.44915005302320        0.97587383159734        0.41399365270260
N           -2.76972515804202        2.08163817877386        0.11040094132643
N           -3.69108695663963        3.08617682925776       -0.00065926803974
C           -4.85300183814749        2.57009861584313        0.23044121474723
C           -6.16101018136142        3.27101557678536        0.22120080092330
O           -4.80038097557693        1.24431560134593        0.50242019175712
N            0.99153690599417        0.11213441072207       -0.04296429120553
H            4.94450009065434        4.00991116831720       -0.86922428554490
H            3.63410180338022        4.24223545540841        0.31671635950262
H            3.26657580079658        4.24415368469902       -1.42377352000338
H            5.00533100198362       -4.03500926434090       -1.64517613521464
H            5.23617649365238       -2.27336942824426       -1.81644872747423
H            3.81846338849764       -3.06936138149872       -2.55949471032074
H            1.38408566494473       -3.09791654604442       -0.01969224205120
H           -0.64477996466855       -3.26406519365297       -0.99850198815648
H           -2.29280477472966       -2.73635473195644       -0.63807629185900
H           -1.28346943385266       -1.79430399702087       -1.75199792855984
H           -0.41959525559801       -1.78980220329737        2.47026441607481
H           -0.18254993107752       -3.27887861275885        1.53811208638406
H           -1.81871266670980       -2.68702812904351        1.85101752507559
H           -1.08652626884473        0.49293261030054        0.11327209561097
H           -6.82561781052125        2.82752353971414       -0.52064240649712
H           -6.64371967651786        3.18947036722519        1.19516993371626
H           -6.00786922073393        4.32100783469380       -0.01659022166897

          :  Hamiltonian                  GFN1-xTB          :
         :: total energy             -83.593909107277 Eh    ::
         :: gradient norm              0.000547932629 Eh/a0 ::
         :: HOMO-LUMO gap              0.046270504782 eV    ::
         :: SCC energy               -84.321093231777 Eh    ::
         :: -> Gsolv                  -0.282810691674 Eh    ::
         :: repulsion energy           0.752033444829 Eh    ::

    * Orbital Energies and Occupations

         #    Occupation            Energy/Eh            Energy/eV
      -------------------------------------------------------------
         1        2.0000           -0.8036587             -21.8687
       ...           ...                  ...                  ...
        56        2.0000           -0.4339083             -11.8072
        57        2.0000           -0.4311145             -11.7312
        58        2.0000           -0.4258060             -11.5868
        59        2.0000           -0.4086909             -11.1210
        60        2.0000           -0.4059052             -11.0452
        61        2.0000           -0.4051301             -11.0242
        62        2.0000           -0.3974718             -10.8158
        63        2.0000           -0.3896077             -10.6018
        64        2.0000           -0.3877243             -10.5505
        65        2.0000           -0.3834606             -10.4345
        66        2.0000           -0.3411226              -9.2824
        67        2.0000           -0.3347712              -9.1096
        68        1.4198           -0.2669060              -7.2629 (HOMO)
        69        0.5802           -0.2652056              -7.2166 (LUMO)
        70                         -0.2115942              -5.7578
        71                         -0.1993543              -5.4247
        72                         -0.1620537              -4.4097
        73                         -0.1403167              -3.8182
        74                         -0.1256029              -3.4178
        75                         -0.1068428              -2.9073
        76                         -0.1052873              -2.8650
        77                         -0.1048491              -2.8531
        78                         -0.0978300              -2.6621
        79                         -0.0732501              -1.9932
       ...                                ...                  ...
       134                          0.7132206              19.4077
      -------------------------------------------------------------
                  HL-Gap            0.0017004 Eh            0.0463 eV

Wiberg/Mayer (AO) data.
largest (>0.10) Wiberg bond orders for each atom

     #   Z sym  total        # sym  WBO       # sym  WBO       # sym  WBO
 ---------------------------------------------------------------------------
     1   6 C    3.924 --    26 H    0.987    27 H    0.980    28 H    0.980
                             2 O    0.957
     2   8 O    2.067 --     1 C    0.957     3 C    0.943
     3   6 C    3.787 --     4 O    1.438     5 C    1.302     2 O    0.943
     4   8 O    1.695 --     3 C    1.438
     5   6 C    3.754 --     3 C    1.302    25 N    1.098     6 C    1.071
     6   6 C    3.924 --     7 O    1.383     8 C    1.346     5 C    1.071
     7   8 O    1.680 --     6 C    1.383     8 C    0.119
     8   6 C    3.531 --     6 C    1.346    11 N    1.008     9 O    0.947
                             7 O    0.119
     9   8 O    2.009 --     8 C    0.947    10 C    0.935
    10   6 C    3.910 --    29 H    0.987    31 H    0.983    30 H    0.978
                             9 O    0.935
    11   7 N    3.241 --    12 C    1.126     8 C    1.008    32 H    0.910
                            25 N    0.108
    12   6 C    3.929 --    25 N    1.619    11 N    1.126    13 C    0.973
    13   6 C    3.952 --    15 C    0.985    14 C    0.980    12 C    0.973
                            16 N    0.951
    14   6 C    3.990 --    35 H    0.987    33 H    0.986    34 H    0.981
                            13 C    0.980
    15   6 C    3.991 --    36 H    0.987    37 H    0.986    13 C    0.985
                            38 H    0.981
    16   7 N    3.192 --    17 C    1.133    13 C    0.951    39 H    0.895
                            18 O    0.123
    17   6 C    3.774 --    18 O    1.443    16 N    1.133    19 C    1.130
    18   8 O    1.699 --    17 C    1.443    16 N    0.123
    19   6 C    3.693 --    20 N    1.414    17 C    1.130    24 O    0.980
    20   7 N    2.763 --    19 C    1.414    21 N    1.186
    21   7 N    2.981 --    22 C    1.628    20 N    1.186
    22   6 C    3.821 --    21 N    1.628    24 O    1.051    23 C    1.024
    23   6 C    3.994 --    22 C    1.024    42 H    0.986    41 H    0.971
                            40 H    0.971
    24   8 O    2.188 --    22 C    1.051    19 C    0.980
    25   7 N    2.982 --    12 C    1.619     5 C    1.098    11 N    0.108
    26   1 H    1.021 --     1 C    0.987
    27   1 H    1.022 --     1 C    0.980
    28   1 H    1.022 --     1 C    0.980
    29   1 H    1.020 --    10 C    0.987
    30   1 H    1.039 --    10 C    0.978
    31   1 H    1.014 --    10 C    0.983
    32   1 H    0.960 --    11 N    0.910
    33   1 H    1.006 --    14 C    0.986
    34   1 H    1.016 --    14 C    0.981
    35   1 H    1.007 --    14 C    0.987
    36   1 H    1.010 --    15 C    0.987
    37   1 H    1.006 --    15 C    0.986
    38   1 H    1.020 --    15 C    0.981
    39   1 H    0.997 --    16 N    0.895
    40   1 H    1.001 --    23 C    0.971
    41   1 H    1.001 --    23 C    0.971
    42   1 H    1.004 --    23 C    0.986
 ---------------------------------------------------------------------------

           -------------------------------------------------
          | TOTAL ENERGY              -83.593909107277 Eh   |
          | GRADIENT NORM               0.000547932629 Eh/α |
          | HOMO-LUMO GAP               0.046270504782 eV   |
           -------------------------------------------------

 * finished run on 2023/06/21 at 17:25:49.673
