   * xtb version 6.5.1 (579679a) compiled by 'ehlert@majestix' on 2022-07-11
          program call               : /lustre/hpc/kemi/ree/PhD/git/ReactivityQM/dep/xtb-6.5.1/bin/xtb --gfn 1 /lustre/hpc/kemi/ree/PhD/git/ReactivityQM/calculations/R02deprot/reac01prodN19/conf04/R02deprot_reac01prodN19_conf04_gfn1.xyz --opt --vfukui --chrg 0 --uhf 0 --alpb DMSO

   ID    Z sym.   atoms
    1    6 C      1, 3, 5, 7-10, 12, 14, 17, 18, 21, 23, 24
    2    8 O      2, 4, 13, 19, 22, 25
    3    7 N      6, 11, 15, 16, 20
    4    1 H      26-42

      * Solvation model:               ALPB
        Solvent                        DMSO
        Solvent mass                       7.8130E+01 g/mol
          :  Hamiltonian                  GFN1-xTB          :
 * total energy  :   -82.9910883 Eh     change       -0.8185452E-11 Eh
 * total energy  :   -83.0033924 Eh     change       -0.1230408E-01 Eh
 * total energy  :   -83.0079227 Eh     change       -0.4530303E-02 Eh
 * total energy  :   -83.0086289 Eh     change       -0.7061494E-03 Eh
 * total energy  :   -83.0091952 Eh     change       -0.5663234E-03 Eh
 * total energy  :   -83.0095017 Eh     change       -0.3064995E-03 Eh
 * total energy  :   -83.0098005 Eh     change       -0.2988153E-03 Eh
 * total energy  :   -83.0100322 Eh     change       -0.2316519E-03 Eh
 * total energy  :   -83.0101790 Eh     change       -0.1468643E-03 Eh
 * total energy  :   -83.0102658 Eh     change       -0.8682018E-04 Eh
 * total energy  :   -83.0111821 Eh     change       -0.1262626E-04 Eh
 * total energy  :   -83.0111920 Eh     change       -0.9930120E-05 Eh
 * total energy  :   -83.0112017 Eh     change       -0.9739166E-05 Eh
 * total energy  :   -83.0112131 Eh     change       -0.1137699E-04 Eh
 * total energy  :   -83.0112255 Eh     change       -0.1239260E-04 Eh
 * total energy  :   -83.0112356 Eh     change       -0.1014348E-04 Eh
 * total energy  :   -83.0112428 Eh     change       -0.7144407E-05 Eh
 * total energy  :   -83.0112486 Eh     change       -0.5793582E-05 Eh
 * total energy  :   -83.0112518 Eh     change       -0.3179554E-05 Eh
   *** GEOMETRY OPTIMIZATION CONVERGED AFTER 68 ITERATIONS ***

 final structure:
================
42
 xtb: 6.5.1 (579679a)
C           -4.66331468955666        2.67319988372943       -3.14387211054831
O           -3.95494449742973        1.60948187248639       -2.50120402106322
C           -3.14728203980794        1.95105774895839       -1.50119948776495
O           -3.00245449221209        3.09210664242884       -1.12617842378858
C           -2.42608983407163        0.78985036344246       -0.89228091209286
N           -1.58245862263406        1.12580254665688        0.10715051008522
C           -0.87452109990098        0.19291618981418        0.69451289705061
C            0.08195568541581        0.58011684046421        1.80777369101023
C           -0.21703385132319       -0.27599481745460        3.04568595715917
C           -0.02309382764507        2.07500736019976        2.11748663628908
N            1.42728852030865        0.26359283840550        1.30319658882817
C            2.55589725895045        0.46698537318272        2.00500732425084
O            2.61968002666731        0.92859341114851        3.13400915452506
C            3.77807063942694        0.08918303675649        1.24573645115212
N            5.01098041258584        0.18305354507583        1.63588521486827
N            5.78651298027209       -0.24174340768606        0.59776931568910
C            4.97918758577157       -0.56740806340458       -0.36238576513336
C            5.32728860760932       -1.07905300445368       -1.70586391890955
O            3.69342629415962       -0.38275641141381       -0.01778760645446
N           -0.92000421685026       -1.11599155602204        0.38133640645091
C           -1.74782179171663       -1.47654661570966       -0.57371989000866
O           -1.86873793943943       -2.75898888685097       -0.93008313073552
C           -1.07758578040352       -3.71248778268910       -0.21953754662863
C           -2.55028101766755       -0.53643948194462       -1.27444882095459
O           -3.37519558236580       -0.95044250955334       -2.24839501090228
H           -5.35153665174077        3.14558307482748       -2.43863893228227
H           -3.95948543092494        3.42044518943776       -3.51841302342460
H           -5.21486299718373        2.22602369897949       -3.96828114623090
H           -0.12150380313345       -1.33020052427539        2.79040902705226
H           -1.23470208031991       -0.08440812293760        3.38281845666460
H            0.47627237546716       -0.03542870044101        3.84968405392105
H            0.23131661031563        2.65616954673118        1.23211251370745
H            0.64931658337157        2.34279064072889        2.93033650408399
H           -1.04573247520383        2.30975225052061        2.40909310253359
H            1.48918264258449       -0.17478437044513        0.39877692990777
H            4.89499414983069       -0.43546331434274       -2.47152899040239
H            4.92073629835363       -2.08094596800987       -1.84076060106882
H            6.40837277532595       -1.10820104208622       -1.81853801960308
H           -1.33146425541022       -4.68899679171762       -0.62745074261593
H           -1.30933046120441       -3.67300363816491        0.84809879113204
H           -0.01538689472375       -3.50326745203083       -0.36633199657979
H           -3.31565311353294       -1.90916059233940       -2.36997842916694

          :  Hamiltonian                  GFN1-xTB          :
         :: total energy             -83.011251755303 Eh    ::
         :: gradient norm              0.000171001799 Eh/a0 ::
         :: HOMO-LUMO gap              2.944970979797 eV    ::
         :: SCC energy               -83.789202667839 Eh    ::
         :: -> Gsolv                  -0.058847322763 Eh    ::
         :: repulsion energy           0.802773724856 Eh    ::

    * Orbital Energies and Occupations

         #    Occupation            Energy/Eh            Energy/eV
      -------------------------------------------------------------
         1        2.0000           -0.8639806             -23.5101
       ...           ...                  ...                  ...
        55        2.0000           -0.4979255             -13.5492
        56        2.0000           -0.4962159             -13.5027
        57        2.0000           -0.4953053             -13.4779
        58        2.0000           -0.4789269             -13.0323
        59        2.0000           -0.4784485             -13.0192
        60        2.0000           -0.4744142             -12.9095
        61        2.0000           -0.4700701             -12.7913
        62        2.0000           -0.4594893             -12.5033
        63        2.0000           -0.4575534             -12.4507
        64        2.0000           -0.4489730             -12.2172
        65        2.0000           -0.4442224             -12.0879
        66        2.0000           -0.4359074             -11.8616
        67        2.0000           -0.4298459             -11.6967 (HOMO)
        68                         -0.3216202              -8.7517 (LUMO)
        69                         -0.3073915              -8.3645
        70                         -0.2830427              -7.7020
        71                         -0.2555635              -6.9542
        72                         -0.2374087              -6.4602
        73                         -0.1955583              -5.3214
        74                         -0.1547017              -4.2096
        75                         -0.1420844              -3.8663
        76                         -0.1392361              -3.7888
        77                         -0.1374051              -3.7390
        78                         -0.1182637              -3.2181
       ...                                ...                  ...
       134                          0.7291921              19.8423
      -------------------------------------------------------------
                  HL-Gap            0.1082257 Eh            2.9450 eV

Wiberg/Mayer (AO) data.
largest (>0.10) Wiberg bond orders for each atom

     #   Z sym  total        # sym  WBO       # sym  WBO       # sym  WBO
 ---------------------------------------------------------------------------
     1   6 C    3.871 --    28 H    0.986    27 H    0.979    26 H    0.979
                             2 O    0.896
     2   8 O    2.207 --     3 C    1.119     1 C    0.896     4 O    0.136
     3   6 C    3.849 --     4 O    1.661     2 O    1.119     5 C    0.991
     4   8 O    1.923 --     3 C    1.661     2 O    0.136
     5   6 C    3.967 --    24 C    1.406     6 N    1.286     3 C    0.991
     6   7 N    3.031 --     7 C    1.484     5 C    1.286
     7   6 C    3.945 --     6 N    1.484    20 N    1.299     8 C    0.977
     8   6 C    3.932 --    10 C    0.997     9 C    0.983     7 C    0.977
                            11 N    0.913
     9   6 C    3.990 --    30 H    0.986    29 H    0.984     8 C    0.983
                            31 H    0.981
    10   6 C    3.991 --     8 C    0.997    34 H    0.985    32 H    0.985
                            33 H    0.982
    11   7 N    3.360 --    12 C    1.273     8 C    0.913    35 H    0.894
                            13 O    0.180
    12   6 C    3.919 --    13 O    1.576    11 N    1.273    14 C    0.988
    13   8 O    1.895 --    12 C    1.576    11 N    0.180
    14   6 C    3.870 --    15 N    1.626    19 O    1.047    12 C    0.988
    15   7 N    2.998 --    14 C    1.626    16 N    1.195
    16   7 N    2.981 --    17 C    1.614    15 N    1.195
    17   6 C    3.869 --    16 N    1.614    19 O    1.071    18 C    1.031
    18   6 C    3.987 --    17 C    1.031    38 H    0.982    36 H    0.965
                            37 H    0.962
    19   8 O    2.314 --    17 C    1.071    14 C    1.047
    20   7 N    3.026 --    21 C    1.419     7 C    1.299
    21   6 C    3.908 --    20 N    1.419    24 C    1.204    22 O    1.083
    22   8 O    2.184 --    21 C    1.083    23 C    0.896
    23   6 C    3.869 --    39 H    0.984    40 H    0.980    41 H    0.980
                            22 O    0.896
    24   6 C    3.923 --     5 C    1.406    21 C    1.204    25 O    1.090
    25   8 O    2.068 --    24 C    1.090    42 H    0.815
    26   1 H    1.007 --     1 C    0.979
    27   1 H    1.007 --     1 C    0.979
    28   1 H    1.011 --     1 C    0.986
    29   1 H    1.011 --     9 C    0.984
    30   1 H    1.002 --     9 C    0.986
    31   1 H    1.009 --     9 C    0.981
    32   1 H    1.009 --    10 C    0.985
    33   1 H    1.011 --    10 C    0.982
    34   1 H    1.008 --    10 C    0.985
    35   1 H    0.946 --    11 N    0.894
    36   1 H    0.997 --    18 C    0.965
    37   1 H    0.997 --    18 C    0.962
    38   1 H    0.998 --    18 C    0.982
    39   1 H    1.009 --    23 C    0.984
    40   1 H    1.009 --    23 C    0.980
    41   1 H    1.008 --    23 C    0.980
    42   1 H    0.843 --    25 O    0.815
 ---------------------------------------------------------------------------

           -------------------------------------------------
          | TOTAL ENERGY              -83.011251755303 Eh   |
          | GRADIENT NORM               0.000171001799 Eh/α |
          | HOMO-LUMO GAP               2.944970979797 eV   |
           -------------------------------------------------

 * finished run on 2023/06/20 at 18:30:56.634
