                         Program Version 5.0.1 -  RELEASE  -
|  1> # ORCA input file
|  2> ! SP r2SCAN-3c CPCM
|  3>
|  4> %maxcore 1875.0
|  5> %pal nprocs 4 end
|  6> %cpcm smd true SMDsolvent "DMSO" end
|  7>
|  8> *xyz -1 1
|  9> C      -2.312718    2.040350   -0.692485
| 10> O      -2.289062    1.321402    0.535877
| 11> C      -2.199001   -0.068869    0.412886
| 12> O      -3.438807   -0.725007    0.447515
| 13> C      -4.146628   -0.588714    1.674399
| 14> C      -1.014060   -0.707353    0.177908
| 15> N       0.105765    0.139620    0.042002
| 16> C       1.254658   -0.379337   -0.209358
| 17> C       2.479874    0.515664   -0.315622
| 18> C       3.146628    0.580768    1.065726
| 19> C       2.074182    1.920315   -0.779251
| 20> N       3.424048   -0.096994   -1.251846
| 21> N       1.473609   -1.708033   -0.326205
| 22> C       0.429904   -2.683769   -0.215254
| 23> O       0.762745   -3.888446   -0.357384
| 24> C      -0.811359   -2.125513    0.049724
| 25> O      -1.896591   -3.012105    0.220268
| 26> H      -3.144281    1.715891   -1.330447
| 27> H      -1.369398    1.907234   -1.237935
| 28> H      -2.439283    3.096951   -0.448561
| 29> H      -4.309604    0.468090    1.916281
| 30> H      -5.112922   -1.079361    1.548901
| 31> H      -3.602436   -1.063911    2.500919
| 32> H       4.021275    1.229044    1.030876
| 33> H       3.461873   -0.416239    1.374364
| 34> H       2.446685    0.975312    1.802549
| 35> H       1.352396    2.345738   -0.081282
| 36> H       2.948299    2.567222   -0.829708
| 37> H       1.615602    1.870668   -1.766514
| 38> H       3.098487    0.044017   -2.199413
| 39> H       4.317994    0.365521   -1.174064
| 40> H       2.394117   -2.029469   -0.583427
| 41> H      -2.721991   -2.530687    0.057467
| 42> **                         ****END OF INPUT****

CARTESIAN COORDINATES (ANGSTROEM)
---------------------------------
  C     -2.312718    2.040350   -0.692485
  O     -2.289062    1.321402    0.535877
  C     -2.199001   -0.068869    0.412886
  O     -3.438807   -0.725007    0.447515
  C     -4.146628   -0.588714    1.674399
  C     -1.014060   -0.707353    0.177908
  N      0.105765    0.139620    0.042002
  C      1.254658   -0.379337   -0.209358
  C      2.479874    0.515664   -0.315622
  C      3.146628    0.580768    1.065726
  C      2.074182    1.920315   -0.779251
  N      3.424048   -0.096994   -1.251846
  N      1.473609   -1.708033   -0.326205
  C      0.429904   -2.683769   -0.215254
  O      0.762745   -3.888446   -0.357384
  C     -0.811359   -2.125513    0.049724
  O     -1.896591   -3.012105    0.220268
  H     -3.144281    1.715891   -1.330447
  H     -1.369398    1.907234   -1.237935
  H     -2.439283    3.096951   -0.448561
  H     -4.309604    0.468090    1.916281
  H     -5.112922   -1.079361    1.548901
  H     -3.602436   -1.063911    2.500919
  H      4.021275    1.229044    1.030876
  H      3.461873   -0.416239    1.374364
  H      2.446685    0.975312    1.802549
  H      1.352396    2.345738   -0.081282
  H      2.948299    2.567222   -0.829708
  H      1.615602    1.870668   -1.766514
  H      3.098487    0.044017   -2.199413
  H      4.317994    0.365521   -1.174064
  H      2.394117   -2.029469   -0.583427
  H     -2.721991   -2.530687    0.057467

 Total Charge           Charge          ....   -1
 Multiplicity           Mult            ....    1
 Number of Electrons    NEL             ....  130
 Basis Dimension        Dim             ....  438

ORBITAL ENERGIES
----------------

  NO   OCC          E(Eh)            E(eV)
   0   2.0000     -18.957460      -515.8587
   1   2.0000     -18.943341      -515.4745
   2   2.0000     -18.928562      -515.0723
   3   2.0000     -18.859227      -513.1857
   4   2.0000     -14.161616      -385.3572
   5   2.0000     -14.131021      -384.5246
   6   2.0000     -14.117067      -384.1449
   7   2.0000     -10.078235      -274.2427
   8   2.0000     -10.073349      -274.1098
   9   2.0000     -10.070421      -274.0301
  10   2.0000     -10.065378      -273.8929
  11   2.0000     -10.057112      -273.6679
  12   2.0000     -10.052182      -273.5338
  13   2.0000     -10.038809      -273.1699
  14   2.0000     -10.030262      -272.9373
  15   2.0000     -10.012087      -272.4427
  16   2.0000     -10.004336      -272.2318
  17   2.0000      -1.012323       -27.5467
  18   2.0000      -0.965916       -26.2839
  19   2.0000      -0.958139       -26.0723
  20   2.0000      -0.940470       -25.5915
  21   2.0000      -0.903977       -24.5985
  22   2.0000      -0.851128       -23.1604
  23   2.0000      -0.819231       -22.2924
  24   2.0000      -0.729054       -19.8386
  25   2.0000      -0.697290       -18.9742
  26   2.0000      -0.667393       -18.1607
  27   2.0000      -0.646561       -17.5938
  28   2.0000      -0.637496       -17.3472
  29   2.0000      -0.615759       -16.7557
  30   2.0000      -0.588781       -16.0215
  31   2.0000      -0.518305       -14.1038
  32   2.0000      -0.514771       -14.0076
  33   2.0000      -0.495552       -13.4847
  34   2.0000      -0.481686       -13.1073
  35   2.0000      -0.459354       -12.4996
  36   2.0000      -0.444428       -12.0935
  37   2.0000      -0.436594       -11.8803
  38   2.0000      -0.419484       -11.4147
  39   2.0000      -0.415974       -11.3192
  40   2.0000      -0.408859       -11.1256
  41   2.0000      -0.396873       -10.7995
  42   2.0000      -0.387755       -10.5514
  43   2.0000      -0.383015       -10.4224
  44   2.0000      -0.379666       -10.3312
  45   2.0000      -0.366866        -9.9829
  46   2.0000      -0.358026        -9.7424
  47   2.0000      -0.346498        -9.4287
  48   2.0000      -0.341059        -9.2807
  49   2.0000      -0.332283        -9.0419
  50   2.0000      -0.322636        -8.7794
  51   2.0000      -0.312163        -8.4944
  52   2.0000      -0.309282        -8.4160
  53   2.0000      -0.305503        -8.3132
  54   2.0000      -0.298803        -8.1308
  55   2.0000      -0.288743        -7.8571
  56   2.0000      -0.284168        -7.7326
  57   2.0000      -0.239400        -6.5144
  58   2.0000      -0.232165        -6.3175
  59   2.0000      -0.221812        -6.0358
  60   2.0000      -0.215300        -5.8586
  61   2.0000      -0.202540        -5.5114
  62   2.0000      -0.181742        -4.9455
  63   2.0000      -0.171324        -4.6620
  64   2.0000      -0.098220        -2.6727
  65   0.0000       0.002572         0.0700
  66   0.0000       0.036218         0.9855
  67   0.0000       0.058729         1.5981
  68   0.0000       0.076561         2.0833
  69   0.0000       0.090242         2.4556

MULLIKEN ATOMIC CHARGES
-----------------------
   0 C :   -0.337444
   1 O :   -0.199173
   2 C :   -0.085586
   3 O :   -0.229406
   4 C :   -0.330078
   5 C :    0.026272
   6 N :   -0.208523
   7 C :    0.192593
   8 C :    0.208716
   9 C :   -0.586405
  10 C :   -0.580012
  11 N :   -0.692836
  12 N :   -0.068336
  13 C :   -0.160750
  14 O :   -0.460136
  15 C :   -0.224983
  16 O :   -0.414425
  17 H :    0.145568
  18 H :    0.157703
  19 H :    0.153688
  20 H :    0.162930
  21 H :    0.158248
  22 H :    0.151110
  23 H :    0.172820
  24 H :    0.175626
  25 H :    0.180551
  26 H :    0.172772
  27 H :    0.167814
  28 H :    0.168771
  29 H :    0.280186
  30 H :    0.287856
  31 H :    0.281226
  32 H :    0.333642
Sum of atomic charges:   -1.0000000

LOEWDIN ATOMIC CHARGES
----------------------
   0 C :   -0.072712
   1 O :   -0.679956
   2 C :    0.277268
   3 O :   -0.714085
   4 C :   -0.070412
   5 C :    0.164084
   6 N :   -0.631506
   7 C :    0.322034
   8 C :    0.057026
   9 C :   -0.361052
  10 C :   -0.379982
  11 N :   -0.697090
  12 N :   -0.557625
  13 C :    0.298935
  14 O :   -0.604831
  15 C :    0.122786
  16 O :   -0.553318
  17 H :    0.159947
  18 H :    0.165109
  19 H :    0.170928
  20 H :    0.169405
  21 H :    0.174230
  22 H :    0.162984
  23 H :    0.164526
  24 H :    0.168064
  25 H :    0.168703
  26 H :    0.169203
  27 H :    0.159339
  28 H :    0.165047
  29 H :    0.251964
  30 H :    0.253783
  31 H :    0.292590
  32 H :    0.284617

  Mayer bond orders larger than 0.100000
B(  0-C ,  1-O ) :   0.8469 B(  0-C , 17-H ) :   0.9661 B(  0-C , 18-H ) :   0.9620
B(  0-C , 19-H ) :   0.9723 B(  1-O ,  2-C ) :   1.0881 B(  2-C ,  3-O ) :   1.0595
B(  2-C ,  5-C ) :   1.6498 B(  3-O ,  4-C ) :   0.8521 B(  4-C , 20-H ) :   0.9707
B(  4-C , 21-H ) :   0.9683 B(  4-C , 22-H ) :   0.9591 B(  5-C ,  6-N ) :   0.8858
B(  5-C , 15-C ) :   0.8704 B(  6-N ,  7-C ) :   1.7505 B(  7-C ,  8-C ) :   0.8679
B(  7-C , 12-N ) :   1.1836 B(  8-C ,  9-C ) :   0.9049 B(  8-C , 10-C ) :   0.9626
B(  8-C , 11-N ) :   0.8809 B(  9-C , 23-H ) :   0.9628 B(  9-C , 24-H ) :   0.9720
B(  9-C , 25-H ) :   0.9767 B( 10-C , 26-H ) :   0.9721 B( 10-C , 27-H ) :   0.9719
B( 10-C , 28-H ) :   0.9714 B( 11-N , 29-H ) :   0.9125 B( 11-N , 30-H ) :   0.9124
B( 12-N , 13-C ) :   0.9037 B( 12-N , 31-H ) :   0.8750 B( 13-C , 14-O ) :   2.1163
B( 13-C , 15-C ) :   1.2455 B( 15-C , 16-O ) :   0.9996 B( 16-O , 32-H ) :   0.8206

Dispersion correction           -0.013495353
FINAL SINGLE POINT ENERGY      -855.778422454485

DIPOLE MOMENT
-------------
                                X             Y             Z
Electronic contribution:     -4.73586     -12.66545      -0.58014
Nuclear contribution   :      5.80834      17.03733       0.13434
                        -----------------------------------------
Total Dipole Moment    :      1.07247       4.37188      -0.44580
                        -----------------------------------------
Magnitude (a.u.)       :      4.52352
Magnitude (Debye)      :     11.49788

Rotational constants in cm-1:     0.021527     0.011701     0.008275
Rotational constants in MHz :   645.377667   350.783066   248.090185

                             ****ORCA TERMINATED NORMALLY****
TOTAL RUN TIME: 0 days 0 hours 1 minutes 28 seconds 305 msec
