   * xtb version 6.5.1 (579679a) compiled by 'ehlert@majestix' on 2022-07-11
          program call               : /lustre/hpc/kemi/ree/PhD/git/ReactivityQM/dep/xtb-6.5.1/bin/xtb --gfn 1 /lustre/hpc/kemi/ree/PhD/git/ReactivityQM/calculations/R01/reac02prodE02/conf15/R01_reac02prodE02_conf15_gfn1.xyz --opt --vfukui --chrg -1 --uhf 0 --alpb DMSO

   ID    Z sym.   atoms
    1    6 C      1, 3, 5, 6, 8-11, 14, 16
    2    8 O      2, 4, 15, 17
    3    7 N      7, 12, 13
    4    1 H      18-33

      * Solvation model:               ALPB
        Solvent                        DMSO
        Solvent mass                       7.8130E+01 g/mol
          :  Hamiltonian                  GFN1-xTB          :
 * total energy  :   -58.4964809 Eh     change       -0.1314504E-11 Eh
 * total energy  :   -58.5104230 Eh     change       -0.1394212E-01 Eh
 * total energy  :   -58.5154249 Eh     change       -0.5001872E-02 Eh
 * total energy  :   -58.5166647 Eh     change       -0.1239812E-02 Eh
 * total energy  :   -58.5178123 Eh     change       -0.1147616E-02 Eh
 * total energy  :   -58.5184784 Eh     change       -0.6660276E-03 Eh
 * total energy  :   -58.5190990 Eh     change       -0.6205983E-03 Eh
 * total energy  :   -58.5195927 Eh     change       -0.4936796E-03 Eh
 * total energy  :   -58.5199377 Eh     change       -0.3450151E-03 Eh
 * total energy  :   -58.5200586 Eh     change       -0.1208953E-03 Eh
 * total energy  :   -58.5243358 Eh     change       -0.2839252E-04 Eh
 * total energy  :   -58.5243814 Eh     change       -0.4562130E-04 Eh
 * total energy  :   -58.5243984 Eh     change       -0.1703640E-04 Eh
 * total energy  :   -58.5244104 Eh     change       -0.1196443E-04 Eh
 * total energy  :   -58.5244230 Eh     change       -0.1263714E-04 Eh
 * total energy  :   -58.5244289 Eh     change       -0.5855509E-05 Eh
 * total energy  :   -58.5244388 Eh     change       -0.9869440E-05 Eh
 * total energy  :   -58.5244445 Eh     change       -0.5749856E-05 Eh
 * total energy  :   -58.5244486 Eh     change       -0.4037013E-05 Eh
   *** GEOMETRY OPTIMIZATION CONVERGED AFTER 54 ITERATIONS ***

 final structure:
================
33
 xtb: 6.5.1 (579679a)
C           -2.31271838573076        2.04034976806586       -0.69248538493377
O           -2.28906165941806        1.32140165446524        0.53587679774986
C           -2.19900097260399       -0.06886872882114        0.41288558732708
O           -3.43880680621201       -0.72500733221994        0.44751528766911
C           -4.14662835995249       -0.58871396820797        1.67439870809425
C           -1.01405950366899       -0.70735328760942        0.17790814140522
N            0.10576543236669        0.13961994961433        0.04200175774726
C            1.25465809026315       -0.37933726833577       -0.20935787584104
C            2.47987438240993        0.51566360980233       -0.31562169951990
C            3.14662838336886        0.58076773610176        1.06572587292255
C            2.07418167742875        1.92031485807729       -0.77925115277353
N            3.42404767185445       -0.09699439701147       -1.25184623051749
N            1.47360922562395       -1.70803276739227       -0.32620530142755
C            0.42990418702778       -2.68376893400529       -0.21525382520638
O            0.76274471673542       -3.88844598431992       -0.35738408050375
C           -0.81135883478598       -2.12551271964465        0.04972427656660
O           -1.89659146232252       -3.01210539950096        0.22026764035155
H           -3.14428127898028        1.71589135321700       -1.33044706543588
H           -1.36939825517927        1.90723428721791       -1.23793485186855
H           -2.43928290115642        3.09695107815527       -0.44856102938225
H           -4.30960376812560        0.46809043473918        1.91628093639858
H           -5.11292207637056       -1.07936091996729        1.54890087932404
H           -3.60243637563229       -1.06391117796828        2.50091877237979
H            4.02127532590162        1.22904425542504        1.03087584442554
H            3.46187271736584       -0.41623909272907        1.37436438397148
H            2.44668518725667        0.97531205597537        1.80254890037741
H            1.35239584893430        2.34573764698396       -0.08128219197207
H            2.94829875120642        2.56722220477994       -0.82970829800064
H            1.61560195698163        1.87066798215355       -1.76651449609595
H            3.09848731771263        0.04401684631080       -2.19941276297891
H            4.31799398914150        0.36552125614476       -1.17406363317112
H            2.39411700999021       -2.02946867537790       -0.58342690311673
H           -2.72199123143043       -2.53068732411779        0.05746699603551

          :  Hamiltonian                  GFN1-xTB          :
         :: total energy             -58.524448558958 Eh    ::
         :: gradient norm              0.000453523978 Eh/a0 ::
         :: HOMO-LUMO gap              2.205003279159 eV    ::
         :: SCC energy               -59.064005290390 Eh    ::
         :: -> Gsolv                  -0.114022356970 Eh    ::
         :: repulsion energy           0.558266440612 Eh    ::

    * Orbital Energies and Occupations

         #    Occupation            Energy/Eh            Energy/eV
      -------------------------------------------------------------
         1        2.0000           -0.7630383             -20.7633
       ...           ...                  ...                  ...
        36        2.0000           -0.4748056             -12.9201
        37        2.0000           -0.4730353             -12.8719
        38        2.0000           -0.4672861             -12.7155
        39        2.0000           -0.4582776             -12.4704
        40        2.0000           -0.4540483             -12.3553
        41        2.0000           -0.4350178             -11.8374
        42        2.0000           -0.4307977             -11.7226
        43        2.0000           -0.4160243             -11.3206
        44        2.0000           -0.3996706             -10.8756
        45        2.0000           -0.3825535             -10.4098
        46        2.0000           -0.3801158             -10.3435
        47        2.0000           -0.3635300              -9.8922
        48        2.0000           -0.2979357              -8.1072 (HOMO)
        49                         -0.2169033              -5.9022 (LUMO)
        50                         -0.1855077              -5.0479
        51                         -0.1160249              -3.1572
        52                         -0.1134012              -3.0858
        53                         -0.1114127              -3.0317
        54                         -0.1034858              -2.8160
        55                         -0.0864153              -2.3515
        56                         -0.0834249              -2.2701
        57                         -0.0671612              -1.8275
        58                         -0.0563313              -1.5329
        59                         -0.0554044              -1.5076
       ...                                ...                  ...
       100                          0.7231038              19.6767
      -------------------------------------------------------------
                  HL-Gap            0.0810324 Eh            2.2050 eV

Wiberg/Mayer (AO) data.
largest (>0.10) Wiberg bond orders for each atom

     #   Z sym  total        # sym  WBO       # sym  WBO       # sym  WBO
 ---------------------------------------------------------------------------
     1   6 C    3.919 --    20 H    0.986    18 H    0.983    19 H    0.981
                             2 O    0.936
     2   8 O    2.009 --     3 C    0.938     1 C    0.936
     3   6 C    3.743 --     6 C    1.533     2 O    0.938     4 O    0.927
     4   8 O    2.039 --     5 C    0.935     3 C    0.927
     5   6 C    3.916 --    22 H    0.986    23 H    0.983    21 H    0.983
                             4 O    0.935
     6   6 C    3.956 --     3 C    1.533    16 C    1.168     7 N    1.071
     7   7 N    2.997 --     8 C    1.614     6 C    1.071    13 N    0.131
     8   6 C    3.945 --     7 N    1.614    13 N    1.202     9 C    0.971
     9   6 C    3.966 --    11 C    0.991    10 C    0.986    12 N    0.980
                             8 C    0.971
    10   6 C    3.995 --    26 H    0.987    25 H    0.986     9 C    0.986
                            24 H    0.985
    11   6 C    3.996 --     9 C    0.991    28 H    0.987    29 H    0.985
                            27 H    0.983
    12   7 N    2.972 --     9 C    0.980    31 H    0.947    30 H    0.946
    13   7 N    3.368 --     8 C    1.202    14 C    0.959    32 H    0.902
                             7 N    0.131
    14   6 C    3.910 --    15 O    1.399    16 C    1.392    13 N    0.959
    15   8 O    1.706 --    14 C    1.399    16 C    0.140
    16   6 C    3.840 --    14 C    1.392     6 C    1.168    17 O    0.955
                            15 O    0.140
    17   8 O    1.922 --    16 C    0.955    33 H    0.854
    18   1 H    1.016 --     1 C    0.983
    19   1 H    1.031 --     1 C    0.981
    20   1 H    1.020 --     1 C    0.986
    21   1 H    1.021 --     5 C    0.983
    22   1 H    1.019 --     5 C    0.986
    23   1 H    1.018 --     5 C    0.983
    24   1 H    1.003 --    10 C    0.985
    25   1 H    1.008 --    10 C    0.986
    26   1 H    1.007 --    10 C    0.987
    27   1 H    1.019 --    11 C    0.983
    28   1 H    1.005 --    11 C    0.987
    29   1 H    1.009 --    11 C    0.985
    30   1 H    0.963 --    12 N    0.946
    31   1 H    0.961 --    12 N    0.947
    32   1 H    0.974 --    13 N    0.902
    33   1 H    0.904 --    17 O    0.854
 ---------------------------------------------------------------------------

           -------------------------------------------------
          | TOTAL ENERGY              -58.524448558958 Eh   |
          | GRADIENT NORM               0.000453523978 Eh/α |
          | HOMO-LUMO GAP               2.205003279159 eV   |
           -------------------------------------------------

 * finished run on 2023/06/20 at 14:57:29.048
