   * xtb version 6.5.1 (579679a) compiled by 'ehlert@majestix' on 2022-07-11
          program call               : /lustre/hpc/kemi/ree/PhD/git/ReactivityQM/dep/xtb-6.5.1/bin/xtb --gfn 1 /lustre/hpc/kemi/ree/PhD/git/ReactivityQM/calculations/R01/reac02prodE03/conf06/R01_reac02prodE03_conf06_gfn1.xyz --opt --vfukui --chrg -1 --uhf 0 --alpb DMSO

   ID    Z sym.   atoms
    1    6 C      1, 3, 5, 6, 8-11, 14, 16
    2    8 O      2, 4, 15, 17
    3    7 N      7, 12, 13
    4    1 H      18-33

      * Solvation model:               ALPB
        Solvent                        DMSO
        Solvent mass                       7.8130E+01 g/mol
          :  Hamiltonian                  GFN1-xTB          :
 * total energy  :   -58.5310262 Eh     change       -0.4689582E-11 Eh
 * total energy  :   -58.5448745 Eh     change       -0.1384824E-01 Eh
 * total energy  :   -58.5487467 Eh     change       -0.3872229E-02 Eh
 * total energy  :   -58.5493447 Eh     change       -0.5979928E-03 Eh
 * total energy  :   -58.5497179 Eh     change       -0.3731772E-03 Eh
 * total energy  :   -58.5498279 Eh     change       -0.1100056E-03 Eh
 * total energy  :   -58.5499116 Eh     change       -0.8372400E-04 Eh
 * total energy  :   -58.5499629 Eh     change       -0.5134706E-04 Eh
 * total energy  :   -58.5500168 Eh     change       -0.5381935E-04 Eh
 * total energy  :   -58.5500753 Eh     change       -0.5858668E-04 Eh
 * total energy  :   -58.5514677 Eh     change       -0.1376558E-04 Eh
 * total energy  :   -58.5514765 Eh     change       -0.8735415E-05 Eh
 * total energy  :   -58.5514873 Eh     change       -0.1088167E-04 Eh
 * total energy  :   -58.5514984 Eh     change       -0.1106755E-04 Eh
 * total energy  :   -58.5515049 Eh     change       -0.6469786E-05 Eh
 * total energy  :   -58.5515119 Eh     change       -0.7010608E-05 Eh
 * total energy  :   -58.5515172 Eh     change       -0.5287972E-05 Eh
 * total energy  :   -58.5515253 Eh     change       -0.8163822E-05 Eh
 * total energy  :   -58.5515300 Eh     change       -0.4684267E-05 Eh
   *** GEOMETRY OPTIMIZATION CONVERGED AFTER 48 ITERATIONS ***

 final structure:
================
33
 xtb: 6.5.1 (579679a)
C            2.99722837708775        0.56263885550604        2.04340239697642
O            1.97917152316311        0.38864673741991        1.06251972193261
C            2.40391939293057        0.16859439312200       -0.19992162126160
O            3.59088022258407        0.14979487710446       -0.47889791087864
C            1.27734113424511       -0.20189063315470       -1.17086877144365
C            1.71656869696319        0.12369485348442       -2.60432058673955
N            0.06023632804807        0.54405824762490       -0.86168973140387
C           -0.79364214790264        0.03123173223531       -0.05758483237204
C           -2.03896605782143        0.83459607062620        0.29599487173449
C           -2.23067000149050        0.90037893120338        1.81629558282082
C           -3.26323940299538        0.18266890874349       -0.37292216922223
N           -1.86143751284540        2.20059994894364       -0.19063648955961
N           -0.67262674764432       -1.19637891484379        0.52220985587212
C            0.17912139981070       -2.20246322658152       -0.09669078092639
O           -0.06061032502011       -3.41278931497357        0.17904157516254
C            1.11235152891862       -1.68066222002081       -0.93616636360786
O            2.00628806508767       -2.52839622331077       -1.64219190285003
H            3.62383043020223        1.42547377772427        1.79730324620952
H            2.49844511968861        0.72942528402401        2.99680678272037
H            3.63046058938074       -0.32769347913324        2.10486096290223
H            0.95777555559603       -0.21926837155298       -3.30595086933241
H            2.66011542245270       -0.37280768626279       -2.82896487945654
H            1.84352988542813        1.19974438285807       -2.71957046041661
H           -1.35366498693257        1.35171982848573        2.28095772853243
H           -2.38507415917378       -0.09186701089404        2.23668750604204
H           -3.10142341431490        1.51161453036312        2.04974222862493
H           -3.13424712134383        0.17138576902692       -1.45476505206923
H           -4.16217321648036        0.74918530589959       -0.13503063806364
H           -3.39188088638561       -0.84058019542642       -0.02173554067501
H           -1.64343154700650        2.16993876521783       -1.18213546680354
H           -2.73295517221990        2.69975483592337       -0.08479530536574
H           -1.47918519049010       -1.58661650511004        0.98266354659865
H            1.76796621847978       -3.43373425426999       -1.40008463367955

          :  Hamiltonian                  GFN1-xTB          :
         :: total energy             -58.551530025038 Eh    ::
         :: gradient norm              0.000811903496 Eh/a0 ::
         :: HOMO-LUMO gap              1.987678686334 eV    ::
         :: SCC energy               -59.094427202312 Eh    ::
         :: -> Gsolv                  -0.111355478813 Eh    ::
         :: repulsion energy           0.562622109859 Eh    ::

    * Orbital Energies and Occupations

         #    Occupation            Energy/Eh            Energy/eV
      -------------------------------------------------------------
         1        2.0000           -0.8101249             -22.0446
       ...           ...                  ...                  ...
        36        2.0000           -0.4835658             -13.1585
        37        2.0000           -0.4778919             -13.0041
        38        2.0000           -0.4758166             -12.9476
        39        2.0000           -0.4701524             -12.7935
        40        2.0000           -0.4635775             -12.6146
        41        2.0000           -0.4538853             -12.3508
        42        2.0000           -0.4494696             -12.2307
        43        2.0000           -0.4335989             -11.7988
        44        2.0000           -0.3928827             -10.6909
        45        2.0000           -0.3915786             -10.6554
        46        2.0000           -0.3833120             -10.4305
        47        2.0000           -0.3721056             -10.1255
        48        2.0000           -0.3073125              -8.3624 (HOMO)
        49                         -0.2342667              -6.3747 (LUMO)
        50                         -0.2118744              -5.7654
        51                         -0.1297862              -3.5317
        52                         -0.1264454              -3.4408
        53                         -0.1140695              -3.1040
        54                         -0.1082528              -2.9457
        55                         -0.0966294              -2.6294
        56                         -0.0917256              -2.4960
        57                         -0.0682858              -1.8582
        58                         -0.0662616              -1.8031
        59                         -0.0658927              -1.7930
       ...                                ...                  ...
       100                          0.7066153              19.2280
      -------------------------------------------------------------
                  HL-Gap            0.0730458 Eh            1.9877 eV

Wiberg/Mayer (AO) data.
largest (>0.10) Wiberg bond orders for each atom

     #   Z sym  total        # sym  WBO       # sym  WBO       # sym  WBO
 ---------------------------------------------------------------------------
     1   6 C    3.894 --    19 H    0.987    18 H    0.981    20 H    0.981
                             2 O    0.916
     2   8 O    2.168 --     3 C    1.071     1 C    0.916     4 O    0.114
     3   6 C    3.810 --     4 O    1.624     2 O    1.071     5 C    0.923
     4   8 O    1.894 --     3 C    1.624     2 O    0.114
     5   6 C    3.967 --     6 C    0.989     7 N    0.972    16 C    0.954
                             3 C    0.923
     6   6 C    3.997 --     5 C    0.989    23 H    0.988    21 H    0.987
                            22 H    0.985
     7   7 N    2.973 --     8 C    1.682     5 C    0.972    13 N    0.156
     8   6 C    3.946 --     7 N    1.682    13 N    1.177     9 C    0.971
     9   6 C    3.968 --    10 C    0.992    12 N    0.988    11 C    0.979
                             8 C    0.971
    10   6 C    3.996 --     9 C    0.992    24 H    0.986    26 H    0.986
                            25 H    0.984
    11   6 C    3.995 --    27 H    0.986    28 H    0.985    29 H    0.983
                             9 C    0.979
    12   7 N    2.955 --     9 C    0.988    31 H    0.953    30 H    0.944
    13   7 N    3.298 --     8 C    1.177    32 H    0.915    14 C    0.909
                             7 N    0.156
    14   6 C    3.919 --    16 C    1.515    15 O    1.361    13 N    0.909
    15   8 O    1.705 --    14 C    1.361    16 C    0.169
    16   6 C    3.791 --    14 C    1.515     5 C    0.954    17 O    0.942
                            15 O    0.169
    17   8 O    1.913 --    16 C    0.942    33 H    0.859
    18   1 H    1.013 --     1 C    0.981
    19   1 H    1.015 --     1 C    0.987
    20   1 H    1.012 --     1 C    0.981
    21   1 H    1.012 --     6 C    0.987
    22   1 H    1.017 --     6 C    0.985
    23   1 H    1.011 --     6 C    0.988
    24   1 H    1.010 --    10 C    0.986
    25   1 H    1.005 --    10 C    0.984
    26   1 H    1.004 --    10 C    0.986
    27   1 H    1.006 --    11 C    0.986
    28   1 H    1.005 --    11 C    0.985
    29   1 H    1.004 --    11 C    0.983
    30   1 H    0.983 --    12 N    0.944
    31   1 H    0.967 --    12 N    0.953
    32   1 H    0.967 --    13 N    0.915
    33   1 H    0.892 --    17 O    0.859
 ---------------------------------------------------------------------------

           -------------------------------------------------
          | TOTAL ENERGY              -58.551530025038 Eh   |
          | GRADIENT NORM               0.000811903496 Eh/α |
          | HOMO-LUMO GAP               1.987678686334 eV   |
           -------------------------------------------------

 * finished run on 2023/06/20 at 14:58:41.187
