   * xtb version 6.5.1 (579679a) compiled by 'ehlert@majestix' on 2022-07-11
          program call               : /lustre/hpc/kemi/ree/PhD/git/ReactivityQM/dep/xtb-6.5.1/bin/xtb --gfn 1 /lustre/hpc/kemi/ree/PhD/git/ReactivityQM/calculations/RaltegravirCLI/reac02prodN08/conf07/RaltegravirCLI_reac02prodN08_conf07_gfn1.xyz --opt --vfukui --chrg 1 --uhf 0 --alpb DMSO

   ID    Z sym.   atoms
    1    6 C      1, 3-6, 9, 10, 13-18, 20-22, 24
    2    7 N      2, 7, 8, 12
    3    8 O      11, 23, 25
    4    9 F      19
    5    1 H      26-47

      * Solvation model:               ALPB
        Solvent                        DMSO
        Solvent mass                       7.8130E+01 g/mol
          :  Hamiltonian                  GFN1-xTB          :
 * total energy  :   -79.4708233 Eh     change       -0.3839915E-09 Eh
 * total energy  :   -79.4800498 Eh     change       -0.9226503E-02 Eh
 * total energy  :   -79.4827031 Eh     change       -0.2653269E-02 Eh
 * total energy  :   -79.4830262 Eh     change       -0.3231076E-03 Eh
 * total energy  :   -79.4832903 Eh     change       -0.2641067E-03 Eh
 * total energy  :   -79.4834050 Eh     change       -0.1147498E-03 Eh
 * total energy  :   -79.4835579 Eh     change       -0.1528253E-03 Eh
 * total energy  :   -79.4837018 Eh     change       -0.1439670E-03 Eh
 * total energy  :   -79.4838363 Eh     change       -0.1345235E-03 Eh
 * total energy  :   -79.4839403 Eh     change       -0.1039797E-03 Eh
 * total energy  :   -79.4840648 Eh     change       -0.2099328E-04 Eh
 * total energy  :   -79.4840800 Eh     change       -0.1522723E-04 Eh
 * total energy  :   -79.4840947 Eh     change       -0.1468165E-04 Eh
 * total energy  :   -79.4841043 Eh     change       -0.9544443E-05 Eh
 * total energy  :   -79.4841147 Eh     change       -0.1044359E-04 Eh
 * total energy  :   -79.4841229 Eh     change       -0.8195941E-05 Eh
 * total energy  :   -79.4841294 Eh     change       -0.6505850E-05 Eh
 * total energy  :   -79.4841352 Eh     change       -0.5750347E-05 Eh
 * total energy  :   -79.4841397 Eh     change       -0.4532882E-05 Eh
   *** GEOMETRY OPTIMIZATION CONVERGED AFTER 21 ITERATIONS ***

 final structure:
================
47
 xtb: 6.5.1 (579679a)
C           -4.37034612477403       -0.98064759835682        1.90813108683861
N           -3.08026748394727       -0.76902750127343        1.24298728774933
C           -2.92826747066771       -0.02301559251012        0.10081669086172
C           -4.10094430459525        0.65081445293707       -0.59972941130941
C           -4.80037873397085       -0.38430389323708       -1.49405651165654
C           -3.56844585558235        1.80167699033598       -1.47176689971338
N           -5.05066455481311        1.17534626406915        0.37241116859687
N           -1.77631947137180        0.11344844359241       -0.47839412724111
C           -0.64192836356192       -0.45239232285688        0.02729071369424
C            0.58052181250529       -0.16594435547341       -0.76882220110988
O            0.60335876554342        0.62124454334477       -1.69588797801647
N            1.70595745450074       -0.87216809182548       -0.40488518950423
C            2.94023570913865       -0.63376942880400       -1.04406514764153
C            3.84034715509355        0.45365943123736       -0.21641936443356
C            2.98132044127252        1.72568233909919       -0.07897583629902
C            4.12675765755205       -0.18274758256841        1.07437129989575
C            5.35983979732929       -0.67208771114233        1.39201060231357
C            6.40626923177575       -0.49452925591752        0.47878277617647
F            7.58869093875709       -0.96280964902518        0.78582770948121
C            6.25146333667910        0.18088388363152       -0.73792831671592
C            5.02027317850404        0.67275930024645       -1.06136068695790
C           -0.71467321779844       -1.16095031813167        1.19246460992644
O            0.33965978147988       -1.72450372800290        1.81020738145581
C           -1.99074661532098       -1.34577745751185        1.86396591616455
O           -2.07184721768261       -1.98774266097212        2.90724076488104
H           -4.27446893901589       -1.84772693298261        2.56110045332829
H           -4.62471209930652       -0.10178386757576        2.49806497905287
H           -5.14619715648226       -1.15737708873989        1.17031762215807
H           -5.59928977318954        0.09932225810622       -2.05426019792805
H           -4.08399204703714       -0.80986815640440       -2.19581360746930
H           -5.22976029889075       -1.18863177484648       -0.89942950492105
H           -2.90632659204564        1.41776350376544       -2.24656993138485
H           -4.40578248819631        2.31659592098191       -1.93921568017712
H           -3.01479642541408        2.50956844165408       -0.85698399560793
H           -4.65186442291505        1.97798152161612        0.84112595825439
H           -5.88967890134871        1.47576418968732       -0.10410411210111
H            1.68636547414981       -1.50237708792661        0.38143370693379
H            2.76847143352089       -0.19865732831052       -2.03013205419902
H            3.52461610391398       -1.54871185368015       -1.10803870499255
H            2.11026729919625        1.51295953347086        0.53695431284342
H            3.57462580515352        2.50287568624512        0.39822261339933
H            2.65603405617365        2.06653461117512       -1.06019225261589
H            3.29853060678481       -0.29671466956953        1.76417209926658
H            5.55057360884888       -1.17361976609195        2.33266461032947
H            7.11013942964879        0.31963224209888       -1.38334180108250
H            4.87736784322953        1.21679520026997       -1.98794050993725
H            0.02001163717873       -2.17342508382781        2.61973565940941

          :  Hamiltonian                  GFN1-xTB          :
         :: total energy             -79.484139691766 Eh    ::
         :: gradient norm              0.000718731374 Eh/a0 ::
         :: HOMO-LUMO gap              0.223635302540 eV    ::
         :: SCC energy               -80.368279914289 Eh    ::
         :: -> Gsolv                  -0.103031950479 Eh    ::
         :: repulsion energy           0.915187535266 Eh    ::

    * Orbital Energies and Occupations

         #    Occupation            Energy/Eh            Energy/eV
      -------------------------------------------------------------
         1        2.0000           -0.9364623             -25.4824
       ...           ...                  ...                  ...
        55        2.0000           -0.5185453             -14.1103
        56        2.0000           -0.5151978             -14.0192
        57        2.0000           -0.5138136             -13.9816
        58        2.0000           -0.5068781             -13.7929
        59        2.0000           -0.4999044             -13.6031
        60        2.0000           -0.4927264             -13.4078
        61        2.0000           -0.4877409             -13.2721
        62        2.0000           -0.4773943             -12.9906
        63        2.0000           -0.4718517             -12.8397
        64        2.0000           -0.4623773             -12.5819
        65        2.0000           -0.4495183             -12.2320
        66        2.0000           -0.4336235             -11.7995
        67        1.9739           -0.4192397             -11.4081 (HOMO)
        68        0.0261           -0.4110212             -11.1845 (LUMO)
        69                         -0.3297075              -8.9718
        70                         -0.3287916              -8.9469
        71                         -0.2858005              -7.7770
        72                         -0.2505242              -6.8171
        73                         -0.2423546              -6.5948
        74                         -0.1639347              -4.4609
        75                         -0.1533600              -4.1731
        76                         -0.1466762              -3.9913
        77                         -0.1382037              -3.7607
        78                         -0.1363666              -3.7107
       ...                                ...                  ...
       144                          0.7069466              19.2370
      -------------------------------------------------------------
                  HL-Gap            0.0082184 Eh            0.2236 eV

Wiberg/Mayer (AO) data.
largest (>0.10) Wiberg bond orders for each atom

     #   Z sym  total        # sym  WBO       # sym  WBO       # sym  WBO
 ---------------------------------------------------------------------------
     1   6 C    3.916 --    28 H    0.978    26 H    0.976    27 H    0.974
                             2 N    0.923
     2   7 N    3.520 --     3 C    1.174    24 C    1.142     1 C    0.923
                            25 O    0.135
     3   6 C    3.916 --     8 N    1.560     2 N    1.174     4 C    0.977
     4   6 C    3.962 --     7 N    0.986     6 C    0.985     5 C    0.980
                             3 C    0.977
     5   6 C    3.992 --    30 H    0.985    29 H    0.982    31 H    0.980
                             4 C    0.980
     6   6 C    3.989 --    33 H    0.986     4 C    0.985    34 H    0.985
                            32 H    0.982
     7   7 N    2.966 --     4 C    0.986    35 H    0.938    36 H    0.935
     8   7 N    3.029 --     3 C    1.560     9 C    1.196
     9   6 C    3.964 --    22 C    1.491     8 N    1.196    10 C    1.015
    10   6 C    3.887 --    11 O    1.628    12 N    1.147     9 C    1.015
    11   8 O    1.921 --    10 C    1.628    12 N    0.131
    12   7 N    3.373 --    10 C    1.147    13 C    1.051    37 H    0.874
                            11 O    0.131
    13   6 C    3.928 --    12 N    1.051    39 H    0.976    38 H    0.963
                            14 C    0.755
    14   6 C    3.980 --    16 C    1.105    21 C    1.104    15 C    0.939
                            13 C    0.755
    15   6 C    3.970 --    41 H    0.982    40 H    0.980    42 H    0.980
                            14 C    0.939
    16   6 C    3.943 --    17 C    1.592    14 C    1.105    43 H    0.963
    17   6 C    3.984 --    16 C    1.592    18 C    1.298    44 H    0.957
    18   6 C    3.818 --    20 C    1.299    17 C    1.298    19 F    1.023
    19   9 F    1.174 --    18 C    1.023
    20   6 C    3.983 --    21 C    1.591    18 C    1.299    45 H    0.957
    21   6 C    3.938 --    20 C    1.591    14 C    1.104    46 H    0.964
    22   6 C    3.909 --     9 C    1.491    23 O    1.082    24 C    1.080
    23   8 O    2.074 --    22 C    1.082    47 H    0.790
    24   6 C    3.918 --    25 O    1.549     2 N    1.142    22 C    1.080
    25   8 O    1.895 --    24 C    1.549     2 N    0.135
    26   1 H    1.007 --     1 C    0.976
    27   1 H    1.015 --     1 C    0.974
    28   1 H    1.020 --     1 C    0.978
    29   1 H    0.999 --     5 C    0.982
    30   1 H    1.003 --     5 C    0.985
    31   1 H    1.004 --     5 C    0.980
    32   1 H    1.013 --     6 C    0.982
    33   1 H    1.003 --     6 C    0.986
    34   1 H    1.006 --     6 C    0.985
    35   1 H    0.954 --     7 N    0.938
    36   1 H    0.950 --     7 N    0.935
    37   1 H    0.934 --    12 N    0.874
    38   1 H    1.003 --    13 C    0.963
    39   1 H    0.998 --    13 C    0.976
    40   1 H    0.999 --    15 C    0.980
    41   1 H    0.997 --    15 C    0.982
    42   1 H    1.002 --    15 C    0.980
    43   1 H    0.994 --    16 C    0.963
    44   1 H    0.986 --    17 C    0.957
    45   1 H    0.986 --    20 C    0.957
    46   1 H    0.990 --    21 C    0.964
    47   1 H    0.836 --    23 O    0.790
 ---------------------------------------------------------------------------

           -------------------------------------------------
          | TOTAL ENERGY              -79.484139691766 Eh   |
          | GRADIENT NORM               0.000718731374 Eh/α |
          | HOMO-LUMO GAP               0.223635302540 eV   |
           -------------------------------------------------

 * finished run on 2023/06/20 at 15:27:14.327
