   * xtb version 6.5.1 (579679a) compiled by 'ehlert@majestix' on 2022-07-11
          program call               : /lustre/hpc/kemi/ree/PhD/git/ReactivityQM/dep/xtb-6.5.1/bin/xtb --gfn 1 /lustre/hpc/kemi/ree/PhD/git/ReactivityQM/calculations/R01/reac02prodN04/conf09/R01_reac02prodN04_conf09_gfn1.xyz --opt --vfukui --chrg 1 --uhf 0 --alpb DMSO

   ID    Z sym.   atoms
    1    6 C      1, 3, 5, 6, 8, 11-14, 17
    2    8 O      2, 4, 7, 9
    3    7 N      10, 15, 16
    4    1 H      18-33

      * Solvation model:               ALPB
        Solvent                        DMSO
        Solvent mass                       7.8130E+01 g/mol
          :  Hamiltonian                  GFN1-xTB          :
 * total energy  :   -57.8324436 Eh     change       -0.2043521E-10 Eh
 * total energy  :   -57.8482992 Eh     change       -0.1585555E-01 Eh
 * total energy  :   -57.8535240 Eh     change       -0.5224871E-02 Eh
 * total energy  :   -57.8544924 Eh     change       -0.9683740E-03 Eh
 * total energy  :   -57.8548999 Eh     change       -0.4074813E-03 Eh
 * total energy  :   -57.8551470 Eh     change       -0.2470948E-03 Eh
 * total energy  :   -57.8555046 Eh     change       -0.3576596E-03 Eh
 * total energy  :   -57.8559038 Eh     change       -0.3991898E-03 Eh
 * total energy  :   -57.8562938 Eh     change       -0.3899389E-03 Eh
 * total energy  :   -57.8565166 Eh     change       -0.2227996E-03 Eh
 * total energy  :   -57.8578450 Eh     change       -0.1626347E-04 Eh
 * total energy  :   -57.8578751 Eh     change       -0.3009132E-04 Eh
 * total energy  :   -57.8578907 Eh     change       -0.1555216E-04 Eh
 * total energy  :   -57.8579013 Eh     change       -0.1060529E-04 Eh
 * total energy  :   -57.8579165 Eh     change       -0.1519293E-04 Eh
 * total energy  :   -57.8579319 Eh     change       -0.1546781E-04 Eh
 * total energy  :   -57.8579383 Eh     change       -0.6364955E-05 Eh
 * total energy  :   -57.8579464 Eh     change       -0.8151431E-05 Eh
 * total energy  :   -57.8579498 Eh     change       -0.3392173E-05 Eh
   *** GEOMETRY OPTIMIZATION CONVERGED AFTER 34 ITERATIONS ***

 final structure:
================
33
 xtb: 6.5.1 (579679a)
C            4.17049269641516        1.79526967523132       -0.36597831674753
O            2.94506787697723        1.07975012873111       -0.12048274138817
C            2.74359711939764       -0.03571427830426       -0.79944313787628
O            3.49232406082199       -0.50032543869836       -1.61315027489713
C            1.44766916570186       -0.70949924676162       -0.38407212746077
C            1.45054300691924       -2.01927328452603       -0.01511550092686
O            2.55070873288287       -2.76245310481911       -0.03089223891991
C            0.22240268276553       -2.65270630271643        0.45826592900630
O            0.12214821645490       -3.81594419945501        0.76870485264412
N           -0.84490623586763       -1.76624028382354        0.54793069128851
C           -0.84562888051630       -0.47356573904213        0.18601405000099
C           -2.13942455077301        0.30114795508984        0.39447955867426
C           -2.96864147331364        0.22674364833088       -0.89812262922610
C           -2.95330208901064       -0.29148533800291        1.55829557793847
N           -1.81513181211589        1.68580944520420        0.69833453204571
N            0.26475787044231        0.02892150192819       -0.33408982795602
C            0.30752715745367        1.37165148307017       -0.93407971516756
H            4.02859985973351        2.79162213632166        0.04680265348382
H            4.99414851122904        1.28588062493186        0.13808308482947
H            4.36334319418787        1.84434324612634       -1.43929589798635
H            2.36294950602003       -3.66409373220131        0.28506632103432
H           -1.69227308885170       -2.17402995290012        0.92132182056671
H           -3.16756020891657       -0.81300240596312       -1.15232192211403
H           -2.44974726474763        0.70171721967523       -1.72847786417822
H           -3.91532316102568        0.73922637277813       -0.73633249339714
H           -3.40617254852524       -1.24450563728743        1.28939802873390
H           -3.75419016590995        0.40548597346859        1.79840416834155
H           -2.32755279692203       -0.41889662084343        2.43938504991495
H           -2.65231053023883        2.24543229843358        0.61126983969366
H           -1.49204600094292        1.75541421052561        1.65429374586018
H           -0.67276234069500        1.63011235331461       -1.31483561091438
H            1.02393939753391        1.36014816385032       -1.75203967060968
H            0.60675209343660        2.09305912833302       -0.17732093429215

          :  Hamiltonian                  GFN1-xTB          :
         :: total energy             -57.857949835108 Eh    ::
         :: gradient norm              0.000514338020 Eh/a0 ::
         :: HOMO-LUMO gap              2.318364840531 eV    ::
         :: SCC energy               -58.442106343854 Eh    ::
         :: -> Gsolv                  -0.103333713861 Eh    ::
         :: repulsion energy           0.603800504375 Eh    ::

    * Orbital Energies and Occupations

         #    Occupation            Energy/Eh            Energy/eV
      -------------------------------------------------------------
         1        2.0000           -0.8904719             -24.2310
       ...           ...                  ...                  ...
        35        2.0000           -0.5618734             -15.2894
        36        2.0000           -0.5438521             -14.7990
        37        2.0000           -0.5400005             -14.6942
        38        2.0000           -0.5362582             -14.5923
        39        2.0000           -0.5320884             -14.4789
        40        2.0000           -0.5297296             -14.4147
        41        2.0000           -0.5279015             -14.3649
        42        2.0000           -0.5232649             -14.2388
        43        2.0000           -0.5194229             -14.1342
        44        2.0000           -0.5160569             -14.0426
        45        2.0000           -0.4982057             -13.5569
        46        2.0000           -0.4777332             -12.9998
        47        2.0000           -0.4422177             -12.0334 (HOMO)
        48                         -0.3570193              -9.7150 (LUMO)
        49                         -0.3528239              -9.6008
        50                         -0.2900306              -7.8921
        51                         -0.2212980              -6.0218
        52                         -0.1622154              -4.4141
        53                         -0.1561072              -4.2479
        54                         -0.1530751              -4.1654
        55                         -0.1462261              -3.9790
        56                         -0.1326835              -3.6105
        57                         -0.1240102              -3.3745
        58                         -0.1104163              -3.0046
       ...                                ...                  ...
       100                          0.7185996              19.5541
      -------------------------------------------------------------
                  HL-Gap            0.0851983 Eh            2.3184 eV

Wiberg/Mayer (AO) data.
largest (>0.10) Wiberg bond orders for each atom

     #   Z sym  total        # sym  WBO       # sym  WBO       # sym  WBO
 ---------------------------------------------------------------------------
     1   6 C    3.844 --    18 H    0.984    20 H    0.980    19 H    0.978
                             2 O    0.870
     2   8 O    2.220 --     3 C    1.142     1 C    0.870     4 O    0.147
     3   6 C    3.862 --     4 O    1.706     2 O    1.142     5 C    0.944
     4   8 O    1.966 --     3 C    1.706     2 O    0.147
     5   6 C    3.925 --     6 C    1.546    16 N    1.087     3 C    0.944
     6   6 C    3.928 --     5 C    1.546     7 O    1.133     8 C    1.043
     7   8 O    2.103 --     6 C    1.133    21 H    0.794
     8   6 C    3.902 --     9 O    1.654    10 N    1.077     6 C    1.043
     9   8 O    1.961 --     8 C    1.654    10 N    0.118
    10   7 N    3.490 --    11 C    1.275     8 C    1.077    22 H    0.863
                             9 O    0.118
    11   6 C    3.883 --    16 N    1.395    10 N    1.275    12 C    0.973
    12   6 C    3.954 --    15 N    0.994    14 C    0.983    11 C    0.973
                            13 C    0.967
    13   6 C    3.985 --    23 H    0.984    24 H    0.978    25 H    0.977
                            12 C    0.967
    14   6 C    3.988 --    28 H    0.983    12 C    0.983    27 H    0.977
                            26 H    0.976
    15   7 N    2.974 --    12 C    0.994    30 H    0.933    29 H    0.927
    16   7 N    3.583 --    11 C    1.395     5 C    1.087    17 C    0.904
    17   6 C    3.890 --    32 H    0.977    31 H    0.973    33 H    0.968
                            16 N    0.904
    18   1 H    1.006 --     1 C    0.984
    19   1 H    1.002 --     1 C    0.978
    20   1 H    1.003 --     1 C    0.980
    21   1 H    0.823 --     7 O    0.794
    22   1 H    0.916 --    10 N    0.863
    23   1 H    0.998 --    13 C    0.984
    24   1 H    0.999 --    13 C    0.978
    25   1 H    0.994 --    13 C    0.977
    26   1 H    0.996 --    14 C    0.976
    27   1 H    0.997 --    14 C    0.977
    28   1 H    0.996 --    14 C    0.983
    29   1 H    0.941 --    15 N    0.927
    30   1 H    0.946 --    15 N    0.933
    31   1 H    1.018 --    17 C    0.973
    32   1 H    0.996 --    17 C    0.977
    33   1 H    1.012 --    17 C    0.968
 ---------------------------------------------------------------------------

           -------------------------------------------------
          | TOTAL ENERGY              -57.857949835108 Eh   |
          | GRADIENT NORM               0.000514338020 Eh/α |
          | HOMO-LUMO GAP               2.318364840531 eV   |
           -------------------------------------------------

 * finished run on 2023/06/20 at 15:05:25.156
