   * xtb version 6.5.1 (579679a) compiled by 'ehlert@majestix' on 2022-07-11
          program call               : /lustre/hpc/kemi/ree/PhD/git/ReactivityQM/dep/xtb-6.5.1/bin/xtb --gfn 1 /lustre/hpc/kemi/ree/PhD/git/ReactivityQM/calculations/R03/reac02prodN12/conf03/R03_reac02prodN12_conf03_gfn1.xyz --opt --vfukui --chrg 1 --uhf 0 --alpb DMSO

   ID    Z sym.   atoms
    1    6 C      1, 3, 5, 7-10, 12, 14, 15, 18, 19, 22, 23, 25
    2    8 O      2, 4, 13, 20, 24, 26
    3    7 N      6, 11, 16, 17, 21
    4    1 H      27-46

      * Solvation model:               ALPB
        Solvent                        DMSO
        Solvent mass                       7.8130E+01 g/mol
          :  Hamiltonian                  GFN1-xTB          :
 * total energy  :   -86.2922326 Eh     change       -0.1450360E-09 Eh
 * total energy  :   -86.3068641 Eh     change       -0.1463156E-01 Eh
 * total energy  :   -86.3126121 Eh     change       -0.5747910E-02 Eh
 * total energy  :   -86.3135287 Eh     change       -0.9166500E-03 Eh
 * total energy  :   -86.3140576 Eh     change       -0.5288525E-03 Eh
 * total energy  :   -86.3142543 Eh     change       -0.1966953E-03 Eh
 * total energy  :   -86.3144497 Eh     change       -0.1954607E-03 Eh
 * total energy  :   -86.3146052 Eh     change       -0.1554418E-03 Eh
 * total energy  :   -86.3147390 Eh     change       -0.1338449E-03 Eh
 * total energy  :   -86.3148432 Eh     change       -0.1041861E-03 Eh
 * total energy  :   -86.3155434 Eh     change       -0.1228343E-04 Eh
 * total energy  :   -86.3155545 Eh     change       -0.1107350E-04 Eh
 * total energy  :   -86.3155654 Eh     change       -0.1089121E-04 Eh
 * total energy  :   -86.3155753 Eh     change       -0.9888008E-05 Eh
 * total energy  :   -86.3155840 Eh     change       -0.8759156E-05 Eh
 * total energy  :   -86.3155916 Eh     change       -0.7557948E-05 Eh
 * total energy  :   -86.3155982 Eh     change       -0.6623346E-05 Eh
 * total energy  :   -86.3156040 Eh     change       -0.5775785E-05 Eh
 * total energy  :   -86.3156083 Eh     change       -0.4373359E-05 Eh
   *** GEOMETRY OPTIMIZATION CONVERGED AFTER 39 ITERATIONS ***

 final structure:
================
46
 xtb: 6.5.1 (579679a)
C            5.96990892225204        2.62913755740488        0.63792162971985
O            4.99228398991829        1.61838145909982        0.93571708158213
C            4.00464665876382        1.47756401670075        0.04375316261615
O            3.92300437723888        2.14173766305461       -0.96028307691360
C            3.02149922383041        0.42356954359867        0.42432123438591
N            1.99913973551310        0.29302657816516       -0.47351330019720
C            1.04519311191364       -0.55891722891635       -0.29438831368929
C            0.00526080913217       -0.61872889084777       -1.40474019768237
C            0.06014525638807       -1.96686377863664       -2.13125549381177
C            0.24592992330205        0.52359858609036       -2.39817992456157
N           -1.32573760079079       -0.39600208341873       -0.77951995821765
C           -2.44786041057781       -0.49312897920988       -1.46586725592332
O           -2.63047840998140       -0.81429093393387       -2.60685151516292
C           -3.75385517107318       -0.18943700147807       -0.57020603840696
C           -4.57607302955630       -1.47790298830395       -0.57165625069256
N           -4.38473225140017        0.93023855199173       -1.13786689979457
N           -4.40112944966133        1.88581086502573       -0.30370159248519
C           -3.81841701988989        1.44423347743593        0.84811770817260
C           -3.65048722326554        2.22509743737414        2.06882934228892
O           -3.41811157357228        0.22421681223617        0.72942126862578
N            1.00825208544749       -1.37946970576756        0.79987256247026
C           -0.04014809138222       -2.35700062039498        1.09829872804895
C            2.01337333715576       -1.35934090509704        1.77011435368905
O            1.96698049444665       -2.12231943016693        2.71983480929715
C            3.06928550186628       -0.37130751435202        1.54069473531696
O            4.01107050844079       -0.34560379984182        2.48427960809239
H            6.46854399770271        2.39395281013068       -0.30485727691978
H            6.68278010088096        2.62362567729074        1.45875264844677
H            5.48062716035240        3.60243999482150        0.56167370609859
H           -0.56030434112380       -1.93721508208706       -3.02503979186008
H            1.09065449258003       -2.16166288483374       -2.42628102292203
H           -0.28370272142961       -2.77892210072048       -1.49672896548122
H            1.22555292972462        0.40583038067537       -2.85846121280746
H           -0.51861457451439        0.50233923896016       -3.17252391647775
H            0.21008831403350        1.48083502815590       -1.88161967415328
H           -1.34808175787198       -0.04072425938366        0.16067657205155
H           -5.49745650718476       -1.30701997705963       -0.01929028674563
H           -4.00106284294462       -2.26688598521817       -0.09302887997124
H           -4.79516882229390       -1.74718797035046       -1.60324720680510
H           -3.04548018041971        3.10938538073818        1.85472667730907
H           -4.62816656028809        2.58630363878478        2.39744170457323
H           -3.18441502233618        1.62864108270393        2.84903293809646
H            0.36789508167361       -3.36109884599181        0.97838137892748
H           -0.34167021546277       -2.21767994253449        2.13647764885667
H           -0.89583659545728       -2.21931524576808        0.45164811018977
H            4.68487335991927        0.33805937387225        2.31946644282355

          :  Hamiltonian                  GFN1-xTB          :
         :: total energy             -86.315608344196 Eh    ::
         :: gradient norm              0.000243591008 Eh/a0 ::
         :: HOMO-LUMO gap              0.282311403652 eV    ::
         :: SCC energy               -87.145635265994 Eh    ::
         :: -> Gsolv                  -0.121202995714 Eh    ::
         :: repulsion energy           0.860035449476 Eh    ::

    * Orbital Energies and Occupations

         #    Occupation            Energy/Eh            Energy/eV
      -------------------------------------------------------------
         1        2.0000           -0.9366851             -25.4885
       ...           ...                  ...                  ...
        58        2.0000           -0.5312422             -14.4558
        59        2.0000           -0.5246698             -14.2770
        60        2.0000           -0.5201123             -14.1530
        61        2.0000           -0.5194775             -14.1357
        62        2.0000           -0.5151528             -14.0180
        63        2.0000           -0.5036241             -13.7043
        64        2.0000           -0.5030355             -13.6883
        65        2.0000           -0.4937608             -13.4359
        66        2.0000           -0.4917625             -13.3815
        67        2.0000           -0.4847490             -13.1907
        68        2.0000           -0.4689695             -12.7613
        69        2.0000           -0.4570236             -12.4362
        70        1.9915           -0.4383541             -11.9282 (HOMO)
        71        0.0085           -0.4279794             -11.6459 (LUMO)
        72                         -0.3324910              -9.0475
        73                         -0.3311367              -9.0107
        74                         -0.3019919              -8.2176
        75                         -0.2961226              -8.0579
        76                         -0.2490537              -6.7771
        77                         -0.1777818              -4.8377
        78                         -0.1682102              -4.5772
        79                         -0.1615152              -4.3951
        80                         -0.1506719              -4.1000
        81                         -0.1406467              -3.8272
       ...                                ...                  ...
       144                          0.7297459              19.8574
      -------------------------------------------------------------
                  HL-Gap            0.0103748 Eh            0.2823 eV

Wiberg/Mayer (AO) data.
largest (>0.10) Wiberg bond orders for each atom

     #   Z sym  total        # sym  WBO       # sym  WBO       # sym  WBO
 ---------------------------------------------------------------------------
     1   6 C    3.857 --    28 H    0.986    29 H    0.980    27 H    0.980
                             2 O    0.881
     2   8 O    2.206 --     3 C    1.094     1 C    0.881     4 O    0.132
     3   6 C    3.849 --     4 O    1.674     2 O    1.094     5 C    1.001
     4   8 O    1.935 --     3 C    1.674     2 O    0.132
     5   6 C    3.954 --    25 C    1.482     6 N    1.187     3 C    1.001
     6   7 N    3.028 --     7 C    1.571     5 C    1.187
     7   6 C    3.929 --     6 N    1.571    21 N    1.178     8 C    0.973
     8   6 C    3.905 --    10 C    0.993     9 C    0.987     7 C    0.973
                            11 N    0.874
     9   6 C    3.983 --     8 C    0.987    31 H    0.981    32 H    0.980
                            30 H    0.976
    10   6 C    3.986 --     8 C    0.993    35 H    0.983    34 H    0.982
                            33 H    0.981
    11   7 N    3.383 --    12 C    1.350    36 H    0.883     8 C    0.874
                            13 O    0.178
    12   6 C    3.907 --    13 O    1.665    11 N    1.350    14 C    0.741
    13   8 O    2.057 --    12 C    1.665    11 N    0.178
    14   6 C    3.839 --    16 N    1.110    15 C    0.914    20 O    0.909
                            12 C    0.741
    15   6 C    3.946 --    38 H    0.979    39 H    0.975    37 H    0.974
                            14 C    0.914
    16   7 N    2.988 --    17 N    1.619    14 C    1.110
    17   7 N    3.014 --    16 N    1.619    18 C    1.227
    18   6 C    3.798 --    20 O    1.262    17 N    1.227    19 C    1.078
    19   6 C    3.963 --    18 C    1.078    42 H    0.973    41 H    0.923
                            40 H    0.922
    20   8 O    2.365 --    18 C    1.262    14 C    0.909
    21   7 N    3.499 --     7 C    1.178    23 C    1.101    22 C    0.928
                            24 O    0.135
    22   6 C    3.919 --    45 H    0.979    43 H    0.973    44 H    0.973
                            21 N    0.928
    23   6 C    3.909 --    24 O    1.600    21 N    1.101    25 C    1.063
    24   8 O    1.906 --    23 C    1.600    21 N    0.135
    25   6 C    3.910 --     5 C    1.482    26 O    1.120    23 C    1.063
    26   8 O    2.095 --    25 C    1.120    46 H    0.796
    27   1 H    1.005 --     1 C    0.980
    28   1 H    1.008 --     1 C    0.986
    29   1 H    1.006 --     1 C    0.980
    30   1 H    1.003 --     9 C    0.976
    31   1 H    0.998 --     9 C    0.981
    32   1 H    0.999 --     9 C    0.980
    33   1 H    1.007 --    10 C    0.981
    34   1 H    1.002 --    10 C    0.982
    35   1 H    1.007 --    10 C    0.983
    36   1 H    0.929 --    11 N    0.883
    37   1 H    0.990 --    15 C    0.974
    38   1 H    0.991 --    15 C    0.979
    39   1 H    0.995 --    15 C    0.975
    40   1 H    0.978 --    19 C    0.922
    41   1 H    0.977 --    19 C    0.923
    42   1 H    0.986 --    19 C    0.973
    43   1 H    1.000 --    22 C    0.973
    44   1 H    1.003 --    22 C    0.973
    45   1 H    1.006 --    22 C    0.979
    46   1 H    0.848 --    26 O    0.796
 ---------------------------------------------------------------------------

           -------------------------------------------------
          | TOTAL ENERGY              -86.315608344196 Eh   |
          | GRADIENT NORM               0.000243591008 Eh/α |
          | HOMO-LUMO GAP               0.282311403652 eV   |
           -------------------------------------------------

 * finished run on 2023/06/20 at 15:47:37.952
