   * xtb version 6.5.1 (579679a) compiled by 'ehlert@majestix' on 2022-07-11
          program call               : /lustre/hpc/kemi/ree/PhD/git/ReactivityQM/dep/xtb-6.5.1/bin/xtb --gfn 1 /lustre/hpc/kemi/ree/PhD/git/ReactivityQM/calculations/R02deprot/reac01prodE07/conf09/R02deprot_reac01prodE07_conf09_gfn1.xyz --opt --vfukui --chrg -2 --uhf 0 --alpb DMSO

   ID    Z sym.   atoms
    1    6 C      1, 3, 5, 7-10, 12, 14, 15, 18, 19, 22, 24
    2    8 O      2, 4, 13, 20, 23, 25
    3    7 N      6, 11, 16, 17, 21
    4    1 H      26-42

      * Solvation model:               ALPB
        Solvent                        DMSO
        Solvent mass                       7.8130E+01 g/mol
          :  Hamiltonian                  GFN1-xTB          :
 * total energy  :   -83.5706030 Eh     change       -0.4281588E-09 Eh
 * total energy  :   -83.5833502 Eh     change       -0.1274718E-01 Eh
 * total energy  :   -83.5879397 Eh     change       -0.4589471E-02 Eh
 * total energy  :   -83.5887256 Eh     change       -0.7859181E-03 Eh
 * total energy  :   -83.5897380 Eh     change       -0.1012423E-02 Eh
 * total energy  :   -83.5905885 Eh     change       -0.8505050E-03 Eh
 * total energy  :   -83.5913512 Eh     change       -0.7627264E-03 Eh
 * total energy  :   -83.5922596 Eh     change       -0.9083353E-03 Eh
 * total energy  :   -83.5926853 Eh     change       -0.4257104E-03 Eh
 * total energy  :   -83.5929983 Eh     change       -0.3130141E-03 Eh
 * total energy  :   -83.5998071 Eh     change       -0.1026081E-03 Eh
 * total energy  :   -83.5998434 Eh     change       -0.3621107E-04 Eh
 * total energy  :   -83.5998806 Eh     change       -0.3722238E-04 Eh
 * total energy  :   -83.5998976 Eh     change       -0.1702955E-04 Eh
 * total energy  :   -83.5999076 Eh     change       -0.1000315E-04 Eh
 * total energy  :   -83.5999180 Eh     change       -0.1036388E-04 Eh
 * total energy  :   -83.5999238 Eh     change       -0.5781347E-05 Eh
 * total energy  :   -83.5999296 Eh     change       -0.5893437E-05 Eh
 * total energy  :   -83.5999330 Eh     change       -0.3397097E-05 Eh
   *** GEOMETRY OPTIMIZATION CONVERGED AFTER 51 ITERATIONS ***

 final structure:
================
42
 xtb: 6.5.1 (579679a)
C            3.25552291667387        3.47675527289177       -1.46753623376331
O            2.78106090979767        2.25066322668592       -0.92535951095667
C            3.60605717119513        1.63056911947518       -0.05930138521407
O            4.70371366251365        2.10752805407528        0.22252073334916
C            3.08087074655336        0.37825843562205        0.48490761032385
N            1.83326823337880       -0.01461263737037        0.08616214941618
C            1.38035866694080       -1.14820863763987        0.57896430298309
C           -0.02538451944824       -1.59382689044480        0.18183767190297
C            0.01046055355159       -3.07646380735720       -0.21596013120864
C           -0.93496008220065       -1.39402782044966        1.41100790445538
N           -0.47062490120722       -0.79381753838488       -0.97208713707033
C           -1.87994431414459       -0.81691605921460       -1.24848782853778
O           -2.28016635716770       -1.84589414984623       -2.14366980677968
C           -3.44821478825065       -2.54183029482018       -1.75770862425765
C           -2.70216430863862        0.24195513429977       -0.99001941835143
N           -4.00205633106277        0.41915913098771       -1.35767389683369
N           -4.40049088304020        1.60474079754043       -0.77156925826297
C           -3.40556646213223        2.08196162868538       -0.11221719171993
C           -3.36249610286743        3.34293310880587        0.67682652664983
O           -2.27792241356247        1.29436917002357       -0.18296444696408
N            2.01203018387840       -1.95470039354624        1.43252612797674
C            3.25716459143178       -1.64115035745918        1.88322888182087
O            3.87653692824649       -2.37329985184475        2.68097713809862
C            3.81776638339533       -0.38611512461081        1.36855688476073
O            5.05982643117452       -0.03895275223603        1.79662364896951
H            2.49774348908119        3.83409523303510       -2.16321690577447
H            3.40927243169851        4.21265137495722       -0.67339770123733
H            4.20183490760329        3.32313332792704       -1.99375868560173
H            0.46067987724077       -3.66658113360538        0.58317309454099
H           -0.99547239829880       -3.44935092267564       -0.40453599799832
H            0.60269827534760       -3.19971886211270       -1.12417579708994
H           -0.52628194365974       -1.94027058183678        2.26139867769958
H           -0.99209377234543       -0.33470093353304        1.66360503514452
H           -1.94101264485688       -1.75977659261572        1.20398863810595
H           -0.18568247059152        0.17449869689237       -0.80071100915523
H           -4.33508093635573       -1.89070636406933       -1.79614133451803
H           -3.58527783737587       -3.36936430392819       -2.45855977585286
H           -3.36230459312964       -2.94897202094390       -0.73917219704286
H           -2.60385478746952        4.02187537031185        0.28285192804525
H           -3.12123355141781        3.13988584419673        1.72196610110162
H           -4.33374337236891        3.83082276078967        0.62662708326304
H            5.32516541188588        0.81340334335258        1.39439413558575

          :  Hamiltonian                  GFN1-xTB          :
         :: total energy             -83.599933044166 Eh    ::
         :: gradient norm              0.000711491446 Eh/a0 ::
         :: HOMO-LUMO gap              0.172041529458 eV    ::
         :: SCC energy               -84.321832207200 Eh    ::
         :: -> Gsolv                  -0.262115387797 Eh    ::
         :: repulsion energy           0.747947980380 Eh    ::

    * Orbital Energies and Occupations

         #    Occupation            Energy/Eh            Energy/eV
      -------------------------------------------------------------
         1        2.0000           -0.8056210             -21.9221
       ...           ...                  ...                  ...
        56        2.0000           -0.4358084             -11.8590
        57        2.0000           -0.4226161             -11.5000
        58        2.0000           -0.4130575             -11.2399
        59        2.0000           -0.4127985             -11.2328
        60        2.0000           -0.4005992             -10.9009
        61        2.0000           -0.3928692             -10.6905
        62        2.0000           -0.3837614             -10.4427
        63        2.0000           -0.3767283             -10.2513
        64        2.0000           -0.3662239              -9.9655
        65        2.0000           -0.3573351              -9.7236
        66        2.0000           -0.3529261              -9.6036
        67        2.0000           -0.3526139              -9.5951
        68        1.9307           -0.2739303              -7.4540 (HOMO)
        69        0.0693           -0.2676078              -7.2820 (LUMO)
        70                         -0.2074966              -5.6463
        71                         -0.1793999              -4.8817
        72                         -0.1759702              -4.7884
        73                         -0.1331204              -3.6224
        74                         -0.1217690              -3.3135
        75                         -0.1118948              -3.0448
        76                         -0.1024398              -2.7875
        77                         -0.0907210              -2.4686
        78                         -0.0864855              -2.3534
        79                         -0.0846445              -2.3033
       ...                                ...                  ...
       134                          0.7281307              19.8134
      -------------------------------------------------------------
                  HL-Gap            0.0063224 Eh            0.1720 eV

Wiberg/Mayer (AO) data.
largest (>0.10) Wiberg bond orders for each atom

     #   Z sym  total        # sym  WBO       # sym  WBO       # sym  WBO
 ---------------------------------------------------------------------------
     1   6 C    3.891 --    26 H    0.987    28 H    0.980    27 H    0.980
                             2 O    0.917
     2   8 O    2.174 --     3 C    1.077     1 C    0.917     4 O    0.111
     3   6 C    3.799 --     4 O    1.560     2 O    1.077     5 C    1.068
     4   8 O    1.884 --     3 C    1.560     2 O    0.111
     5   6 C    3.954 --    24 C    1.438     6 N    1.203     3 C    1.068
     6   7 N    2.994 --     7 C    1.458     5 C    1.203
     7   6 C    3.951 --     6 N    1.458    21 N    1.362     8 C    0.973
     8   6 C    3.967 --     9 C    0.991    10 C    0.976     7 C    0.973
                            11 N    0.960
     9   6 C    3.997 --     8 C    0.991    31 H    0.987    29 H    0.985
                            30 H    0.984
    10   6 C    3.996 --    32 H    0.986    33 H    0.985    34 H    0.983
                             8 C    0.976
    11   7 N    3.018 --    12 C    0.984     8 C    0.960    35 H    0.934
    12   6 C    3.691 --    15 C    1.495    11 N    0.984    13 O    0.908
                            16 N    0.132
    13   8 O    2.000 --    14 C    0.958    12 C    0.908
    14   6 C    3.930 --    37 H    0.986    38 H    0.978    36 H    0.975
                            13 O    0.958
    15   6 C    3.862 --    12 C    1.495    16 N    1.262    20 O    0.953
    16   7 N    2.784 --    15 C    1.262    17 N    1.151    12 C    0.132
                            18 C    0.119
    17   7 N    2.986 --    18 C    1.672    16 N    1.151
    18   6 C    3.873 --    17 N    1.672    19 C    1.018    20 O    0.992
                            16 N    0.119
    19   6 C    3.996 --    18 C    1.018    41 H    0.987    40 H    0.976
                            39 H    0.975
    20   8 O    2.174 --    18 C    0.992    15 C    0.953
    21   7 N    2.967 --     7 C    1.362    22 C    1.237    23 O    0.125
    22   6 C    3.927 --    23 O    1.475    21 N    1.237    24 C    1.084
    23   8 O    1.760 --    22 C    1.475    21 N    0.125
    24   6 C    3.875 --     5 C    1.438    22 C    1.084    25 O    1.060
    25   8 O    2.032 --    24 C    1.060    42 H    0.809
    26   1 H    1.014 --     1 C    0.987
    27   1 H    1.011 --     1 C    0.980
    28   1 H    1.012 --     1 C    0.980
    29   1 H    1.025 --     9 C    0.985
    30   1 H    1.012 --     9 C    0.984
    31   1 H    1.016 --     9 C    0.987
    32   1 H    1.015 --    10 C    0.986
    33   1 H    1.013 --    10 C    0.985
    34   1 H    1.020 --    10 C    0.983
    35   1 H    1.001 --    11 N    0.934
    36   1 H    1.047 --    14 C    0.975
    37   1 H    1.023 --    14 C    0.986
    38   1 H    1.024 --    14 C    0.978
    39   1 H    1.007 --    19 C    0.975
    40   1 H    1.007 --    19 C    0.976
    41   1 H    1.008 --    19 C    0.987
    42   1 H    0.881 --    25 O    0.809
 ---------------------------------------------------------------------------

           -------------------------------------------------
          | TOTAL ENERGY              -83.599933044166 Eh   |
          | GRADIENT NORM               0.000711491446 Eh/α |
          | HOMO-LUMO GAP               0.172041529458 eV   |
           -------------------------------------------------

 * finished run on 2023/06/20 at 17:49:27.753
