   * xtb version 6.5.1 (579679a) compiled by 'ehlert@majestix' on 2022-07-11
          program call               : /lustre/hpc/kemi/ree/PhD/git/ReactivityQM/dep/xtb-6.5.1/bin/xtb --gfn 1 /lustre/hpc/kemi/ree/PhD/git/ReactivityQM/calculations/R02/reac01prodN17/conf13/R02_reac01prodN17_conf13_gfn1.xyz --opt --vfukui --chrg 1 --uhf 0 --alpb DMSO

   ID    Z sym.   atoms
    1    6 C      1, 3, 5, 7-10, 12, 13, 15, 18, 19, 22, 24
    2    8 O      2, 4, 14, 20, 23, 25
    3    7 N      6, 11, 16, 17, 21
    4    1 H      26-43

      * Solvation model:               ALPB
        Solvent                        DMSO
        Solvent mass                       7.8130E+01 g/mol
          :  Hamiltonian                  GFN1-xTB          :
 * total energy  :   -83.1273783 Eh     change       -0.3316813E-10 Eh
 * total energy  :   -83.1402629 Eh     change       -0.1288465E-01 Eh
 * total energy  :   -83.1447075 Eh     change       -0.4444615E-02 Eh
 * total energy  :   -83.1456666 Eh     change       -0.9590899E-03 Eh
 * total energy  :   -83.1464907 Eh     change       -0.8240778E-03 Eh
 * total energy  :   -83.1469986 Eh     change       -0.5078865E-03 Eh
 * total energy  :   -83.1473925 Eh     change       -0.3938988E-03 Eh
 * total energy  :   -83.1477043 Eh     change       -0.3118438E-03 Eh
 * total energy  :   -83.1479454 Eh     change       -0.2411217E-03 Eh
 * total energy  :   -83.1481236 Eh     change       -0.1781526E-03 Eh
 * total energy  :   -83.1535878 Eh     change       -0.7975447E-05 Eh
 * total energy  :   -83.1535968 Eh     change       -0.8973265E-05 Eh
 * total energy  :   -83.1536042 Eh     change       -0.7417049E-05 Eh
 * total energy  :   -83.1536156 Eh     change       -0.1140206E-04 Eh
 * total energy  :   -83.1536315 Eh     change       -0.1587698E-04 Eh
 * total energy  :   -83.1536440 Eh     change       -0.1249808E-04 Eh
 * total energy  :   -83.1536517 Eh     change       -0.7746655E-05 Eh
 * total energy  :   -83.1536586 Eh     change       -0.6891012E-05 Eh
 * total energy  :   -83.1536625 Eh     change       -0.3932240E-05 Eh
   *** GEOMETRY OPTIMIZATION CONVERGED AFTER 108 ITERATIONS ***

 final structure:
================
43
 xtb: 6.5.1 (579679a)
C            5.61417637588438       -0.50533273773946        2.77633939774142
O            4.80365537825179       -0.77663030168541        1.61981288395976
C            3.64914909693554       -0.10942118420698        1.54178125236055
O            3.27802727659596        0.67909726802157        2.37707410649972
C            2.85617472138264       -0.44613833990472        0.32526828985903
N            1.73563188703898        0.33911637378486        0.20069750420849
C            0.90674678770622        0.13672426642321       -0.76313986713174
C           -0.30546422057647        1.03882223697326       -0.85412967358123
C           -1.17711179124914        0.79903289848794       -2.08190501953785
C            0.14453245283386        2.49804650994319       -0.79324210566512
N           -1.21099542589600        0.77165220344198        0.35392932857318
C           -0.66061228252552        1.13897203942442        1.69124360493288
C           -1.60001425667445       -0.68930723572463        0.40083830243547
O           -0.76982291617998       -1.50603235374828        0.64770814733804
C           -2.99918950355224       -0.88509935517234        0.13090888632252
N           -3.67877690184890       -2.00309082467070        0.13374799854570
N           -4.93774101123548       -1.69696153039934       -0.19326927785158
C           -4.98649567805063       -0.40234336365666       -0.38849989900081
C           -6.15209985256608        0.41150826906569       -0.77212313674335
O           -3.79137214412384        0.16228318868050       -0.19694023631208
N            1.11537931526812       -0.82503469694427       -1.70181711799635
C            2.21385489527730       -1.67283244923013       -1.70663962354623
O            2.34702950778813       -2.51085531701716       -2.57519125703497
C            3.13347519659264       -1.43487121724409       -0.58349277278227
O            4.18823866117263       -2.24763437508554       -0.55492782103484
H            5.80917014854384        0.56654818578355        2.84613425806165
H            5.09537212616797       -0.84312623213448        3.67565714375689
H            6.54230527882620       -1.05520513364244        2.64098016254327
H           -0.61080764329981        1.02682310808490       -2.98341699750324
H           -1.52934294380229       -0.23006523716654       -2.12764486693858
H           -2.04387797571047        1.45673931830772       -2.04470991641338
H            0.64324128727191        2.74500124214867       -1.72959733316844
H           -0.71430382913624        3.15385227670306       -0.66935946789928
H            0.84721934892778        2.64903912343817        0.02434891024028
H           -2.05695505919613        1.32439793551490        0.20772910334900
H           -1.36584574806120        0.78508523433168        2.43865303640722
H            0.31244939542801        0.66772212275441        1.81649491851830
H           -0.57912528786255        2.21985595923514        1.73667708179050
H           -7.02686535479029       -0.22312831873911       -0.89174755916850
H           -6.34072600851040        1.16468129429838       -0.00719047058777
H           -5.94211729338755        0.93471416959605       -1.70479836110114
H            0.46036809919310       -0.95720094861605       -2.45581331129240
H            4.78346689115038       -2.06400907176520        0.19357077482460

          :  Hamiltonian                  GFN1-xTB          :
         :: total energy             -83.153662543844 Eh    ::
         :: gradient norm              0.000733145179 Eh/a0 ::
         :: HOMO-LUMO gap              1.636380440745 eV    ::
         :: SCC energy               -83.950006809344 Eh    ::
         :: -> Gsolv                  -0.129749787263 Eh    ::
         :: repulsion energy           0.825280696997 Eh    ::

    * Orbital Energies and Occupations

         #    Occupation            Energy/Eh            Energy/eV
      -------------------------------------------------------------
         1        2.0000           -0.9086979             -24.7269
       ...           ...                  ...                  ...
        55        2.0000           -0.5395456             -14.6818
        56        2.0000           -0.5315398             -14.4639
        57        2.0000           -0.5266009             -14.3295
        58        2.0000           -0.5227872             -14.2258
        59        2.0000           -0.5188808             -14.1195
        60        2.0000           -0.5074787             -13.8092
        61        2.0000           -0.5033095             -13.6957
        62        2.0000           -0.4977389             -13.5442
        63        2.0000           -0.4950544             -13.4711
        64        2.0000           -0.4904399             -13.3455
        65        2.0000           -0.4768508             -12.9758
        66        2.0000           -0.4663027             -12.6887
        67        2.0000           -0.4471069             -12.1664 (HOMO)
        68                         -0.3869710             -10.5300 (LUMO)
        69                         -0.3384442              -9.2095
        70                         -0.3060995              -8.3294
        71                         -0.2943663              -8.0101
        72                         -0.2601012              -7.0777
        73                         -0.2542019              -6.9172
        74                         -0.1762884              -4.7971
        75                         -0.1678458              -4.5673
        76                         -0.1581369              -4.3031
        77                         -0.1559011              -4.2423
        78                         -0.1546840              -4.2092
       ...                                ...                  ...
       136                          0.7266480              19.7731
      -------------------------------------------------------------
                  HL-Gap            0.0601359 Eh            1.6364 eV

Wiberg/Mayer (AO) data.
largest (>0.10) Wiberg bond orders for each atom

     #   Z sym  total        # sym  WBO       # sym  WBO       # sym  WBO
 ---------------------------------------------------------------------------
     1   6 C    3.855 --    28 H    0.986    26 H    0.980    27 H    0.979
                             2 O    0.879
     2   8 O    2.210 --     3 C    1.100     1 C    0.879     4 O    0.132
     3   6 C    3.851 --     4 O    1.672     2 O    1.100     5 C    1.001
     4   8 O    1.938 --     3 C    1.672     2 O    0.132
     5   6 C    3.959 --    24 C    1.500     6 N    1.169     3 C    1.001
     6   7 N    3.052 --     7 C    1.589     5 C    1.169
     7   6 C    3.943 --     6 N    1.589    21 N    1.181     8 C    0.983
     8   6 C    3.889 --     9 C    1.006    10 C    0.991     7 C    0.983
                            11 N    0.838
     9   6 C    3.984 --     8 C    1.006    30 H    0.977    31 H    0.976
                            29 H    0.975
    10   6 C    3.979 --     8 C    0.991    33 H    0.980    34 H    0.977
                            32 H    0.975
    11   7 N    3.595 --    12 C    0.888    35 H    0.880    13 C    0.858
                             8 C    0.838
    12   6 C    3.872 --    36 H    0.980    38 H    0.979    37 H    0.968
                            11 N    0.888
    13   6 C    3.880 --    14 O    1.784    15 C    1.093    11 N    0.858
    14   8 O    2.051 --    13 C    1.784
    15   6 C    3.883 --    16 N    1.525    13 C    1.093    20 O    1.033
    16   7 N    3.020 --    15 C    1.525    17 N    1.288
    17   7 N    2.993 --    18 C    1.518    16 N    1.288
    18   6 C    3.847 --    17 N    1.518    20 O    1.096    19 C    1.044
    19   6 C    3.976 --    18 C    1.044    39 H    0.979    41 H    0.951
                            40 H    0.950
    20   8 O    2.335 --    18 C    1.096    15 C    1.033
    21   7 N    3.462 --     7 C    1.181    22 C    1.106    42 H    0.880
                            23 O    0.134
    22   6 C    3.905 --    23 O    1.621    21 N    1.106    24 C    1.049
    23   8 O    1.916 --    22 C    1.621    21 N    0.134
    24   6 C    3.919 --     5 C    1.500    25 O    1.125    22 C    1.049
    25   8 O    2.103 --    24 C    1.125    43 H    0.795
    26   1 H    1.005 --     1 C    0.980
    27   1 H    1.005 --     1 C    0.979
    28   1 H    1.008 --     1 C    0.986
    29   1 H    0.992 --     9 C    0.975
    30   1 H    0.995 --     9 C    0.977
    31   1 H    0.994 --     9 C    0.976
    32   1 H    0.995 --    10 C    0.975
    33   1 H    0.991 --    10 C    0.980
    34   1 H    1.004 --    10 C    0.977
    35   1 H    0.929 --    11 N    0.880
    36   1 H    0.990 --    12 C    0.980
    37   1 H    1.016 --    12 C    0.968
    38   1 H    0.992 --    12 C    0.979
    39   1 H    0.994 --    19 C    0.979
    40   1 H    0.990 --    19 C    0.950
    41   1 H    0.990 --    19 C    0.951
    42   1 H    0.926 --    21 N    0.880
    43   1 H    0.847 --    25 O    0.795
 ---------------------------------------------------------------------------

           -------------------------------------------------
          | TOTAL ENERGY              -83.153662543844 Eh   |
          | GRADIENT NORM               0.000733145179 Eh/α |
          | HOMO-LUMO GAP               1.636380440745 eV   |
           -------------------------------------------------

 * finished run on 2023/06/20 at 15:43:31.028
