   * xtb version 6.5.1 (579679a) compiled by 'ehlert@majestix' on 2022-07-11
          program call               : /lustre/hpc/kemi/ree/PhD/git/ReactivityQM/dep/xtb-6.5.1/bin/xtb --gfn 1 /lustre/hpc/kemi/ree/PhD/git/ReactivityQM/calculations/R02/reac01prodE11/conf17/R02_reac01prodE11_conf17_gfn1.xyz --opt --vfukui --chrg -1 --uhf 0 --alpb DMSO

   ID    Z sym.   atoms
    1    6 C      1, 3, 5, 7-10, 12, 14, 17-19, 22, 24
    2    8 O      2, 4, 13, 20, 23, 25
    3    7 N      6, 11, 15, 16, 21
    4    1 H      26-43

      * Solvation model:               ALPB
        Solvent                        DMSO
        Solvent mass                       7.8130E+01 g/mol
          :  Hamiltonian                  GFN1-xTB          :
 * total energy  :   -83.8743670 Eh     change       -0.5803713E-10 Eh
 * total energy  :   -83.8829690 Eh     change       -0.8602040E-02 Eh
 * total energy  :   -83.8859904 Eh     change       -0.3021420E-02 Eh
 * total energy  :   -83.8865422 Eh     change       -0.5517118E-03 Eh
 * total energy  :   -83.8870311 Eh     change       -0.4888888E-03 Eh
 * total energy  :   -83.8872368 Eh     change       -0.2057758E-03 Eh
 * total energy  :   -83.8873813 Eh     change       -0.1444955E-03 Eh
 * total energy  :   -83.8874372 Eh     change       -0.5589498E-04 Eh
 * total energy  :   -83.8874647 Eh     change       -0.2750849E-04 Eh
 * total energy  :   -83.8874793 Eh     change       -0.1455459E-04 Eh
 * total energy  :   -83.8874904 Eh     change       -0.1109737E-04 Eh
 * total energy  :   -83.8874970 Eh     change       -0.6596559E-05 Eh
 * total energy  :   -83.8875028 Eh     change       -0.5858916E-05 Eh
 * total energy  :   -83.8875060 Eh     change       -0.3173498E-05 Eh
   *** GEOMETRY OPTIMIZATION CONVERGED AFTER 14 ITERATIONS ***

 final structure:
================
43
 xtb: 6.5.1 (579679a)
C           -5.94038392038839       -1.66993977707076       -0.97873916132638
O           -4.70651460854650       -0.99677675915465       -0.72042307050301
C           -4.66074733424668       -0.24483270280775        0.37680388460823
O           -5.61376142929969       -0.12107530264481        1.13228007111021
C           -3.36308723450394        0.42129704871276        0.59512934324366
N           -2.38039492455978        0.20226112186129       -0.33756469276857
C           -1.22876195309844        0.76204684363102       -0.17014511306114
C           -0.13229120417845        0.60128991148683       -1.20330930381760
C           -0.21575069505643        1.82959433860402       -2.12653893615169
C           -0.34932785025468       -0.69409627855919       -1.99711172229785
N            1.13324898763864        0.58674469008338       -0.47528614397760
C            2.34426564135099        0.37958753332445       -1.18485548477467
O            2.44944856568252        0.63090822652601       -2.40003817814678
C            3.39387097568394       -0.08011096394451       -0.36264547098847
N            4.64730325113451       -0.32809854476140       -0.72498887919285
N            5.34471921661105       -0.76336591857853        0.27486900786922
C            4.46323379895416       -0.81590386749587        1.45100278605816
C            4.99872545476822        0.12384016663690        2.54251807649669
C            4.36995225690858       -2.26009663276317        1.96599512204773
O            3.19146083760184       -0.36785305625695        0.99794805141929
N           -0.96260205828217        1.57123777942803        0.89416387054681
C           -1.86411529807884        1.87314713463975        1.89580342237929
O           -1.55597230138634        2.61052092829322        2.82088899967312
C           -3.15962348589882        1.22549711505035        1.69575833416253
O           -4.09270466991424        1.46835371199766        2.62569980045900
H           -6.17624679837091       -2.34994123137642       -0.15683526387592
H           -6.74922265561134       -0.94391159570807       -1.08830614107740
H           -5.80462413583344       -2.22718126966660       -1.90330758363636
H           -1.21974602560712        1.90258471325745       -2.54286658109714
H            0.50006622765278        1.74196554582405       -2.94176523816051
H           -0.00112474233730        2.73404384416932       -1.55877938034175
H           -1.33638206207069       -0.67895584959309       -2.45696059153764
H           -0.28674057552687       -1.55435158787001       -1.33191824053706
H            0.40719818557403       -0.78512697710309       -2.77490502047571
H            1.09096043423180        0.01438242874258        0.36015120097504
H            5.99724284672432       -0.19102110375286        2.83916146099787
H            4.34133564420553        0.10513753632791        3.40981617997415
H            5.04539369963595        1.13956753353288        2.15298017687882
H            5.36034244506896       -2.61195143732928        2.24836141317469
H            3.97516373661662       -2.90023519221965        1.17876658556691
H            3.70952949011649       -2.30981167297442        2.82974704667852
H           -0.03809671748860        1.97750248814730        0.97251626919495
H           -4.92523801560135        0.99312808133880        2.40398309425094

          :  Hamiltonian                  GFN1-xTB          :
         :: total energy             -83.887506005834 Eh    ::
         :: gradient norm              0.000777658821 Eh/a0 ::
         :: HOMO-LUMO gap              0.170372514835 eV    ::
         :: SCC energy               -84.642740190156 Eh    ::
         :: -> Gsolv                  -0.109647918249 Eh    ::
         :: repulsion energy           0.781264071156 Eh    ::

    * Orbital Energies and Occupations

         #    Occupation            Energy/Eh            Energy/eV
      -------------------------------------------------------------
         1        2.0000           -0.8348931             -22.7186
       ...           ...                  ...                  ...
        56        2.0000           -0.4772557             -12.9868
        57        2.0000           -0.4733794             -12.8813
        58        2.0000           -0.4729627             -12.8700
        59        2.0000           -0.4511729             -12.2770
        60        2.0000           -0.4468223             -12.1587
        61        2.0000           -0.4407247             -11.9927
        62        2.0000           -0.4350527             -11.8384
        63        2.0000           -0.4204244             -11.4403
        64        2.0000           -0.4174400             -11.3591
        65        2.0000           -0.4132424             -11.2449
        66        2.0000           -0.3997541             -10.8779
        67        2.0000           -0.3751779             -10.2091
        68        1.9285           -0.3220626              -8.7638 (HOMO)
        69        0.0715           -0.3158016              -8.5934 (LUMO)
        70                         -0.2691000              -7.3226
        71                         -0.2443807              -6.6499
        72                         -0.2313574              -6.2956
        73                         -0.1471053              -4.0029
        74                         -0.1342535              -3.6532
        75                         -0.1324391              -3.6039
        76                         -0.1103969              -3.0041
        77                         -0.1067023              -2.9035
        78                         -0.1052937              -2.8652
        79                         -0.0993645              -2.7038
       ...                                ...                  ...
       136                          0.7220805              19.6488
      -------------------------------------------------------------
                  HL-Gap            0.0062611 Eh            0.1704 eV

Wiberg/Mayer (AO) data.
largest (>0.10) Wiberg bond orders for each atom

     #   Z sym  total        # sym  WBO       # sym  WBO       # sym  WBO
 ---------------------------------------------------------------------------
     1   6 C    3.873 --    28 H    0.986    27 H    0.979    26 H    0.979
                             2 O    0.898
     2   8 O    2.201 --     3 C    1.119     1 C    0.898     4 O    0.124
     3   6 C    3.826 --     4 O    1.589     2 O    1.119     5 C    1.036
     4   8 O    1.919 --     3 C    1.589     2 O    0.124
     5   6 C    3.945 --    24 C    1.464     6 N    1.176     3 C    1.036
     6   7 N    3.017 --     7 C    1.580     5 C    1.176
     7   6 C    3.918 --     6 N    1.580    21 N    1.172     8 C    0.979
     8   6 C    3.957 --    10 C    0.988     7 C    0.979     9 C    0.974
                            11 N    0.958
     9   6 C    3.990 --    29 H    0.988    31 H    0.986    30 H    0.976
                             8 C    0.974
    10   6 C    3.992 --     8 C    0.988    33 H    0.986    32 H    0.985
                            34 H    0.983
    11   7 N    3.161 --    12 C    1.041     8 C    0.958    35 H    0.917
    12   6 C    3.913 --    13 O    1.466    14 C    1.231    11 N    1.041
    13   8 O    1.798 --    12 C    1.466
    14   6 C    3.811 --    15 N    1.380    12 C    1.231    20 O    0.933
                            16 N    0.136
    15   7 N    3.024 --    16 N    1.489    14 C    1.380
    16   7 N    2.854 --    15 N    1.489    17 C    0.981    14 C    0.136
    17   6 C    3.895 --    16 N    0.981    19 C    0.978    18 C    0.978
                            20 O    0.919
    18   6 C    3.989 --    36 H    0.988    37 H    0.986    38 H    0.985
                            17 C    0.978
    19   6 C    3.989 --    39 H    0.987    41 H    0.986    40 H    0.985
                            17 C    0.978
    20   8 O    2.052 --    14 C    0.933    17 C    0.919
    21   7 N    3.452 --     7 C    1.172    22 C    1.121    42 H    0.881
                            23 O    0.131
    22   6 C    3.899 --    23 O    1.579    21 N    1.121    24 C    1.072
    23   8 O    1.871 --    22 C    1.579    21 N    0.131
    24   6 C    3.891 --     5 C    1.464    25 O    1.110    22 C    1.072
    25   8 O    2.073 --    24 C    1.110    43 H    0.782
    26   1 H    1.007 --     1 C    0.979
    27   1 H    1.007 --     1 C    0.979
    28   1 H    1.011 --     1 C    0.986
    29   1 H    1.005 --     9 C    0.988
    30   1 H    1.022 --     9 C    0.976
    31   1 H    1.006 --     9 C    0.986
    32   1 H    1.014 --    10 C    0.985
    33   1 H    1.005 --    10 C    0.986
    34   1 H    1.012 --    10 C    0.983
    35   1 H    0.965 --    11 N    0.917
    36   1 H    1.009 --    18 C    0.988
    37   1 H    1.007 --    18 C    0.986
    38   1 H    1.013 --    18 C    0.985
    39   1 H    1.009 --    19 C    0.987
    40   1 H    1.013 --    19 C    0.985
    41   1 H    1.007 --    19 C    0.986
    42   1 H    0.942 --    21 N    0.881
    43   1 H    0.858 --    25 O    0.782
 ---------------------------------------------------------------------------

           -------------------------------------------------
          | TOTAL ENERGY              -83.887506005834 Eh   |
          | GRADIENT NORM               0.000777658821 Eh/α |
          | HOMO-LUMO GAP               0.170372514835 eV   |
           -------------------------------------------------

 * finished run on 2023/06/20 at 15:13:32.804
