   * xtb version 6.5.1 (579679a) compiled by 'ehlert@majestix' on 2022-07-11
          program call               : /lustre/hpc/kemi/ree/PhD/git/ReactivityQM/dep/xtb-6.5.1/bin/xtb --gfn 1 /lustre/hpc/kemi/ree/PhD/git/ReactivityQM/calculations/R02/reac01prodN13/conf01/R02_reac01prodN13_conf01_gfn1.xyz --opt --vfukui --chrg 1 --uhf 0 --alpb DMSO

   ID    Z sym.   atoms
    1    6 C      1, 3, 5, 7-10, 12, 14, 17-19, 22, 24
    2    8 O      2, 4, 13, 20, 23, 25
    3    7 N      6, 11, 15, 16, 21
    4    1 H      26-43

      * Solvation model:               ALPB
        Solvent                        DMSO
        Solvent mass                       7.8130E+01 g/mol
          :  Hamiltonian                  GFN1-xTB          :
 * total energy  :   -83.0987779 Eh     change       -0.2451657E-08 Eh
 * total energy  :   -83.1129189 Eh     change       -0.1414099E-01 Eh
 * total energy  :   -83.1182571 Eh     change       -0.5338181E-02 Eh
 * total energy  :   -83.1190523 Eh     change       -0.7951870E-03 Eh
 * total energy  :   -83.1194936 Eh     change       -0.4413664E-03 Eh
 * total energy  :   -83.1196228 Eh     change       -0.1292057E-03 Eh
 * total energy  :   -83.1197573 Eh     change       -0.1344673E-03 Eh
 * total energy  :   -83.1198643 Eh     change       -0.1069723E-03 Eh
 * total energy  :   -83.1199387 Eh     change       -0.7443301E-04 Eh
 * total energy  :   -83.1199795 Eh     change       -0.4075834E-04 Eh
 * total energy  :   -83.1200655 Eh     change       -0.2738071E-04 Eh
 * total energy  :   -83.1200801 Eh     change       -0.1455669E-04 Eh
 * total energy  :   -83.1200930 Eh     change       -0.1295186E-04 Eh
 * total energy  :   -83.1201014 Eh     change       -0.8367518E-05 Eh
 * total energy  :   -83.1201070 Eh     change       -0.5621839E-05 Eh
 * total energy  :   -83.1201130 Eh     change       -0.5990282E-05 Eh
 * total energy  :   -83.1201192 Eh     change       -0.6177677E-05 Eh
 * total energy  :   -83.1201243 Eh     change       -0.5107523E-05 Eh
 * total energy  :   -83.1201263 Eh     change       -0.1994490E-05 Eh
   *** GEOMETRY OPTIMIZATION CONVERGED AFTER 22 ITERATIONS ***

 final structure:
================
43
 xtb: 6.5.1 (579679a)
C            6.69623404174330        0.96872925405604       -1.58153197518451
O            5.46280534543789        1.21249796144819       -0.89407252308542
C            4.57651040287915        0.22573061602453       -0.89473579294360
O            4.75860711707945       -0.84094956656129       -1.43235156639135
C            3.31747151434885        0.56103544004927       -0.15399356588053
N            2.42160454267285       -0.47257321568789       -0.10783049487382
C            1.28899200268584       -0.33072927696373        0.49394155280120
C            0.34445939922267       -1.50676538279196        0.58465930309027
C            0.68350797527161       -2.54893508791523       -0.48556576145387
C            0.45448550842594       -2.09608046561756        2.00011589635863
N           -1.02277390828676       -1.00863085001008        0.35797139847681
C           -2.10583327945655       -1.79477181969093        0.46283379697774
O           -2.14586377549163       -2.96184747891807        0.78100862456137
C           -3.37404573832508       -1.05211369258141        0.12251897248747
N           -4.62217145430382       -1.61213222967474        0.15677726910211
N           -5.45027870491928       -0.72726443688594       -0.19820587093922
C           -4.77658481289543        0.48958596138900       -0.49627772406176
C           -5.21985641208225        1.60966325648488        0.45268293532172
C           -4.96131543280827        0.86649063525179       -1.97162502481561
O           -3.40393503019109        0.16882473738829       -0.25166756787623
N            0.93752380591088        0.82678557382639        1.12464155264114
C            1.74890215758007        1.94104616848713        1.14270220386381
O            1.43373544587516        2.97693669729182        1.69960261866297
C            3.02282959421274        1.76330951861191        0.44133244980512
O            3.82833572045583        2.81990826548191        0.43924600678611
H            7.29095320493872        1.87424463947004       -1.48060131964415
H            6.50024949684195        0.75582342001529       -2.63483305894823
H            7.21375024760272        0.11932752450485       -1.12953162976109
H            1.71529160442004       -2.87173359683121       -0.35322649802791
H            0.02103638398704       -3.40693424125541       -0.39357953437173
H            0.57212572308325       -2.11022163384955       -1.47535042226856
H           -0.15887386389131       -2.99037221541441        2.08729661078834
H            0.12511157387357       -1.36138210675801        2.73166179048939
H            1.49374596437416       -2.35610879868648        2.19600216500358
H           -1.14448325688117       -0.06713596707836        0.02573688682533
H           -6.27362608281317        1.81723189430838        0.28244318387991
H           -5.06387685983336        1.29168534882968        1.48101335076313
H           -4.62646475339668        2.49673794974195        0.24589183446193
H           -4.61208241806248        0.04838064408401       -2.59783201186863
H           -6.01674117690087        1.05243748484039       -2.15577450294996
H           -4.38219915684025        1.76299114116825       -2.17771508702986
H            0.05377860395365        0.90814290048311        1.59992381017455
H            3.39895674050280        3.55913502994899        0.90884571904819

          :  Hamiltonian                  GFN1-xTB          :
         :: total energy             -83.120126287759 Eh    ::
         :: gradient norm              0.000276858291 Eh/a0 ::
         :: HOMO-LUMO gap              0.145006120169 eV    ::
         :: SCC energy               -83.909601086247 Eh    ::
         :: -> Gsolv                  -0.125744421533 Eh    ::
         :: repulsion energy           0.815294913543 Eh    ::

    * Orbital Energies and Occupations

         #    Occupation            Energy/Eh            Energy/eV
      -------------------------------------------------------------
         1        2.0000           -0.9362253             -25.4760
       ...           ...                  ...                  ...
        55        2.0000           -0.5324954             -14.4899
        56        2.0000           -0.5278246             -14.3628
        57        2.0000           -0.5207637             -14.1707
        58        2.0000           -0.5200126             -14.1503
        59        2.0000           -0.5137997             -13.9812
        60        2.0000           -0.5074241             -13.8077
        61        2.0000           -0.5023775             -13.6704
        62        2.0000           -0.5009238             -13.6308
        63        2.0000           -0.4982806             -13.5589
        64        2.0000           -0.4917067             -13.3800
        65        2.0000           -0.4775337             -12.9944
        66        2.0000           -0.4666242             -12.6975
        67        1.8858           -0.4483938             -12.2014 (HOMO)
        68        0.1142           -0.4430649             -12.0564 (LUMO)
        69                         -0.3589653              -9.7679
        70                         -0.3394557              -9.2371
        71                         -0.3038415              -8.2679
        72                         -0.2589984              -7.0477
        73                         -0.2536014              -6.9008
        74                         -0.1754425              -4.7740
        75                         -0.1615695              -4.3965
        76                         -0.1558990              -4.2422
        77                         -0.1486162              -4.0441
        78                         -0.1414416              -3.8488
       ...                                ...                  ...
       136                          0.7255512              19.7433
      -------------------------------------------------------------
                  HL-Gap            0.0053289 Eh            0.1450 eV

Wiberg/Mayer (AO) data.
largest (>0.10) Wiberg bond orders for each atom

     #   Z sym  total        # sym  WBO       # sym  WBO       # sym  WBO
 ---------------------------------------------------------------------------
     1   6 C    3.865 --    26 H    0.986    27 H    0.979    28 H    0.979
                             2 O    0.891
     2   8 O    2.211 --     3 C    1.128     1 C    0.891     4 O    0.139
     3   6 C    3.855 --     4 O    1.664     2 O    1.128     5 C    0.987
     4   8 O    1.925 --     3 C    1.664     2 O    0.139
     5   6 C    3.925 --    24 C    1.467     6 N    1.200     3 C    0.987
     6   7 N    3.003 --     7 C    1.567     5 C    1.200
     7   6 C    3.905 --     6 N    1.567    21 N    1.177     8 C    0.985
     8   6 C    3.910 --     7 C    0.985     9 C    0.981    10 C    0.966
                            11 N    0.908
     9   6 C    3.979 --    31 H    0.984    30 H    0.982     8 C    0.981
                            29 H    0.980
    10   6 C    3.976 --    33 H    0.984    34 H    0.982    32 H    0.976
                             8 C    0.966
    11   7 N    3.402 --    12 C    1.282     8 C    0.908    35 H    0.883
                            13 O    0.213
    12   6 C    3.924 --    13 O    1.615    11 N    1.282    14 C    0.947
    13   8 O    1.948 --    12 C    1.615    11 N    0.213
    14   6 C    3.737 --    20 O    1.319    15 N    1.217    12 C    0.947
    15   7 N    3.013 --    16 N    1.656    14 C    1.217
    16   7 N    2.917 --    15 N    1.656    17 C    1.057
    17   6 C    3.815 --    16 N    1.057    18 C    0.905    19 C    0.904
                            20 O    0.858
    18   6 C    3.941 --    37 H    0.979    36 H    0.977    38 H    0.976
                            17 C    0.905
    19   6 C    3.942 --    39 H    0.979    40 H    0.977    41 H    0.976
                            17 C    0.904
    20   8 O    2.360 --    14 C    1.319    17 C    0.858
    21   7 N    3.457 --     7 C    1.177    22 C    1.122    42 H    0.877
                            23 O    0.127
    22   6 C    3.898 --    23 O    1.602    21 N    1.122    24 C    1.050
    23   8 O    1.899 --    22 C    1.602    21 N    0.127
    24   6 C    3.870 --     5 C    1.467    25 O    1.136    22 C    1.050
    25   8 O    2.089 --    24 C    1.136    43 H    0.797
    26   1 H    1.010 --     1 C    0.986
    27   1 H    1.006 --     1 C    0.979
    28   1 H    1.006 --     1 C    0.979
    29   1 H    1.006 --     9 C    0.980
    30   1 H    1.002 --     9 C    0.982
    31   1 H    1.001 --     9 C    0.984
    32   1 H    1.003 --    10 C    0.976
    33   1 H    0.998 --    10 C    0.984
    34   1 H    0.998 --    10 C    0.982
    35   1 H    0.922 --    11 N    0.883
    36   1 H    0.991 --    18 C    0.977
    37   1 H    0.991 --    18 C    0.979
    38   1 H    0.991 --    18 C    0.976
    39   1 H    0.991 --    19 C    0.979
    40   1 H    0.991 --    19 C    0.977
    41   1 H    0.991 --    19 C    0.976
    42   1 H    0.917 --    21 N    0.877
    43   1 H    0.835 --    25 O    0.797
 ---------------------------------------------------------------------------

           -------------------------------------------------
          | TOTAL ENERGY              -83.120126287759 Eh   |
          | GRADIENT NORM               0.000276858291 Eh/α |
          | HOMO-LUMO GAP               0.145006120169 eV   |
           -------------------------------------------------

 * finished run on 2023/06/20 at 15:35:58.500
