   * xtb version 6.5.1 (579679a) compiled by 'ehlert@majestix' on 2022-07-11
          program call               : /lustre/hpc/kemi/ree/PhD/git/ReactivityQM/dep/xtb-6.5.1/bin/xtb --gfn 1 /lustre/hpc/kemi/ree/PhD/git/ReactivityQM/calculations/R02/reac01prodE12/conf20/R02_reac01prodE12_conf20_gfn1.xyz --opt --vfukui --chrg -1 --uhf 0 --alpb DMSO

   ID    Z sym.   atoms
    1    6 C      1, 3, 5, 6, 8, 9, 12-15, 17, 19, 22, 23
    2    8 O      2, 4, 7, 10, 18, 24
    3    7 N      11, 16, 20, 21, 25
    4    1 H      26-43

      * Solvation model:               ALPB
        Solvent                        DMSO
        Solvent mass                       7.8130E+01 g/mol
          :  Hamiltonian                  GFN1-xTB          :
 * total energy  :   -83.8486751 Eh     change       -0.3907985E-11 Eh
 * total energy  :   -83.8612125 Eh     change       -0.1253742E-01 Eh
 * total energy  :   -83.8664798 Eh     change       -0.5267313E-02 Eh
 * total energy  :   -83.8674887 Eh     change       -0.1008914E-02 Eh
 * total energy  :   -83.8680503 Eh     change       -0.5616089E-03 Eh
 * total energy  :   -83.8682978 Eh     change       -0.2474259E-03 Eh
 * total energy  :   -83.8684917 Eh     change       -0.1939626E-03 Eh
 * total energy  :   -83.8686241 Eh     change       -0.1323357E-03 Eh
 * total energy  :   -83.8687271 Eh     change       -0.1030627E-03 Eh
 * total energy  :   -83.8688259 Eh     change       -0.9879663E-04 Eh
 * total energy  :   -83.8693517 Eh     change       -0.6197899E-05 Eh
 * total energy  :   -83.8693592 Eh     change       -0.7425430E-05 Eh
 * total energy  :   -83.8693653 Eh     change       -0.6153558E-05 Eh
 * total energy  :   -83.8693719 Eh     change       -0.6562317E-05 Eh
 * total energy  :   -83.8693786 Eh     change       -0.6755460E-05 Eh
 * total energy  :   -83.8693853 Eh     change       -0.6686960E-05 Eh
 * total energy  :   -83.8693918 Eh     change       -0.6454249E-05 Eh
 * total energy  :   -83.8693973 Eh     change       -0.5502532E-05 Eh
 * total energy  :   -83.8694018 Eh     change       -0.4564947E-05 Eh
   *** GEOMETRY OPTIMIZATION CONVERGED AFTER 38 ITERATIONS ***

 final structure:
================
43
 xtb: 6.5.1 (579679a)
C           -4.64717057123597       -2.93155442277068       -2.38619483897207
O           -3.64222950667138       -2.03637460587669       -1.92229015773816
C           -4.04336521417101       -1.10696480074405       -1.03063626141340
O           -5.21348217565693       -1.05967615363966       -0.65119152204112
C           -2.99683436493383       -0.20576226479123       -0.58149839306646
C           -3.26162521196584        0.80538545813216        0.29756134603440
O           -4.48215917603309        1.02859142671002        0.80397147429784
C           -2.19550894812803        1.87696331179959        0.67658053816259
C           -2.25397297656061        2.08944129758862        2.22308866639713
O           -2.24941435257962        2.94528737359444       -0.04289080670497
N           -0.84725322280356        1.10315809061453        0.46245248226404
C           -0.74047102331001        0.26948592020647       -0.60343789526409
C            0.64622026432123        0.09632468489273       -1.21174854263728
C            0.94324255387024        1.32434738197105       -2.08498112972022
C            0.71439329173771       -1.19218443772335       -2.03635571366526
N            1.61183267532180        0.02608529034331       -0.10477761429130
C            2.94048992433040       -0.06884455299651       -0.26444417079577
O            3.53776022898788       -0.11066753245931       -1.32908297484867
C            3.63269429628979       -0.11200444595622        1.05528443235265
N            3.06366738245404       -0.07287192637899        2.22232714482856
N            4.06212772245227       -0.12923528770176        3.14975736162374
C            5.17623425734687       -0.19884395318300        2.48810403000089
C            6.54828659409686       -0.27880572663358        3.03642710354728
O            4.97234355035193       -0.19285554981195        1.16214536220833
N           -1.70909832634947       -0.40607476251951       -1.11594155657914
H           -5.45660970402812       -2.38085298957514       -2.87419714889104
H           -4.17032026151096       -3.60144315258063       -3.09994765202060
H           -5.06165314367574       -3.50725192374622       -1.55367549476862
H           -5.12404732772104        0.36545036122614        0.45742525072494
H           -3.21169861736338        2.54076614677090        2.47747900525034
H           -1.45412662596792        2.76683485020019        2.51505106570554
H           -2.14304962890079        1.14410522108670        2.75110433009797
H           -0.06978883531674        1.73797499617528        0.58279278093310
H            0.18346070751393        1.40160109097346       -2.86216018517375
H            1.92062948245706        1.23597250125068       -2.55517575932878
H            0.92107371181360        2.22823622998390       -1.47700950170514
H            0.53458011989521       -2.05417657599887       -1.39494685856990
H            1.68986356234245       -1.29354933941919       -2.50831708934192
H           -0.05588654719374       -1.16507927294857       -2.80622615406206
H            1.24812674466911        0.01529857107151        0.83811388887228
H            7.13611274313661        0.57472479491515        2.69929981069755
H            6.50734204255672       -0.28551495969219        4.12261535317829
H            7.03928290612986       -1.18544536235452        2.68384599442309

          :  Hamiltonian                  GFN1-xTB          :
         :: total energy             -83.869401845564 Eh    ::
         :: gradient norm              0.000595511190 Eh/a0 ::
         :: HOMO-LUMO gap              1.356595286024 eV    ::
         :: SCC energy               -84.628602060955 Eh    ::
         :: -> Gsolv                  -0.116747179286 Eh    ::
         :: repulsion energy           0.785221760334 Eh    ::

    * Orbital Energies and Occupations

         #    Occupation            Energy/Eh            Energy/eV
      -------------------------------------------------------------
         1        2.0000           -0.8575941             -23.3363
       ...           ...                  ...                  ...
        56        2.0000           -0.4743381             -12.9074
        57        2.0000           -0.4661889             -12.6856
        58        2.0000           -0.4589791             -12.4895
        59        2.0000           -0.4530893             -12.3292
        60        2.0000           -0.4523416             -12.3088
        61        2.0000           -0.4448763             -12.1057
        62        2.0000           -0.4399505             -11.9717
        63        2.0000           -0.4338078             -11.8045
        64        2.0000           -0.4227374             -11.5033
        65        2.0000           -0.3953095             -10.7569
        66        2.0000           -0.3708339             -10.0909
        67        2.0000           -0.3553980              -9.6709
        68        2.0000           -0.3506844              -9.5426 (HOMO)
        69                         -0.3008304              -8.1860 (LUMO)
        70                         -0.2667511              -7.2587
        71                         -0.2516051              -6.8465
        72                         -0.2241359              -6.0990
        73                         -0.1891630              -5.1474
        74                         -0.1401161              -3.8128
        75                         -0.1369199              -3.7258
        76                         -0.1265932              -3.4448
        77                         -0.1081300              -2.9424
        78                         -0.1067322              -2.9043
        79                         -0.0911812              -2.4812
       ...                                ...                  ...
       136                          0.7312037              19.8971
      -------------------------------------------------------------
                  HL-Gap            0.0498540 Eh            1.3566 eV

Wiberg/Mayer (AO) data.
largest (>0.10) Wiberg bond orders for each atom

     #   Z sym  total        # sym  WBO       # sym  WBO       # sym  WBO
 ---------------------------------------------------------------------------
     1   6 C    3.890 --    27 H    0.987    28 H    0.980    26 H    0.980
                             2 O    0.916
     2   8 O    2.173 --     3 C    1.071     1 C    0.916     4 O    0.108
     3   6 C    3.841 --     4 O    1.546     5 C    1.103     2 O    1.071
     4   8 O    1.900 --     3 C    1.546     2 O    0.108
     5   6 C    3.943 --     6 C    1.539     3 C    1.103    25 N    1.066
     6   6 C    3.862 --     5 C    1.539     7 O    1.114     8 C    0.899
     7   8 O    2.085 --     6 C    1.114    29 H    0.788
     8   6 C    3.922 --    10 O    1.253     9 C    0.939     6 C    0.899
                            11 N    0.762
     9   6 C    3.992 --    32 H    0.991    31 H    0.987    30 H    0.985
                             8 C    0.939
    10   8 O    1.561 --     8 C    1.253
    11   7 N    3.242 --    12 C    1.216    33 H    0.922     8 C    0.762
                            25 N    0.157
    12   6 C    3.954 --    25 N    1.612    11 N    1.216    13 C    0.967
    13   6 C    3.924 --    15 C    0.994    14 C    0.982    12 C    0.967
                            16 N    0.910
    14   6 C    3.993 --    34 H    0.986    36 H    0.984    13 C    0.982
                            35 H    0.982
    15   6 C    3.994 --    13 C    0.994    37 H    0.986    38 H    0.984
                            39 H    0.983
    16   7 N    3.369 --    17 C    1.283    13 C    0.910    40 H    0.896
                            18 O    0.184
    17   6 C    3.922 --    18 O    1.576    16 N    1.283    19 C    0.982
    18   8 O    1.895 --    17 C    1.576    16 N    0.184
    19   6 C    3.871 --    20 N    1.616    24 O    1.062    17 C    0.982
    20   7 N    3.013 --    19 C    1.616    21 N    1.194
    21   7 N    2.980 --    22 C    1.611    20 N    1.194
    22   6 C    3.873 --    21 N    1.611    24 O    1.081    23 C    1.030
    23   6 C    3.987 --    22 C    1.030    42 H    0.983    43 H    0.965
                            41 H    0.964
    24   8 O    2.327 --    22 C    1.081    19 C    1.062
    25   7 N    2.982 --    12 C    1.612     5 C    1.066    11 N    0.157
    26   1 H    1.012 --     1 C    0.980
    27   1 H    1.014 --     1 C    0.987
    28   1 H    1.012 --     1 C    0.980
    29   1 H    0.873 --     7 O    0.788
    30   1 H    1.016 --     9 C    0.985
    31   1 H    1.013 --     9 C    0.987
    32   1 H    1.014 --     9 C    0.991
    33   1 H    0.968 --    11 N    0.922
    34   1 H    1.005 --    14 C    0.986
    35   1 H    1.012 --    14 C    0.982
    36   1 H    1.005 --    14 C    0.984
    37   1 H    1.010 --    15 C    0.986
    38   1 H    1.011 --    15 C    0.984
    39   1 H    1.020 --    15 C    0.983
    40   1 H    0.963 --    16 N    0.896
    41   1 H    0.997 --    23 C    0.964
    42   1 H    0.999 --    23 C    0.983
    43   1 H    0.997 --    23 C    0.965
 ---------------------------------------------------------------------------

           -------------------------------------------------
          | TOTAL ENERGY              -83.869401845564 Eh   |
          | GRADIENT NORM               0.000595511190 Eh/α |
          | HOMO-LUMO GAP               1.356595286024 eV   |
           -------------------------------------------------

 * finished run on 2023/06/20 at 15:13:34.574
