   * xtb version 6.5.1 (579679a) compiled by 'ehlert@majestix' on 2022-07-11
          program call               : /lustre/hpc/kemi/ree/PhD/git/ReactivityQM/dep/xtb-6.5.1/bin/xtb --gfn 1 /lustre/hpc/kemi/ree/PhD/git/ReactivityQM/calculations/R02/reac01prodN04/conf16/R02_reac01prodN04_conf16_gfn1.xyz --opt --vfukui --chrg 1 --uhf 0 --alpb DMSO

   ID    Z sym.   atoms
    1    6 C      1, 3, 5, 7-10, 12, 14, 17, 18, 21, 23, 25
    2    8 O      2, 4, 13, 19, 22, 24
    3    7 N      6, 11, 15, 16, 20
    4    1 H      26-43

      * Solvation model:               ALPB
        Solvent                        DMSO
        Solvent mass                       7.8130E+01 g/mol
          :  Hamiltonian                  GFN1-xTB          :
 * total energy  :   -83.1063179 Eh     change       -0.9848122E-11 Eh
 * total energy  :   -83.1230326 Eh     change       -0.1671466E-01 Eh
 * total energy  :   -83.1295546 Eh     change       -0.6522070E-02 Eh
 * total energy  :   -83.1311742 Eh     change       -0.1619607E-02 Eh
 * total energy  :   -83.1325969 Eh     change       -0.1422654E-02 Eh
 * total energy  :   -83.1336716 Eh     change       -0.1074736E-02 Eh
 * total energy  :   -83.1345210 Eh     change       -0.8493720E-03 Eh
 * total energy  :   -83.1350563 Eh     change       -0.5353118E-03 Eh
 * total energy  :   -83.1353237 Eh     change       -0.2673718E-03 Eh
 * total energy  :   -83.1354685 Eh     change       -0.1447803E-03 Eh
 * total energy  :   -83.1365728 Eh     change       -0.1468834E-04 Eh
 * total energy  :   -83.1365879 Eh     change       -0.1512492E-04 Eh
 * total energy  :   -83.1365997 Eh     change       -0.1184500E-04 Eh
 * total energy  :   -83.1366088 Eh     change       -0.9097233E-05 Eh
 * total energy  :   -83.1365979 Eh     change        0.1089497E-04 Eh
 * total energy  :   -83.1366221 Eh     change       -0.2414168E-04 Eh
 * total energy  :   -83.1366291 Eh     change       -0.7046554E-05 Eh
 * total energy  :   -83.1366394 Eh     change       -0.1030859E-04 Eh
 * total energy  :   -83.1366440 Eh     change       -0.4550916E-05 Eh
   *** GEOMETRY OPTIMIZATION CONVERGED AFTER 44 ITERATIONS ***

 final structure:
================
43
 xtb: 6.5.1 (579679a)
C            5.74662391378514       -1.06605984438645       -1.73118722518752
O            4.65521040711258       -0.37639900924961       -1.07532654897464
C            3.56717034740673       -1.11118913031154       -0.80563954111910
O            3.46492905218082       -2.27538720237362       -1.06118888577294
C            2.48458255717933       -0.28944036014738       -0.15116695037173
N            1.37822679319606       -0.99537806911423        0.17541881768153
C            0.37744343658943       -0.38306878909506        0.74823666585542
C           -0.84576706645133       -1.19216110737309        1.14430717682620
C           -0.74616545473138       -2.59889715715822        0.55279789602384
C           -0.93388657413371       -1.26361646808190        2.67656905164978
N           -2.05770712718993       -0.57808975404857        0.58903070964907
C           -2.62254408458206        0.57425114643376        0.99862077852690
O           -2.13578331214005        1.34952899691227        1.81498630145681
C           -3.91257140309809        0.84858029730692        0.33484991385716
N           -4.70309511136537        1.86113986939183        0.51241546824795
N           -5.76648634044075        1.67889438949034       -0.31534896629086
C           -5.56240077793608        0.56560996863678       -0.95027263499599
C           -6.42447972130266       -0.07630794982047       -1.96522295417073
O           -4.40592938290094       -0.01017733595122       -0.58347768356576
N            0.41346530846362        0.92813411305737        1.04331770625042
C            1.47245701843333        1.77241907510499        0.75162218846334
O            1.44476399901867        2.95808035458670        1.00855658883721
C            2.55575256285059        1.04853857983736        0.11458011434984
O            3.72454737381387        1.80686527173208       -0.17786247223972
C            3.58886803355792        2.93819963224459       -1.10484004886270
H            6.12050519872794       -1.85239264840980       -1.07411179392713
H            6.51043364072977       -0.31626219809087       -1.91614593612627
H            5.38648779553368       -1.49529242175113       -2.66702846168047
H           -1.63046659953972       -3.17333957467710        0.82125359752500
H            0.13729883952999       -3.10033145747449        0.94415804642070
H           -0.66521330755083       -2.54666765553607       -0.53142828742556
H           -0.96974826107725       -0.26851985539568        3.11447854311091
H           -0.06174616949997       -1.78881114091368        3.06238670052639
H           -1.83318653062524       -1.80940016082002        2.95651499011278
H           -2.55259687263452       -1.12260497454905       -0.10058412179103
H           -6.76654913669469       -1.04509467654888       -1.60020460904808
H           -5.85453511744054       -0.24517136886155       -2.87855531906673
H           -7.28179052796018        0.55896979538401       -2.17674484985685
H           -0.41958665654812        1.34857046792411        1.48727343100905
H            4.42154731194286        1.16201844466243       -0.51590477239225
H            2.90051271879382        3.64380611105669       -0.64473565567287
H            3.21620746557956        2.57479810261719       -2.06068667779691
H            4.58520476141983        3.36165869375810       -1.19707029004869

          :  Hamiltonian                  GFN1-xTB          :
         :: total energy             -83.136643977261 Eh    ::
         :: gradient norm              0.000434846722 Eh/a0 ::
         :: HOMO-LUMO gap              2.430170911278 eV    ::
         :: SCC energy               -83.929725832198 Eh    ::
         :: -> Gsolv                  -0.117598968837 Eh    ::
         :: repulsion energy           0.819340888968 Eh    ::

    * Orbital Energies and Occupations

         #    Occupation            Energy/Eh            Energy/eV
      -------------------------------------------------------------
         1        2.0000           -0.9291495             -25.2834
       ...           ...                  ...                  ...
        55        2.0000           -0.5255298             -14.3004
        56        2.0000           -0.5236411             -14.2490
        57        2.0000           -0.5209293             -14.1752
        58        2.0000           -0.5149364             -14.0121
        59        2.0000           -0.5129126             -13.9571
        60        2.0000           -0.4973076             -13.5324
        61        2.0000           -0.4884499             -13.2914
        62        2.0000           -0.4845382             -13.1850
        63        2.0000           -0.4796857             -13.0529
        64        2.0000           -0.4782667             -13.0143
        65        2.0000           -0.4728317             -12.8664
        66        2.0000           -0.4604306             -12.5290
        67        2.0000           -0.4595891             -12.5061 (HOMO)
        68                         -0.3702820             -10.0759 (LUMO)
        69                         -0.3250301              -8.8445
        70                         -0.3193791              -8.6907
        71                         -0.2762174              -7.5163
        72                         -0.2633659              -7.1666
        73                         -0.2116952              -5.7605
        74                         -0.2068149              -5.6277
        75                         -0.1712790              -4.6607
        76                         -0.1690748              -4.6008
        77                         -0.1531971              -4.1687
        78                         -0.1448131              -3.9406
       ...                                ...                  ...
       136                          0.7325061              19.9325
      -------------------------------------------------------------
                  HL-Gap            0.0893071 Eh            2.4302 eV

Wiberg/Mayer (AO) data.
largest (>0.10) Wiberg bond orders for each atom

     #   Z sym  total        # sym  WBO       # sym  WBO       # sym  WBO
 ---------------------------------------------------------------------------
     1   6 C    3.827 --    27 H    0.985    28 H    0.978    26 H    0.978
                             2 O    0.851
     2   8 O    2.231 --     3 C    1.087     1 C    0.851     4 O    0.138
     3   6 C    3.849 --     4 O    1.730     2 O    1.087     5 C    0.961
     4   8 O    1.989 --     3 C    1.730     2 O    0.138
     5   6 C    3.972 --    23 C    1.536     6 N    1.252     3 C    0.961
     6   7 N    3.028 --     7 C    1.492     5 C    1.252
     7   6 C    3.917 --     6 N    1.492    20 N    1.271     8 C    0.973
     8   6 C    3.932 --     9 C    1.000     7 C    0.973    10 C    0.973
                            11 N    0.923
     9   6 C    3.987 --     8 C    1.000    29 H    0.983    31 H    0.982
                            30 H    0.981
    10   6 C    3.984 --    33 H    0.984    34 H    0.981    32 H    0.979
                             8 C    0.973
    11   7 N    3.350 --    12 C    1.269     8 C    0.923    35 H    0.886
                            13 O    0.169
    12   6 C    3.912 --    13 O    1.544    11 N    1.269    14 C    1.007
    13   8 O    1.926 --    12 C    1.544    11 N    0.169
    14   6 C    3.877 --    15 N    1.614    19 O    1.046    12 C    1.007
    15   7 N    3.004 --    14 C    1.614    16 N    1.207
    16   7 N    2.983 --    17 C    1.602    15 N    1.207
    17   6 C    3.865 --    16 N    1.602    19 O    1.073    18 C    1.033
    18   6 C    3.985 --    17 C    1.033    38 H    0.982    37 H    0.963
                            36 H    0.960
    19   8 O    2.318 --    17 C    1.073    14 C    1.046
    20   7 N    3.500 --     7 C    1.271    21 C    1.103    39 H    0.806
                            22 O    0.126
    21   6 C    3.919 --    22 O    1.607    23 C    1.103    20 N    1.103
    22   8 O    1.929 --    21 C    1.607    20 N    0.126
    23   6 C    3.826 --     5 C    1.536    21 C    1.103    24 O    0.868
    24   8 O    2.438 --    23 C    0.868    25 C    0.793    40 H    0.686
    25   6 C    3.766 --    42 H    0.983    43 H    0.977    41 H    0.973
                            24 O    0.793
    26   1 H    1.000 --     1 C    0.978
    27   1 H    1.004 --     1 C    0.985
    28   1 H    1.001 --     1 C    0.978
    29   1 H    0.996 --     9 C    0.983
    30   1 H    1.005 --     9 C    0.981
    31   1 H    1.000 --     9 C    0.982
    32   1 H    1.006 --    10 C    0.979
    33   1 H    0.999 --    10 C    0.984
    34   1 H    0.997 --    10 C    0.981
    35   1 H    0.930 --    11 N    0.886
    36   1 H    0.996 --    18 C    0.960
    37   1 H    0.996 --    18 C    0.963
    38   1 H    0.997 --    18 C    0.982
    39   1 H    0.911 --    20 N    0.806
    40   1 H    0.800 --    24 O    0.686
    41   1 H    1.006 --    25 C    0.973
    42   1 H    0.993 --    25 C    0.983
    43   1 H    0.992 --    25 C    0.977
 ---------------------------------------------------------------------------

           -------------------------------------------------
          | TOTAL ENERGY              -83.136643977261 Eh   |
          | GRADIENT NORM               0.000434846722 Eh/α |
          | HOMO-LUMO GAP               2.430170911278 eV   |
           -------------------------------------------------

 * finished run on 2023/06/20 at 15:22:34.146
