   * xtb version 6.5.1 (579679a) compiled by 'ehlert@majestix' on 2022-07-11
          program call               : /lustre/hpc/kemi/ree/PhD/git/ReactivityQM/dep/xtb-6.5.1/bin/xtb --gfn 1 /lustre/hpc/kemi/ree/PhD/git/ReactivityQM/calculations/R02methylcation/reac01prodN01/conf15/R02methylcation_reac01prodN01_conf15_gfn1.xyz --opt --vfukui --chrg 0 --uhf 0 --alpb DMSO

   ID    Z sym.   atoms
    1    6 C      1, 3, 5, 7-10, 12, 14, 17, 18, 20, 22, 24
    2    8 O      2, 4, 13, 19, 23, 25
    3    7 N      6, 11, 15, 16, 21
    4    1 H      26-42

      * Solvation model:               ALPB
        Solvent                        DMSO
        Solvent mass                       7.8130E+01 g/mol
          :  Hamiltonian                  GFN1-xTB          :
 * total energy  :   -82.8795042 Eh     change       -0.2700062E-12 Eh
 * total energy  :   -82.8972052 Eh     change       -0.1770093E-01 Eh
 * total energy  :   -82.9057002 Eh     change       -0.8495044E-02 Eh
 * total energy  :   -82.9079604 Eh     change       -0.2260129E-02 Eh
 * total energy  :   -82.9093717 Eh     change       -0.1411371E-02 Eh
 * total energy  :   -82.9100395 Eh     change       -0.6678134E-03 Eh
 * total energy  :   -82.9105652 Eh     change       -0.5256953E-03 Eh
 * total energy  :   -82.9109956 Eh     change       -0.4303517E-03 Eh
 * total energy  :   -82.9113253 Eh     change       -0.3296972E-03 Eh
 * total energy  :   -82.9115754 Eh     change       -0.2501472E-03 Eh
 * total energy  :   -82.9139673 Eh     change       -0.4016432E-04 Eh
 * total energy  :   -82.9139883 Eh     change       -0.2100142E-04 Eh
 * total energy  :   -82.9140237 Eh     change       -0.3537397E-04 Eh
 * total energy  :   -82.9140440 Eh     change       -0.2029243E-04 Eh
 * total energy  :   -82.9140726 Eh     change       -0.2860787E-04 Eh
 * total energy  :   -82.9140836 Eh     change       -0.1105603E-04 Eh
 * total energy  :   -82.9140940 Eh     change       -0.1041585E-04 Eh
 * total energy  :   -82.9141019 Eh     change       -0.7908717E-05 Eh
 * total energy  :   -82.9141058 Eh     change       -0.3891750E-05 Eh
   *** GEOMETRY OPTIMIZATION CONVERGED AFTER 54 ITERATIONS ***

 final structure:
================
42
 xtb: 6.5.1 (579679a)
C            7.06967530729322       -1.52858441091020       -0.37953884143167
O            5.92299114123369       -1.23353471413107        0.40760826181095
C            4.87080127228412       -0.70136503291725       -0.25976931301470
O            4.93278967939491       -0.49950308353012       -1.46644347699363
C            3.71084311628345       -0.40263802219355        0.56984989063033
N            2.67267626161982        0.15671781713934       -0.15195296446682
C            1.58087469666059        0.48807629530180        0.42419488693958
C            0.44314784923236        1.10206561520182       -0.36085992781364
C            0.23655654246658        2.56306900089380        0.05747531619934
C            0.71861371163469        0.98352977768990       -1.86090912376434
N           -0.77180012778696        0.32322751797300       -0.02364433785229
C           -1.98182983230378        0.58955624839267       -0.50950995660755
O           -2.29772183446599        1.48053390755479       -1.27761562083834
C           -2.99508718371876       -0.38416995372171        0.01132433659598
N           -2.83214651356685       -1.38645268081629        0.78871376877052
N           -4.04135612200343       -1.99573553936653        0.98372721398098
C           -4.93588563058379       -1.36493974577210        0.32559870696584
C           -6.37793098256164       -1.63230438490385        0.21471135826111
O           -4.34011152353347       -0.28938083122163       -0.34642816067193
C           -4.94238697174902        0.71813845539121       -1.22080325334674
N            1.38518599753170        0.31427859155092        1.78247598000568
C            2.32156186513697       -0.24694976852315        2.61786738381769
O            2.06853831595708       -0.37793767652164        3.81111727322755
C            3.62299067026754       -0.66032624338390        1.96370699604571
O            4.50079605846905       -1.18041184222014        2.67360225444884
H            7.82339768452351       -1.93581940406902        0.29350664125206
H            7.45163092713950       -0.62252404187505       -0.86016303670186
H            6.82763677827012       -2.26330845182346       -1.15365178888226
H           -0.56126578825783        3.01738388432903       -0.52560375915141
H           -0.02343892304895        2.61746946339685        1.11294604271149
H            1.15871386403387        3.11783123662406       -0.11186757358180
H           -0.08450470546763        1.44257644714487       -2.43207524332940
H            1.65742851615965        1.48696055536536       -2.08945473529689
H            0.80513691369072       -0.06574382595465       -2.13979841611727
H           -0.67391019505707       -0.46398809956782        0.60090991958001
H           -6.61487643294342       -2.51321644467021        0.80878092373730
H           -6.65381188227584       -1.80938063701952       -0.82502360121009
H           -6.95307349559550       -0.78148570261189        0.58087843108604
H           -4.46646617833425        0.62953897913390       -2.19526086128337
H           -4.75247637773800        1.69146136381548       -0.77332626469810
H           -6.00341799154736        0.49552810653597       -1.26783089665857
H            0.52151252325512        0.60830427429057        2.20253556763826

          :  Hamiltonian                  GFN1-xTB          :
         :: total energy             -82.914105840551 Eh    ::
         :: gradient norm              0.000609344032 Eh/a0 ::
         :: HOMO-LUMO gap              0.324311232885 eV    ::
         :: SCC energy               -83.698434913358 Eh    ::
         :: -> Gsolv                  -0.130977251302 Eh    ::
         :: repulsion energy           0.809992569927 Eh    ::

    * Orbital Energies and Occupations

         #    Occupation            Energy/Eh            Energy/eV
      -------------------------------------------------------------
         1        2.0000           -0.9651223             -26.2623
       ...           ...                  ...                  ...
        55        2.0000           -0.5060850             -13.7713
        56        2.0000           -0.5031664             -13.6919
        57        2.0000           -0.4981748             -13.5560
        58        2.0000           -0.4906441             -13.3511
        59        2.0000           -0.4823716             -13.1260
        60        2.0000           -0.4695179             -12.7762
        61        2.0000           -0.4679693             -12.7341
        62        2.0000           -0.4624978             -12.5852
        63        2.0000           -0.4469369             -12.1618
        64        2.0000           -0.4405805             -11.9888
        65        2.0000           -0.4243202             -11.5463
        66        2.0000           -0.3848928             -10.4735
        67        1.9962           -0.3724258             -10.1342 (HOMO)
        68        0.0038           -0.3605075              -9.8099 (LUMO)
        69                         -0.3108214              -8.4579
        70                         -0.2756230              -7.5001
        71                         -0.2480934              -6.7510
        72                         -0.2394431              -6.5156
        73                         -0.2023360              -5.5058
        74                         -0.1877356              -5.1085
        75                         -0.1737652              -4.7284
        76                         -0.1276849              -3.4745
        77                         -0.1250559              -3.4029
        78                         -0.1232118              -3.3528
       ...                                ...                  ...
       134                          0.7533611              20.5000
      -------------------------------------------------------------
                  HL-Gap            0.0119182 Eh            0.3243 eV

Wiberg/Mayer (AO) data.
largest (>0.10) Wiberg bond orders for each atom

     #   Z sym  total        # sym  WBO       # sym  WBO       # sym  WBO
 ---------------------------------------------------------------------------
     1   6 C    3.897 --    26 H    0.987    28 H    0.981    27 H    0.980
                             2 O    0.923
     2   8 O    2.164 --     3 C    1.054     1 C    0.923     4 O    0.111
     3   6 C    3.851 --     4 O    1.579     5 C    1.108     2 O    1.054
     4   8 O    1.853 --     3 C    1.579     2 O    0.111
     5   6 C    3.912 --    24 C    1.269     6 N    1.157     3 C    1.108
                            25 O    0.129
     6   7 N    3.033 --     7 C    1.638     5 C    1.157
     7   6 C    3.932 --     6 N    1.638    21 N    1.085     8 C    0.979
     8   6 C    3.910 --    10 C    0.993     9 C    0.983     7 C    0.979
                            11 N    0.888
     9   6 C    3.988 --    30 H    0.984    31 H    0.984     8 C    0.983
                            29 H    0.980
    10   6 C    3.990 --     8 C    0.993    34 H    0.985    32 H    0.984
                            33 H    0.982
    11   7 N    3.396 --    12 C    1.319    35 H    0.891     8 C    0.888
                            13 O    0.197
    12   6 C    3.928 --    13 O    1.572    11 N    1.319    14 C    0.965
    13   8 O    1.933 --    12 C    1.572    11 N    0.197
    14   6 C    3.795 --    15 N    1.704    12 C    0.965    19 O    0.885
    15   7 N    3.041 --    14 C    1.704    16 N    1.145
    16   7 N    3.024 --    17 C    1.700    15 N    1.145
    17   6 C    3.802 --    16 N    1.700    18 C    1.043    19 O    0.875
    18   6 C    3.970 --    17 C    1.043    36 H    0.970    37 H    0.951
                            38 H    0.951
    19   8 O    2.654 --    14 C    0.885    17 C    0.875    20 C    0.747
    20   6 C    3.725 --    41 H    0.975    40 H    0.968    39 H    0.968
                            19 O    0.747
    21   7 N    3.416 --    22 C    1.151     7 C    1.085    42 H    0.898
                            23 O    0.135
    22   6 C    3.875 --    23 O    1.587    21 N    1.151    24 C    0.965
    23   8 O    1.867 --    22 C    1.587    21 N    0.135
    24   6 C    3.942 --    25 O    1.527     5 C    1.269    22 C    0.965
    25   8 O    1.832 --    24 C    1.527     5 C    0.129
    26   1 H    1.015 --     1 C    0.987
    27   1 H    1.013 --     1 C    0.980
    28   1 H    1.013 --     1 C    0.981
    29   1 H    1.006 --     9 C    0.980
    30   1 H    1.001 --     9 C    0.984
    31   1 H    1.001 --     9 C    0.984
    32   1 H    1.007 --    10 C    0.984
    33   1 H    1.011 --    10 C    0.982
    34   1 H    1.007 --    10 C    0.985
    35   1 H    0.943 --    11 N    0.891
    36   1 H    0.989 --    18 C    0.970
    37   1 H    0.988 --    18 C    0.951
    38   1 H    0.988 --    18 C    0.951
    39   1 H    1.000 --    20 C    0.968
    40   1 H    0.999 --    20 C    0.968
    41   1 H    0.991 --    20 C    0.975
    42   1 H    0.944 --    21 N    0.898
 ---------------------------------------------------------------------------

           -------------------------------------------------
          | TOTAL ENERGY              -82.914105840551 Eh   |
          | GRADIENT NORM               0.000609344032 Eh/α |
          | HOMO-LUMO GAP               0.324311232885 eV   |
           -------------------------------------------------

 * finished run on 2023/06/21 at 17:29:42.182
