   * xtb version 6.5.1 (579679a) compiled by 'ehlert@majestix' on 2022-07-11
          program call               : /lustre/hpc/kemi/ree/PhD/git/ReactivityQM/dep/xtb-6.5.1/bin/xtb --gfn 1 /lustre/hpc/kemi/ree/PhD/git/ReactivityQM/calculations/R02methylcation/reac01prodN09/conf18/R02methylcation_reac01prodN09_conf18_gfn1.xyz --opt --vfukui --chrg 0 --uhf 0 --alpb DMSO

   ID    Z sym.   atoms
    1    6 C      1, 3, 4, 6, 8-11, 13, 15, 18, 19, 22, 24
    2    8 O      2, 5, 14, 20, 23, 25
    3    7 N      7, 12, 16, 17, 21
    4    1 H      26-42

      * Solvation model:               ALPB
        Solvent                        DMSO
        Solvent mass                       7.8130E+01 g/mol
          :  Hamiltonian                  GFN1-xTB          :
 * total energy  :   -82.8643780 Eh     change       -0.1243450E-08 Eh
 * total energy  :   -82.8805021 Eh     change       -0.1612418E-01 Eh
 * total energy  :   -82.8991362 Eh     change       -0.1863406E-01 Eh
 * total energy  :   -82.9156242 Eh     change       -0.1648801E-01 Eh
 * total energy  :   -82.9396465 Eh     change       -0.2402233E-01 Eh
 * total energy  :   -82.8208088 Eh     change        0.1188377E+00 Eh
 * total energy  :   -82.9581609 Eh     change       -0.1373521E+00 Eh
 * total energy  :   -82.9604729 Eh     change       -0.2311965E-02 Eh
 * total energy  :   -82.9637713 Eh     change       -0.3298450E-02 Eh
 * total energy  :   -82.9643294 Eh     change       -0.5580724E-03 Eh
 * total energy  :   -82.9732141 Eh     change       -0.8344225E-05 Eh
 * total energy  :   -82.9732373 Eh     change       -0.2315711E-04 Eh
 * total energy  :   -82.9732453 Eh     change       -0.8014160E-05 Eh
 * total energy  :   -82.9732546 Eh     change       -0.9274995E-05 Eh
 * total energy  :   -82.9732632 Eh     change       -0.8672527E-05 Eh
 * total energy  :   -82.9732689 Eh     change       -0.5681879E-05 Eh
 * total energy  :   -82.9732758 Eh     change       -0.6887041E-05 Eh
 * total energy  :   -82.9732852 Eh     change       -0.9415716E-05 Eh
 * total energy  :   -82.9732894 Eh     change       -0.4222477E-05 Eh
   *** GEOMETRY OPTIMIZATION CONVERGED AFTER 54 ITERATIONS ***

 final structure:
================
42
 xtb: 6.5.1 (579679a)
C           -3.56391906327834       -1.33147165610822        1.91967204080797
O           -3.32361538454700       -1.94353632206064        0.65162360399366
C           -3.61019707406123       -1.24815283270038       -0.48075561333956
C           -4.08723927619710       -2.16566150343550       -1.57992495041570
O           -4.15603212585746        0.00741114411755       -0.36566913061501
C           -2.80412841861408        0.03492362319375       -0.80188986348363
N           -1.87499586972085        0.42579431366175        0.18354659061397
C           -0.71513423700264        0.82591725125230       -0.15320759402339
C            0.27691609136337        1.28269946028256        0.89599969362840
C            0.23780116555902        2.81924015362735        0.91687392540740
C           -0.07034840242079        0.70075479947004        2.26795394833261
N            1.60307482704422        0.81264108809391        0.48061470270082
C            2.73626240666538        1.13556072676172        1.14817211804961
O            2.81353898975142        1.92230553453511        2.07474384025117
C            3.92902136691610        0.43838544431583        0.60778296001547
N            5.15846199053161        0.55198658483390        1.00363985196890
N            5.90384655387851       -0.27088389636793        0.21480780659134
C            5.08382751233501       -0.83746082836549       -0.61486386164420
C            5.40169690366209       -1.81829007031730       -1.67493508778525
O            3.81791853191993       -0.43242578991245       -0.41958130340319
N           -0.31338491178993        0.96678676025168       -1.47010860617114
C           -1.12891186371473        0.79799193175822       -2.55492091810429
O           -0.73908887236667        0.97917811283515       -3.68663959622193
C           -2.56562234478790        0.40541100077258       -2.21399061382181
O           -3.41451395279494        0.36273101396864       -3.07780595415758
H           -2.84952419303184       -0.52528443433013        2.10182016726840
H           -4.58154759270096       -0.93363972167370        1.96590638642479
H           -3.43353817030763       -2.11705751003714        2.66289315560083
H           -3.31976810538078       -2.90600624481782       -1.79434312866008
H           -4.97845271978836       -2.67983049658068       -1.22292691585663
H           -4.33364395128512       -1.60842673245138       -2.47888084857095
H           -0.78284788728787        3.14779800364275        1.10778113929676
H            0.56555421315645        3.21306325607770       -0.04337937472828
H            0.88623001876287        3.20369494286008        1.70123560434064
H            0.63997062623754        1.05814772008147        3.01133286470244
H           -1.07280207697726        1.01469107603731        2.55340549209466
H           -0.03367418275954       -0.38648567275434        2.23024402356175
H            1.64374778820723        0.03157673572611       -0.15276798138723
H            4.88962057041718       -2.75959225655700       -1.47511620635924
H            5.05757217357427       -1.44726644263829       -2.63996447058656
H            6.47558998201299       -1.98680438104667       -1.70818010008902
H            0.63227896466517        1.25958411403655       -1.66533079622234

          :  Hamiltonian                  GFN1-xTB          :
         :: total energy             -82.973289443729 Eh    ::
         :: gradient norm              0.000572577289 Eh/a0 ::
         :: HOMO-LUMO gap              2.361455901702 eV    ::
         :: SCC energy               -83.738748066149 Eh    ::
         :: -> Gsolv                  -0.057154897214 Eh    ::
         :: repulsion energy           0.791603193765 Eh    ::

    * Orbital Energies and Occupations

         #    Occupation            Energy/Eh            Energy/eV
      -------------------------------------------------------------
         1        2.0000           -0.8662930             -23.5730
       ...           ...                  ...                  ...
        55        2.0000           -0.5075679             -13.8116
        56        2.0000           -0.5061824             -13.7739
        57        2.0000           -0.5054084             -13.7529
        58        2.0000           -0.5028512             -13.6833
        59        2.0000           -0.4822186             -13.1218
        60        2.0000           -0.4806177             -13.0783
        61        2.0000           -0.4712984             -12.8247
        62        2.0000           -0.4651828             -12.6583
        63        2.0000           -0.4623681             -12.5817
        64        2.0000           -0.4527783             -12.3207
        65        2.0000           -0.4526572             -12.3174
        66        2.0000           -0.4473013             -12.1717
        67        2.0000           -0.4357014             -11.8560 (HOMO)
        68                         -0.3489195              -9.4946 (LUMO)
        69                         -0.3129658              -8.5162
        70                         -0.2893170              -7.8727
        71                         -0.2572350              -6.9997
        72                         -0.2323716              -6.3232
        73                         -0.2006276              -5.4594
        74                         -0.1430852              -3.8935
        75                         -0.1418806              -3.8608
        76                         -0.1328836              -3.6159
        77                         -0.1263329              -3.4377
        78                         -0.1238441              -3.3700
       ...                                ...                  ...
       134                          0.7545056              20.5311
      -------------------------------------------------------------
                  HL-Gap            0.0867819 Eh            2.3615 eV

Wiberg/Mayer (AO) data.
largest (>0.10) Wiberg bond orders for each atom

     #   Z sym  total        # sym  WBO       # sym  WBO       # sym  WBO
 ---------------------------------------------------------------------------
     1   6 C    3.875 --    28 H    0.984    27 H    0.981    26 H    0.974
                             2 O    0.898
     2   8 O    2.098 --     3 C    1.028     1 C    0.898
     3   6 C    3.830 --     2 O    1.028     4 C    0.990     5 O    0.941
                             6 C    0.730
     4   6 C    3.982 --     3 C    0.990    29 H    0.979    31 H    0.977
                            30 H    0.969
     5   8 O    1.984 --     3 C    0.941     6 C    0.858
     6   6 C    3.846 --    24 C    1.036     7 N    1.036     5 O    0.858
                             3 C    0.730
     7   7 N    3.043 --     8 C    1.707     6 C    1.036
     8   6 C    3.927 --     7 N    1.707    21 N    1.089     9 C    0.979
     9   6 C    3.934 --    11 C    0.990     8 C    0.979    10 C    0.974
                            12 N    0.925
    10   6 C    3.985 --    32 H    0.985    33 H    0.985    34 H    0.976
                             9 C    0.974
    11   6 C    3.988 --     9 C    0.990    37 H    0.985    36 H    0.982
                            35 H    0.981
    12   7 N    3.330 --    13 C    1.239     9 C    0.925    38 H    0.893
                            14 O    0.172
    13   6 C    3.914 --    14 O    1.597    12 N    1.239    15 C    0.994
    14   8 O    1.912 --    13 C    1.597    12 N    0.172
    15   6 C    3.873 --    16 N    1.622    20 O    1.046    13 C    0.994
    16   7 N    3.001 --    15 C    1.622    17 N    1.200
    17   7 N    2.982 --    18 C    1.609    16 N    1.200
    18   6 C    3.868 --    17 N    1.609    20 O    1.072    19 C    1.032
    19   6 C    3.986 --    18 C    1.032    41 H    0.982    40 H    0.964
                            39 H    0.962
    20   8 O    2.316 --    18 C    1.072    15 C    1.046
    21   7 N    3.429 --    22 C    1.168     8 C    1.089    42 H    0.879
                            23 O    0.145
    22   6 C    3.892 --    23 O    1.669    21 N    1.168    24 C    0.921
    23   8 O    1.950 --    22 C    1.669    21 N    0.145
    24   6 C    3.887 --    25 O    1.737     6 C    1.036    22 C    0.921
    25   8 O    1.998 --    24 C    1.737
    26   1 H    1.031 --     1 C    0.974
    27   1 H    1.007 --     1 C    0.981
    28   1 H    1.011 --     1 C    0.984
    29   1 H    0.999 --     4 C    0.979
    30   1 H    0.997 --     4 C    0.969
    31   1 H    1.008 --     4 C    0.977
    32   1 H    1.001 --    10 C    0.985
    33   1 H    1.000 --    10 C    0.985
    34   1 H    1.010 --    10 C    0.976
    35   1 H    1.005 --    11 C    0.981
    36   1 H    1.009 --    11 C    0.982
    37   1 H    1.003 --    11 C    0.985
    38   1 H    0.936 --    12 N    0.893
    39   1 H    0.997 --    19 C    0.962
    40   1 H    0.996 --    19 C    0.964
    41   1 H    0.998 --    19 C    0.982
    42   1 H    0.925 --    21 N    0.879
 ---------------------------------------------------------------------------

           -------------------------------------------------
          | TOTAL ENERGY              -82.973289443729 Eh   |
          | GRADIENT NORM               0.000572577289 Eh/α |
          | HOMO-LUMO GAP               2.361455901702 eV   |
           -------------------------------------------------

 * finished run on 2023/06/21 at 17:41:03.389
