   * xtb version 6.5.1 (579679a) compiled by 'ehlert@majestix' on 2022-07-11
          program call               : /lustre/hpc/kemi/ree/PhD/git/ReactivityQM/dep/xtb-6.5.1/bin/xtb --gfn 1 /lustre/hpc/kemi/ree/PhD/git/ReactivityQM/calculations/R02/reac01prodE14/conf03/R02_reac01prodE14_conf03_gfn1.xyz --opt --vfukui --chrg -1 --uhf 0 --alpb DMSO

   ID    Z sym.   atoms
    1    6 C      1, 3, 5, 7-10, 12, 14, 17, 18, 21, 23, 24
    2    8 O      2, 4, 13, 19, 22, 25
    3    7 N      6, 11, 15, 16, 20
    4    1 H      26-43

      * Solvation model:               ALPB
        Solvent                        DMSO
        Solvent mass                       7.8130E+01 g/mol
          :  Hamiltonian                  GFN1-xTB          :
 * total energy  :   -83.8672990 Eh     change       -0.9308110E-11 Eh
 * total energy  :   -83.8825501 Eh     change       -0.1525110E-01 Eh
 * total energy  :   -83.8885697 Eh     change       -0.6019571E-02 Eh
 * total energy  :   -83.8893807 Eh     change       -0.8110115E-03 Eh
 * total energy  :   -83.8898213 Eh     change       -0.4405711E-03 Eh
 * total energy  :   -83.8900016 Eh     change       -0.1803294E-03 Eh
 * total energy  :   -83.8901760 Eh     change       -0.1743922E-03 Eh
 * total energy  :   -83.8903078 Eh     change       -0.1318074E-03 Eh
 * total energy  :   -83.8904114 Eh     change       -0.1035818E-03 Eh
 * total energy  :   -83.8904929 Eh     change       -0.8156724E-04 Eh
 * total energy  :   -83.8911101 Eh     change       -0.5911386E-05 Eh
 * total energy  :   -83.8911168 Eh     change       -0.6780999E-05 Eh
 * total energy  :   -83.8911225 Eh     change       -0.5660766E-05 Eh
 * total energy  :   -83.8891845 Eh     change        0.1938027E-02 Eh
 * total energy  :   -83.8909363 Eh     change       -0.1751807E-02 Eh
 * total energy  :   -83.8910939 Eh     change       -0.1575984E-03 Eh
 * total energy  :   -83.8911370 Eh     change       -0.4313755E-04 Eh
 * total energy  :   -83.8911445 Eh     change       -0.7445293E-05 Eh
 * total energy  :   -83.8911489 Eh     change       -0.4429980E-05 Eh
   *** GEOMETRY OPTIMIZATION CONVERGED AFTER 40 ITERATIONS ***

 final structure:
================
43
 xtb: 6.5.1 (579679a)
C           -6.14247310053456       -0.92573331825157       -0.97484698404349
O           -4.98612238860048       -0.11223137284681       -0.86673519020430
C           -3.91959175983572       -0.69717595421024       -0.16823705255390
O           -4.07027699515352       -1.82873420736710        0.31213751785081
C           -2.77258338972167        0.11546649763819       -0.10217081261112
N           -1.71113959139065       -0.40656515055774        0.58028695539003
C           -0.61624040638827        0.23543932271215        0.74452289041167
C            0.54334305238132       -0.35365732942886        1.51506299155277
C            0.32854484270095       -1.85996016830974        1.69683354589991
C            0.68751212624376        0.34784064177019        2.87521344028178
N            1.76517351945159       -0.12430088406925        0.72024176787545
C            2.99579460281477       -0.51298765778595        1.09075968262928
O            3.29224092024995       -1.07457580686953        2.13313608498495
C            3.99498361991685       -0.16207049292711        0.04174953302875
N            3.74144104852774        0.44034600360870       -1.08076385414711
N            4.92904062217769        0.56071311351431       -1.74027228943631
C            5.83020426985721        0.02218638976463       -0.97766096895680
C            7.27886580649851       -0.10988002244942       -1.24804734801346
O            5.30362959151316       -0.45245626386329        0.16167354724036
N           -0.45246915375577        1.55552509296502        0.26324841253264
C           -1.40406741391788        2.23820871722972       -0.40898060298922
O           -1.20985496034739        3.40193011689215       -0.75205119894317
C           -2.70089046645209        1.48404906939729       -0.76470317612908
C           -2.72745190821284        1.37547271561806       -2.30769340149193
O           -3.76580397306702        2.33958728519351       -0.33787235716128
H           -5.91582447761489       -1.86292085045177       -1.49680893866234
H           -6.55027268943555       -1.16466740129821        0.01436795642863
H           -6.88169516930209       -0.36383801540954       -1.54577884250289
H           -0.63022500454468       -2.02869365657345        2.18606993776810
H            0.31655167812095       -2.35219849941329        0.72497492759168
H            1.12204076569466       -2.28873413929989        2.30560506348323
H            0.89071622459173        1.40744492033634        2.72921838683823
H           -0.24048453586620        0.23934712655711        3.43513847109647
H            1.50064406956538       -0.09091840499084        3.45057030975600
H            1.66644245860183        0.30288989086748       -0.18947038720326
H            7.53225673925022        0.43583781911945       -2.15300608713435
H            7.85318410952819        0.28026391720687       -0.40928062314443
H            7.53894140725140       -1.16063019067675       -1.37561933696918
H            0.39244038626397        2.05572599301558        0.48356102752627
H           -2.63986383447128        2.36958523318985       -2.74562798288780
H           -3.66232253119772        0.92526753702077       -2.63366819418727
H           -1.89815993141000        0.75688523842919       -2.64717737103345
H           -4.60617917998335        1.90056614500384       -0.53790044975769

          :  Hamiltonian                  GFN1-xTB          :
         :: total energy             -83.891148894622 Eh    ::
         :: gradient norm              0.000564186066 Eh/a0 ::
         :: HOMO-LUMO gap              0.781298996370 eV    ::
         :: SCC energy               -84.656206008157 Eh    ::
         :: -> Gsolv                  -0.115675467730 Eh    ::
         :: repulsion energy           0.791440847939 Eh    ::

    * Orbital Energies and Occupations

         #    Occupation            Energy/Eh            Energy/eV
      -------------------------------------------------------------
         1        2.0000           -0.8589980             -23.3745
       ...           ...                  ...                  ...
        56        2.0000           -0.4753834             -12.9358
        57        2.0000           -0.4705065             -12.8031
        58        2.0000           -0.4565587             -12.4236
        59        2.0000           -0.4541311             -12.3575
        60        2.0000           -0.4466192             -12.1531
        61        2.0000           -0.4457484             -12.1294
        62        2.0000           -0.4440532             -12.0833
        63        2.0000           -0.4362546             -11.8711
        64        2.0000           -0.4293844             -11.6841
        65        2.0000           -0.4217333             -11.4759
        66        2.0000           -0.4071706             -11.0797
        67        2.0000           -0.3876501             -10.5485
        68        2.0000           -0.3314170              -9.0183 (HOMO)
        69        0.0000           -0.3027047              -8.2370 (LUMO)
        70                         -0.2528517              -6.8804
        71                         -0.2459698              -6.6932
        72                         -0.2022498              -5.5035
        73                         -0.1909462              -5.1959
        74                         -0.1440323              -3.9193
        75                         -0.1407089              -3.8289
        76                         -0.1146853              -3.1207
        77                         -0.1125159              -3.0617
        78                         -0.1097515              -2.9865
        79                         -0.0988792              -2.6906
       ...                                ...                  ...
       136                          0.7320754              19.9208
      -------------------------------------------------------------
                  HL-Gap            0.0287122 Eh            0.7813 eV

Wiberg/Mayer (AO) data.
largest (>0.10) Wiberg bond orders for each atom

     #   Z sym  total        # sym  WBO       # sym  WBO       # sym  WBO
 ---------------------------------------------------------------------------
     1   6 C    3.907 --    28 H    0.987    26 H    0.981    27 H    0.981
                             2 O    0.935
     2   8 O    2.103 --     3 C    0.942     1 C    0.935
     3   6 C    3.864 --     4 O    1.491     5 C    1.302     2 O    0.942
     4   8 O    1.795 --     3 C    1.491     5 C    0.111
     5   6 C    3.855 --     3 C    1.302     6 N    1.206    23 C    0.971
                             4 O    0.111     7 C    0.109
     6   7 N    3.056 --     7 C    1.623     5 C    1.206
     7   6 C    3.902 --     6 N    1.623    20 N    0.988     8 C    0.983
                             5 C    0.109
     8   6 C    3.925 --     9 C    0.994     7 C    0.983    10 C    0.983
                            11 N    0.903
     9   6 C    3.993 --     8 C    0.994    30 H    0.986    31 H    0.984
                            29 H    0.983
    10   6 C    3.989 --    33 H    0.986    32 H    0.985     8 C    0.983
                            34 H    0.981
    11   7 N    3.361 --    12 C    1.278     8 C    0.903    35 H    0.898
                            13 O    0.183
    12   6 C    3.921 --    13 O    1.580    11 N    1.278    14 C    0.982
    13   8 O    1.899 --    12 C    1.580    11 N    0.183
    14   6 C    3.871 --    15 N    1.615    19 O    1.063    12 C    0.982
    15   7 N    3.015 --    14 C    1.615    16 N    1.195
    16   7 N    2.980 --    17 C    1.611    15 N    1.195
    17   6 C    3.873 --    16 N    1.611    19 O    1.081    18 C    1.031
    18   6 C    3.987 --    17 C    1.031    36 H    0.983    37 H    0.967
                            38 H    0.961
    19   8 O    2.327 --    17 C    1.081    14 C    1.063
    20   7 N    3.391 --    21 C    1.235     7 C    0.988    39 H    0.903
                            22 O    0.143
    21   6 C    3.883 --    22 O    1.581    20 N    1.235    23 C    0.935
    22   8 O    1.858 --    21 C    1.581    20 N    0.143
    23   6 C    3.912 --     5 C    0.971    24 C    0.967    21 C    0.935
                            25 O    0.934
    24   6 C    3.995 --    42 H    0.988    40 H    0.986    41 H    0.983
                            23 C    0.967
    25   8 O    1.881 --    23 C    0.934    43 H    0.855
    26   1 H    1.018 --     1 C    0.981
    27   1 H    1.018 --     1 C    0.981
    28   1 H    1.017 --     1 C    0.987
    29   1 H    1.017 --     9 C    0.983
    30   1 H    1.009 --     9 C    0.986
    31   1 H    1.011 --     9 C    0.984
    32   1 H    1.005 --    10 C    0.985
    33   1 H    1.006 --    10 C    0.986
    34   1 H    1.011 --    10 C    0.981
    35   1 H    0.960 --    11 N    0.898
    36   1 H    0.999 --    18 C    0.983
    37   1 H    0.997 --    18 C    0.967
    38   1 H    0.997 --    18 C    0.961
    39   1 H    0.950 --    20 N    0.903
    40   1 H    1.012 --    24 C    0.986
    41   1 H    1.017 --    24 C    0.983
    42   1 H    1.011 --    24 C    0.988
    43   1 H    0.900 --    25 O    0.855
 ---------------------------------------------------------------------------

           -------------------------------------------------
          | TOTAL ENERGY              -83.891148894622 Eh   |
          | GRADIENT NORM               0.000564186066 Eh/α |
          | HOMO-LUMO GAP               0.781298996370 eV   |
           -------------------------------------------------

 * finished run on 2023/06/20 at 15:16:07.926
