   * xtb version 6.5.1 (579679a) compiled by 'ehlert@majestix' on 2022-07-11
          program call               : /lustre/hpc/kemi/ree/PhD/git/ReactivityQM/dep/xtb-6.5.1/bin/xtb --gfn 1 /lustre/hpc/kemi/ree/PhD/git/ReactivityQM/calculations/R02methylcation/reac01prodE08/conf14/R02methylcation_reac01prodE08_conf14_gfn1.xyz --opt --vfukui --chrg -2 --uhf 0 --alpb DMSO

   ID    Z sym.   atoms
    1    6 C      1, 3, 5, 7-10, 12, 14, 15, 18, 19, 22, 24
    2    8 O      2, 4, 13, 20, 23, 25
    3    7 N      6, 11, 16, 17, 21
    4    1 H      26-42

      * Solvation model:               ALPB
        Solvent                        DMSO
        Solvent mass                       7.8130E+01 g/mol
          :  Hamiltonian                  GFN1-xTB          :
 * total energy  :   -83.6226451 Eh     change       -0.9649170E-11 Eh
 * total energy  :   -83.6361581 Eh     change       -0.1351302E-01 Eh
 * total energy  :   -83.6411588 Eh     change       -0.5000732E-02 Eh
 * total energy  :   -83.6422620 Eh     change       -0.1103181E-02 Eh
 * total energy  :   -83.6431870 Eh     change       -0.9250025E-03 Eh
 * total energy  :   -83.6436615 Eh     change       -0.4745230E-03 Eh
 * total energy  :   -83.6439809 Eh     change       -0.3193614E-03 Eh
 * total energy  :   -83.6442536 Eh     change       -0.2726916E-03 Eh
 * total energy  :   -83.6445930 Eh     change       -0.3393932E-03 Eh
 * total energy  :   -83.6455595 Eh     change       -0.9665269E-03 Eh
 * total energy  :   -83.6736297 Eh     change       -0.9291064E-05 Eh
 * total energy  :   -83.6736388 Eh     change       -0.9103047E-05 Eh
 * total energy  :   -83.6736476 Eh     change       -0.8772260E-05 Eh
 * total energy  :   -83.6736560 Eh     change       -0.8385733E-05 Eh
 * total energy  :   -83.6736679 Eh     change       -0.1196102E-04 Eh
 * total energy  :   -83.6736779 Eh     change       -0.9964554E-05 Eh
 * total energy  :   -83.6736852 Eh     change       -0.7304949E-05 Eh
 * total energy  :   -83.6736986 Eh     change       -0.1339457E-04 Eh
 * total energy  :   -83.6737025 Eh     change       -0.3884997E-05 Eh
   *** GEOMETRY OPTIMIZATION CONVERGED AFTER 68 ITERATIONS ***

 final structure:
================
42
 xtb: 6.5.1 (579679a)
C           -6.02399907129534        1.45408088363920       -1.19239177350137
O           -4.78974655984267        0.89197324286398       -0.78087855537570
C           -4.70905533785552       -0.47854021889987       -0.85989456648400
O           -5.67121973064682       -1.12030891420819       -1.26210139609277
C           -3.42259178454801       -0.98784317713687       -0.43190092936374
N           -2.50803926894274       -0.02540527185701       -0.02927113337591
C           -1.33402737767287       -0.37290327649115        0.35598001289393
C           -0.31685024561519        0.64834098954252        0.84617649284009
C           -0.50306850940298        1.94683236895479        0.04230268875433
C           -0.61867135664436        0.90378049255279        2.33891292116932
N            1.00887975939344        0.06371883681471        0.66090529884546
C            2.04542514774900        0.77019256622979        1.01966324505456
O            2.11894896084412        1.91165620421757        1.53381378945711
C            3.40565029446354        0.02105936075547        0.76183988120434
C            4.33041381575618        0.16254756499250        1.97124222254698
N            3.21387651089465       -1.40076943903300        0.42784827859338
N            3.69383520578968       -1.57260368229958       -0.90422806072332
C            4.16692707085071       -0.45324896937955       -1.27608127691397
C            4.82398334868340       -0.18935394423932       -2.58504419428251
O            4.06630563080110        0.56711828878669       -0.39800617132242
N           -0.95014206364524       -1.69306888080664        0.39851325104175
C           -1.73960842998908       -2.74232265847109        0.03607874961071
O           -1.30818398159832       -3.89729427960941        0.09885035543237
C           -3.13038063769680       -2.37764998218542       -0.43169680386196
O           -3.90628544548117       -3.29210387829054       -0.78077352843539
H           -6.85022179328555        1.07664729197329       -0.58033921072898
H           -6.23107124618866        1.21908455707143       -2.24208356606942
H           -5.94302290485931        2.53359286011259       -1.06958472476677
H           -0.24509921928947        1.77902425676796       -1.00398425123623
H            0.12972002799123        2.73805648010264        0.44107988358746
H           -1.54509651478092        2.26462688344542        0.09885396925510
H           -0.45273087775864       -0.00826771276522        2.91237688188532
H            0.02937605275905        1.68802452843763        2.72770825445692
H           -1.65798305678479        1.21167781550994        2.45898518380287
H            2.20030402223797       -1.59423644746678        0.39039503160424
H            3.89789276252699       -0.36905783576263        2.81695207347601
H            5.30863298293951       -0.25894227426038        1.74684315431666
H            4.43829532891082        1.21638685786283        2.22524904648925
H            4.30669230629563        0.61097025111996       -3.11333127325810
H            5.85472513244750        0.12554661734900       -2.42616594049918
H            4.81378885113508       -1.09169476513327       -3.19144967317136
H            0.00342020134996       -1.87932359080411        0.69019936313605

          :  Hamiltonian                  GFN1-xTB          :
         :: total energy             -83.673702477174 Eh    ::
         :: gradient norm              0.000316465545 Eh/a0 ::
         :: HOMO-LUMO gap              2.440416300705 eV    ::
         :: SCC energy               -84.413551332436 Eh    ::
         :: -> Gsolv                  -0.261938821012 Eh    ::
         :: repulsion energy           0.766062929635 Eh    ::

    * Orbital Energies and Occupations

         #    Occupation            Energy/Eh            Energy/eV
      -------------------------------------------------------------
         1        2.0000           -0.7898662             -21.4934
       ...           ...                  ...                  ...
        56        2.0000           -0.4472589             -12.1705
        57        2.0000           -0.4417279             -12.0200
        58        2.0000           -0.4373037             -11.8996
        59        2.0000           -0.4252803             -11.5725
        60        2.0000           -0.4230252             -11.5111
        61        2.0000           -0.4189206             -11.3994
        62        2.0000           -0.3957740             -10.7696
        63        2.0000           -0.3915625             -10.6550
        64        2.0000           -0.3671452              -9.9905
        65        2.0000           -0.3593577              -9.7786
        66        2.0000           -0.3502745              -9.5315
        67        2.0000           -0.3481178              -9.4728
        68        2.0000           -0.3454143              -9.3992 (HOMO)
        69                         -0.2557306              -6.9588 (LUMO)
        70                         -0.2147103              -5.8426
        71                         -0.2138324              -5.8187
        72                         -0.1819841              -4.9520
        73                         -0.1668011              -4.5389
        74                         -0.1255703              -3.4169
        75                         -0.1174524              -3.1960
        76                         -0.0965999              -2.6286
        77                         -0.0929011              -2.5280
        78                         -0.0872067              -2.3730
        79                         -0.0841723              -2.2904
       ...                                ...                  ...
       134                          0.7706519              20.9705
      -------------------------------------------------------------
                  HL-Gap            0.0896836 Eh            2.4404 eV

Wiberg/Mayer (AO) data.
largest (>0.10) Wiberg bond orders for each atom

     #   Z sym  total        # sym  WBO       # sym  WBO       # sym  WBO
 ---------------------------------------------------------------------------
     1   6 C    3.905 --    28 H    0.987    27 H    0.980    26 H    0.980
                             2 O    0.933
     2   8 O    2.130 --     3 C    1.012     1 C    0.933     4 O    0.105
     3   6 C    3.848 --     4 O    1.578     5 C    1.136     2 O    1.012
     4   8 O    1.856 --     3 C    1.578     2 O    0.105
     5   6 C    3.920 --    24 C    1.275     6 N    1.143     3 C    1.136
                            25 O    0.129
     6   7 N    3.017 --     7 C    1.628     5 C    1.143
     7   6 C    3.922 --     6 N    1.628    21 N    1.105     8 C    0.973
     8   6 C    3.973 --     9 C    0.984    11 N    0.982     7 C    0.973
                            10 C    0.969
     9   6 C    3.996 --    29 H    0.987    31 H    0.986     8 C    0.984
                            30 H    0.983
    10   6 C    3.994 --    34 H    0.988    32 H    0.987    33 H    0.981
                             8 C    0.969
    11   7 N    2.938 --    12 C    1.528     8 C    0.982    13 O    0.212
    12   6 C    3.935 --    11 N    1.528    13 O    1.434    14 C    0.886
    13   8 O    1.794 --    12 C    1.434    11 N    0.212
    14   6 C    3.839 --    15 C    0.992    16 N    0.960    12 C    0.886
                            20 O    0.880
    15   6 C    3.996 --    14 C    0.992    37 H    0.987    36 H    0.986
                            38 H    0.983
    16   7 N    3.034 --    17 N    1.005    14 C    0.960    35 H    0.910
    17   7 N    2.969 --    18 C    1.748    16 N    1.005    20 O    0.124
    18   6 C    3.904 --    17 N    1.748    20 O    1.050    19 C    1.017
    19   6 C    3.994 --    18 C    1.017    41 H    0.986    39 H    0.972
                            40 H    0.971
    20   8 O    2.143 --    18 C    1.050    14 C    0.880    17 N    0.124
    21   7 N    3.450 --    22 C    1.187     7 C    1.105    42 H    0.885
                            23 O    0.136
    22   6 C    3.886 --    23 O    1.550    21 N    1.187    24 C    0.973
    23   8 O    1.829 --    22 C    1.550    21 N    0.136
    24   6 C    3.944 --    25 O    1.503     5 C    1.275    22 C    0.973
    25   8 O    1.807 --    24 C    1.503     5 C    0.129
    26   1 H    1.016 --     1 C    0.980
    27   1 H    1.016 --     1 C    0.980
    28   1 H    1.017 --     1 C    0.987
    29   1 H    1.011 --     9 C    0.987
    30   1 H    1.022 --     9 C    0.983
    31   1 H    1.021 --     9 C    0.986
    32   1 H    1.010 --    10 C    0.987
    33   1 H    1.020 --    10 C    0.981
    34   1 H    1.010 --    10 C    0.988
    35   1 H    1.014 --    16 N    0.910
    36   1 H    1.011 --    15 C    0.986
    37   1 H    1.011 --    15 C    0.987
    38   1 H    1.019 --    15 C    0.983
    39   1 H    1.003 --    19 C    0.972
    40   1 H    1.003 --    19 C    0.971
    41   1 H    1.004 --    19 C    0.986
    42   1 H    0.981 --    21 N    0.885
 ---------------------------------------------------------------------------

           -------------------------------------------------
          | TOTAL ENERGY              -83.673702477174 Eh   |
          | GRADIENT NORM               0.000316465545 Eh/α |
          | HOMO-LUMO GAP               2.440416300705 eV   |
           -------------------------------------------------

 * finished run on 2023/06/21 at 17:19:08.078
