   * xtb version 6.5.1 (579679a) compiled by 'ehlert@majestix' on 2022-07-11
          program call               : /lustre/hpc/kemi/ree/PhD/git/ReactivityQM/dep/xtb-6.5.1/bin/xtb --gfn 1 /lustre/hpc/kemi/ree/PhD/git/ReactivityQM/calculations/R01/reac02prodE06/conf18/R01_reac02prodE06_conf18_gfn1.xyz --opt --vfukui --chrg -1 --uhf 0 --alpb DMSO

   ID    Z sym.   atoms
    1    6 C      1, 3, 5, 6, 8, 9, 12-15
    2    8 O      2, 4, 7, 10
    3    7 N      11, 16, 17
    4    1 H      18-33

      * Solvation model:               ALPB
        Solvent                        DMSO
        Solvent mass                       7.8130E+01 g/mol
          :  Hamiltonian                  GFN1-xTB          :
 * total energy  :   -58.5331308 Eh     change       -0.9521273E-11 Eh
 * total energy  :   -58.5406780 Eh     change       -0.7547213E-02 Eh
 * total energy  :   -58.5436281 Eh     change       -0.2950083E-02 Eh
 * total energy  :   -58.5441895 Eh     change       -0.5613891E-03 Eh
 * total energy  :   -58.5445437 Eh     change       -0.3542568E-03 Eh
 * total energy  :   -58.5447216 Eh     change       -0.1778785E-03 Eh
 * total energy  :   -58.5448949 Eh     change       -0.1732693E-03 Eh
 * total energy  :   -58.5449960 Eh     change       -0.1011632E-03 Eh
 * total energy  :   -58.5450663 Eh     change       -0.7027744E-04 Eh
 * total energy  :   -58.5451252 Eh     change       -0.5885332E-04 Eh
 * total energy  :   -58.5451710 Eh     change       -0.4578897E-04 Eh
 * total energy  :   -58.5452032 Eh     change       -0.3224954E-04 Eh
 * total energy  :   -58.5452222 Eh     change       -0.1898247E-04 Eh
 * total energy  :   -58.5452325 Eh     change       -0.1026464E-04 Eh
 * total energy  :   -58.5452400 Eh     change       -0.7570974E-05 Eh
 * total energy  :   -58.5452452 Eh     change       -0.5174943E-05 Eh
 * total energy  :   -58.5452477 Eh     change       -0.2455274E-05 Eh
 * total energy  :   -58.5452501 Eh     change       -0.2484885E-05 Eh
   *** GEOMETRY OPTIMIZATION CONVERGED AFTER 18 ITERATIONS ***

 final structure:
================
33
 xtb: 6.5.1 (579679a)
C            3.36615273939337       -2.25492350998384        2.22273045239971
O            2.26754931713760       -1.65891916146853        1.54292615509697
C            2.57590749346262       -0.68107094805780        0.66304936070264
O            3.74869095329360       -0.35249228097604        0.47547006013846
C            1.43359228635575       -0.07797592150401        0.00165889870758
C            1.59463325059735        0.93411512779956       -0.90204447505334
O            2.79856100313033        1.42053257278168       -1.24390269678452
C            0.39800938336369        1.51679126340317       -1.71343376795795
C            0.52504103608417        3.07558384855126       -1.70880546622148
O            0.23974372454131        0.97129817109069       -2.87426559302888
N           -0.80696548938675        1.24203827017178       -0.76345208122197
C           -0.86798826160535        0.07470897166313       -0.08112977460633
C           -2.25258022707940       -0.46817486346093        0.26743067767686
C           -2.14636697606870       -1.45776059478782        1.43371830970170
C           -2.83384665052592       -1.16650774446881       -0.96959842245922
N           -3.16926023421010        0.60419975468269        0.66114293217166
N            0.16205253278533       -0.58339701300648        0.33611702662594
H            2.95391644282233       -3.00057616876540        2.90101740372780
H            3.92041844765321       -1.50148090353135        2.79013679271319
H            4.04584030029882       -2.73338846615449        1.51133952892826
H            3.50849434969044        0.95203920040987       -0.74559400743582
H            0.57072061083953        3.46065950371767       -0.69178270577013
H           -0.33837816969903        3.49727827738313       -2.21918885026170
H            1.42790685525708        3.35704481812149       -2.24862549925840
H           -1.67677595733416        1.55547737524555       -1.16888658261991
H           -1.50785940129788       -2.29769851738921        1.15914605265376
H           -1.71240636549636       -0.96458902355493        2.30363255959622
H           -3.13673387027870       -1.82859842617033        1.69642297754780
H           -2.87199497765115       -0.47351235136629       -1.81038335087994
H           -3.84425491321231       -1.51687530013362       -0.75977842735934
H           -2.21421463659827       -2.01987905289762       -1.24647698650577
H           -2.71915117369285        1.22185405299239        1.32443887647796
H           -3.43845142256927        1.15420103966338       -0.14303037744139

          :  Hamiltonian                  GFN1-xTB          :
         :: total energy             -58.545250137472 Eh    ::
         :: gradient norm              0.000650837843 Eh/a0 ::
         :: HOMO-LUMO gap              2.241758190210 eV    ::
         :: SCC energy               -59.082328796894 Eh    ::
         :: -> Gsolv                  -0.107362228369 Eh    ::
         :: repulsion energy           0.555793588986 Eh    ::

    * Orbital Energies and Occupations

         #    Occupation            Energy/Eh            Energy/eV
      -------------------------------------------------------------
         1        2.0000           -0.8071609             -21.9640
       ...           ...                  ...                  ...
        36        2.0000           -0.4733681             -12.8810
        37        2.0000           -0.4719103             -12.8413
        38        2.0000           -0.4677738             -12.7288
        39        2.0000           -0.4611446             -12.5484
        40        2.0000           -0.4554297             -12.3929
        41        2.0000           -0.4476870             -12.1822
        42        2.0000           -0.4378345             -11.9141
        43        2.0000           -0.4153838             -11.3032
        44        2.0000           -0.3959316             -10.7738
        45        2.0000           -0.3801099             -10.3433
        46        2.0000           -0.3616751              -9.8417
        47        2.0000           -0.3470639              -9.4441
        48        2.0000           -0.3440924              -9.3632 (HOMO)
        49                         -0.2617093              -7.1215 (LUMO)
        50                         -0.2135984              -5.8123
        51                         -0.1306907              -3.5563
        52                         -0.1253143              -3.4100
        53                         -0.1072860              -2.9194
        54                         -0.1060860              -2.8867
        55                         -0.0885601              -2.4098
        56                         -0.0857189              -2.3325
        57                         -0.0627664              -1.7080
        58                         -0.0617791              -1.6811
        59                         -0.0590735              -1.6075
       ...                                ...                  ...
       100                          0.6985420              19.0083
      -------------------------------------------------------------
                  HL-Gap            0.0823831 Eh            2.2418 eV

Wiberg/Mayer (AO) data.
largest (>0.10) Wiberg bond orders for each atom

     #   Z sym  total        # sym  WBO       # sym  WBO       # sym  WBO
 ---------------------------------------------------------------------------
     1   6 C    3.893 --    18 H    0.987    20 H    0.980    19 H    0.980
                             2 O    0.918
     2   8 O    2.169 --     3 C    1.066     1 C    0.918     4 O    0.106
     3   6 C    3.839 --     4 O    1.541     5 C    1.107     2 O    1.066
     4   8 O    1.897 --     3 C    1.541     2 O    0.106
     5   6 C    3.946 --     6 C    1.537     3 C    1.107    17 N    1.070
     6   6 C    3.863 --     5 C    1.537     7 O    1.107     8 C    0.900
     7   8 O    2.079 --     6 C    1.107    21 H    0.790
     8   6 C    3.924 --    10 O    1.242     9 C    0.938     6 C    0.900
                            11 N    0.775
     9   6 C    3.992 --    22 H    0.991    23 H    0.987    24 H    0.986
                             8 C    0.938
    10   8 O    1.545 --     8 C    1.242
    11   7 N    3.259 --    12 C    1.229    25 H    0.922     8 C    0.775
                            17 N    0.155
    12   6 C    3.948 --    17 N    1.592    11 N    1.229    13 C    0.961
    13   6 C    3.965 --    14 C    0.998    15 C    0.988    16 N    0.978
                            12 C    0.961
    14   6 C    3.997 --    13 C    0.998    28 H    0.988    27 H    0.986
                            26 H    0.985
    15   6 C    3.996 --    13 C    0.988    31 H    0.987    30 H    0.986
                            29 H    0.984
    16   7 N    2.951 --    13 C    0.978    32 H    0.948    33 H    0.946
    17   7 N    2.969 --    12 C    1.592     5 C    1.070    11 N    0.155
    18   1 H    1.015 --     1 C    0.987
    19   1 H    1.013 --     1 C    0.980
    20   1 H    1.012 --     1 C    0.980
    21   1 H    0.876 --     7 O    0.790
    22   1 H    1.014 --     9 C    0.991
    23   1 H    1.013 --     9 C    0.987
    24   1 H    1.016 --     9 C    0.986
    25   1 H    0.968 --    11 N    0.922
    26   1 H    1.021 --    14 C    0.985
    27   1 H    1.012 --    14 C    0.986
    28   1 H    1.011 --    14 C    0.988
    29   1 H    1.005 --    15 C    0.984
    30   1 H    1.006 --    15 C    0.986
    31   1 H    1.007 --    15 C    0.987
    32   1 H    0.966 --    16 N    0.948
    33   1 H    0.964 --    16 N    0.946
 ---------------------------------------------------------------------------

           -------------------------------------------------
          | TOTAL ENERGY              -58.545250137472 Eh   |
          | GRADIENT NORM               0.000650837843 Eh/α |
          | HOMO-LUMO GAP               2.241758190210 eV   |
           -------------------------------------------------

 * finished run on 2023/06/20 at 15:00:30.079
