   * xtb version 6.5.1 (579679a) compiled by 'ehlert@majestix' on 2022-07-11
          program call               : /lustre/hpc/kemi/ree/PhD/git/ReactivityQM/dep/xtb-6.5.1/bin/xtb --gfn 1 /lustre/hpc/kemi/ree/PhD/git/ReactivityQM/calculations/R01/reac01prodN05/conf05/R01_reac01prodN05_conf05_gfn1.xyz --opt --vfukui --chrg 1 --uhf 0 --alpb DMSO

   ID    Z sym.   atoms
    1    6 C      1, 3, 4, 6, 9, 10
    2    8 O      2, 5, 11
    3    7 N      7, 8
    4    1 H      12-20

      * Solvation model:               ALPB
        Solvent                        DMSO
        Solvent mass                       7.8130E+01 g/mol
          :  Hamiltonian                  GFN1-xTB          :
 * total energy  :   -37.4548242 Eh     change       -0.3466027E-10 Eh
 * total energy  :   -37.4696857 Eh     change       -0.1486156E-01 Eh
 * total energy  :   -37.4797199 Eh     change       -0.1003416E-01 Eh
 * total energy  :   -37.4835496 Eh     change       -0.3829713E-02 Eh
 * total energy  :   -37.4941559 Eh     change       -0.1060628E-01 Eh
 * total energy  :   -37.4909123 Eh     change        0.3243549E-02 Eh
 * total energy  :   -37.5054802 Eh     change       -0.1456783E-01 Eh
 * total energy  :   -37.5114917 Eh     change       -0.6011550E-02 Eh
 * total energy  :   -37.5325373 Eh     change       -0.2104560E-01 Eh
 * total energy  :   -37.5461664 Eh     change       -0.1362904E-01 Eh
 * total energy  :   -37.6285302 Eh     change        0.1158167E-04 Eh
 * total energy  :   -37.6286126 Eh     change       -0.8236300E-04 Eh
 * total energy  :   -37.6286332 Eh     change       -0.2066714E-04 Eh
 * total energy  :   -37.6286494 Eh     change       -0.1613073E-04 Eh
 * total energy  :   -37.6286638 Eh     change       -0.1442775E-04 Eh
 * total energy  :   -37.6286725 Eh     change       -0.8668831E-05 Eh
 * total energy  :   -37.6286779 Eh     change       -0.5441309E-05 Eh
 * total energy  :   -37.6286826 Eh     change       -0.4718059E-05 Eh
 * total energy  :   -37.6286867 Eh     change       -0.4086581E-05 Eh
   *** GEOMETRY OPTIMIZATION CONVERGED AFTER 83 ITERATIONS ***

 final structure:
================
20
 xtb: 6.5.1 (579679a)
C           -3.53144321670514        0.93126739238151        0.12898636506748
O           -2.83414081804651       -0.33267295297079        0.06264956417228
C           -1.57453059347636       -0.40523014024330       -0.05900687147939
C           -0.95083886096689       -1.73621509683951       -0.10347142917818
O           -0.91947976607989        0.71864771695828       -0.13231612826122
C            0.41642948443526        0.89721151359028       -0.24086068789262
N            0.98826157113317        2.04756811353293       -0.30296147571385
N            2.32190067308277        1.78374847610279       -0.39743555846743
C            2.46720785796606        0.49757563148893       -0.38591847292313
C            3.71568781693466       -0.28499376051961       -0.46503334284582
O            1.26960246341308       -0.13429197247315       -0.28630458244202
H           -3.09781046334235        1.53838965754862        0.92320515572729
H           -4.56928560770821        0.68240440690756        0.33983047183386
H           -3.43370560839543        1.43836293011729       -0.83109477100022
H           -0.37243286100602       -1.84103932600325       -1.02279363228115
H           -0.24783799795161       -1.83470355000807        0.72596001016266
H           -1.71802107442413       -2.50524980936817       -0.04374553079101
H            3.69812729918327       -0.92151750741292       -1.34994134485605
H            4.56687550875387        0.39053934422120       -0.51446731237853
H            3.80543419320082       -0.92980006701101        0.40928657354705

          :  Hamiltonian                  GFN1-xTB          :
         :: total energy             -37.628686722540 Eh    ::
         :: gradient norm              0.000787543830 Eh/a0 ::
         :: HOMO-LUMO gap              2.885674175779 eV    ::
         :: SCC energy               -37.975221463130 Eh    ::
         :: -> Gsolv                  -0.083939656037 Eh    ::
         :: repulsion energy           0.354547482411 Eh    ::

    * Orbital Energies and Occupations

         #    Occupation            Energy/Eh            Energy/eV
      -------------------------------------------------------------
         1        2.0000           -0.9498431             -25.8465
       ...           ...                  ...                  ...
        18        2.0000           -0.6239405             -16.9783
        19        2.0000           -0.5971969             -16.2506
        20        2.0000           -0.5937745             -16.1574
        21        2.0000           -0.5801538             -15.7868
        22        2.0000           -0.5685054             -15.4698
        23        2.0000           -0.5650305             -15.3753
        24        2.0000           -0.5613742             -15.2758
        25        2.0000           -0.5574124             -15.1680
        26        2.0000           -0.5504925             -14.9797
        27        2.0000           -0.5410283             -14.7221
        28        2.0000           -0.5164223             -14.0526
        29        2.0000           -0.4914604             -13.3733
        30        2.0000           -0.4847912             -13.1918 (HOMO)
        31                         -0.3787446             -10.3062 (LUMO)
        32                         -0.2949109              -8.0249
        33                         -0.2789838              -7.5915
        34                         -0.1798513              -4.8940
        35                         -0.1662951              -4.5251
        36                         -0.1544261              -4.2021
        37                         -0.1110624              -3.0222
        38                         -0.1087182              -2.9584
        39                         -0.1045678              -2.8454
        40                         -0.1035958              -2.8190
        41                         -0.0855908              -2.3290
       ...                                ...                  ...
        62                          0.5653354              15.3836
      -------------------------------------------------------------
                  HL-Gap            0.1060466 Eh            2.8857 eV

Wiberg/Mayer (AO) data.
largest (>0.10) Wiberg bond orders for each atom

     #   Z sym  total        # sym  WBO       # sym  WBO       # sym  WBO
 ---------------------------------------------------------------------------
     1   6 C    3.802 --    13 H    0.980    12 H    0.971    14 H    0.968
                             2 O    0.833
     2   8 O    2.349 --     3 C    1.343     1 C    0.833
     3   6 C    3.764 --     2 O    1.343     5 O    1.181     4 C    1.048
     4   6 C    3.958 --     3 C    1.048    17 H    0.972    15 H    0.929
                            16 H    0.926
     5   8 O    2.362 --     3 C    1.181     6 C    0.966
     6   6 C    3.814 --     7 N    1.608    11 O    1.063     5 O    0.966
     7   7 N    3.007 --     6 C    1.608     8 N    1.181
     8   7 N    2.983 --     9 C    1.629     7 N    1.181
     9   6 C    3.839 --     8 N    1.629    10 C    1.037    11 O    1.026
    10   6 C    3.978 --     9 C    1.037    19 H    0.979    20 H    0.957
                            18 H    0.956
    11   8 O    2.308 --     6 C    1.063     9 C    1.026
    12   1 H    0.994 --     1 C    0.971
    13   1 H    0.998 --     1 C    0.980
    14   1 H    0.993 --     1 C    0.968
    15   1 H    0.987 --     4 C    0.929
    16   1 H    0.987 --     4 C    0.926
    17   1 H    0.986 --     4 C    0.972
    18   1 H    0.992 --    10 C    0.956
    19   1 H    0.994 --    10 C    0.979
    20   1 H    0.992 --    10 C    0.957
 ---------------------------------------------------------------------------

           -------------------------------------------------
          | TOTAL ENERGY              -37.628686722540 Eh   |
          | GRADIENT NORM               0.000787543830 Eh/α |
          | HOMO-LUMO GAP               2.885674175779 eV   |
           -------------------------------------------------

 * finished run on 2023/06/20 at 14:56:03.523
