   * xtb version 6.5.1 (579679a) compiled by 'ehlert@majestix' on 2022-07-11
          program call               : /lustre/hpc/kemi/ree/PhD/git/ReactivityQM/dep/xtb-6.5.1/bin/xtb --gfn 1 /lustre/hpc/kemi/ree/PhD/git/ReactivityQM/calculations/R02methylcation/reac01prodN04/conf14/R02methylcation_reac01prodN04_conf14_gfn1.xyz --opt --vfukui --chrg 0 --uhf 0 --alpb DMSO

   ID    Z sym.   atoms
    1    6 C      1, 3, 5, 6, 8-11, 13, 15, 18, 19, 22, 24
    2    8 O      2, 4, 14, 20, 23, 25
    3    7 N      7, 12, 16, 17, 21
    4    1 H      26-42

      * Solvation model:               ALPB
        Solvent                        DMSO
        Solvent mass                       7.8130E+01 g/mol
          :  Hamiltonian                  GFN1-xTB          :
 * total energy  :   -82.9650585 Eh     change       -0.1149658E-10 Eh
 * total energy  :   -82.9815301 Eh     change       -0.1647164E-01 Eh
 * total energy  :   -82.9875705 Eh     change       -0.6040420E-02 Eh
 * total energy  :   -82.9893936 Eh     change       -0.1823066E-02 Eh
 * total energy  :   -82.9905693 Eh     change       -0.1175651E-02 Eh
 * total energy  :   -82.9912463 Eh     change       -0.6769911E-03 Eh
 * total energy  :   -82.9917981 Eh     change       -0.5518176E-03 Eh
 * total energy  :   -82.9922408 Eh     change       -0.4427035E-03 Eh
 * total energy  :   -82.9925239 Eh     change       -0.2831770E-03 Eh
 * total energy  :   -82.9927082 Eh     change       -0.1842898E-03 Eh
 * total energy  :   -83.0005522 Eh     change       -0.3186445E-04 Eh
 * total energy  :   -83.0005854 Eh     change       -0.3319252E-04 Eh
 * total energy  :   -83.0006068 Eh     change       -0.2133179E-04 Eh
 * total energy  :   -83.0006194 Eh     change       -0.1269131E-04 Eh
 * total energy  :   -83.0006339 Eh     change       -0.1449121E-04 Eh
 * total energy  :   -83.0006482 Eh     change       -0.1426226E-04 Eh
 * total energy  :   -83.0006561 Eh     change       -0.7855142E-05 Eh
 * total energy  :   -83.0006615 Eh     change       -0.5457784E-05 Eh
 * total energy  :   -83.0006663 Eh     change       -0.4815884E-05 Eh
   *** GEOMETRY OPTIMIZATION CONVERGED AFTER 122 ITERATIONS ***

 final structure:
================
42
 xtb: 6.5.1 (579679a)
C           -6.03229585602789       -0.53207949233315        1.57284820742768
O           -4.76029911077167       -1.06117314174014        1.19466786635138
C           -3.84332822236017       -0.25458451165831        0.70043371705460
O           -4.23488253823943        1.00711172295033        0.63259871826384
C           -3.46590075455916        2.08343354288938        0.09878396274081
C           -2.61109027788686       -0.78702317844518        0.31096426994553
N           -1.65100935246028        0.10225977418392       -0.16751437990320
C           -0.50311507729736       -0.32304991754650       -0.53399686998580
C            0.55589737570429        0.61789719406305       -1.06849531337963
C            0.25117874745756        2.06813280886561       -0.68791086191389
C            0.65146547311098        0.45953587758381       -2.58903516740362
N            1.84710269985312        0.22360653048355       -0.49805357336092
C            2.01782459923722        0.11038259547917        0.83846279319343
O            1.11716493651643        0.16552763513194        1.65879209826411
C            3.43011032795978       -0.12909380187985        1.22226251290812
N            3.90501391909769       -0.34083544666337        2.40991657328233
N            5.25224033856369       -0.49322255668755        2.27329628396409
C            5.51678706057757       -0.36444534789182        1.01052996821264
C            6.83675778942834       -0.43215334655512        0.34747494771768
O            4.40714287439962       -0.13418335355698        0.28964876042370
N           -0.15929929508434       -1.65561381145708       -0.51979436512460
C           -0.97816113140623       -2.65571041434315       -0.07412633903488
O           -0.61551558728805       -3.81854894215901       -0.08662832980939
C           -2.34350941829156       -2.20282901419887        0.42207303157043
O           -3.12065413096673       -3.04065529358026        0.86689401803241
H           -5.91352903420604        0.21925473984812        2.35597396990813
H           -6.61290282202279       -1.37529307868640        1.94311081097088
H           -6.52692091501382       -0.08188950677624        0.71001909883329
H           -3.17739159315809        1.87754892168428       -0.93278025946539
H           -2.57211858265004        2.25441295054601        0.70091043732320
H           -4.11638639911499        2.95718241952842        0.13829883677545
H           -0.66116569021130        2.39134168218933       -1.18502438360861
H            1.07266854187564        2.70899766116172       -1.00143128781760
H            0.11896211772721        2.15357360500409        0.39020554011027
H           -0.30621576796181        0.70601787659385       -3.04467565431935
H            0.91322835327976       -0.56534441700191       -2.84682706639789
H            1.41317042218907        1.12895733146573       -2.98393655675371
H            2.65473638378778        0.27036401334462       -1.09472424462905
H            7.60751780150961       -0.64828264320557        1.08338457767184
H            7.05316498311341        0.51790156244531       -0.14082690404834
H            6.83014019475361       -1.20787681922484       -0.41748615358090
H            0.75341561683713       -1.91955040987219       -0.85672129039005

          :  Hamiltonian                  GFN1-xTB          :
         :: total energy             -83.000666325678 Eh    ::
         :: gradient norm              0.000426729406 Eh/a0 ::
         :: HOMO-LUMO gap              2.366081489566 eV    ::
         :: SCC energy               -83.781235217793 Eh    ::
         :: -> Gsolv                  -0.074143442412 Eh    ::
         :: repulsion energy           0.807026500623 Eh    ::

    * Orbital Energies and Occupations

         #    Occupation            Energy/Eh            Energy/eV
      -------------------------------------------------------------
         1        2.0000           -0.8649420             -23.5363
       ...           ...                  ...                  ...
        55        2.0000           -0.5062259             -13.7751
        56        2.0000           -0.5047123             -13.7339
        57        2.0000           -0.4992466             -13.5852
        58        2.0000           -0.4927929             -13.4096
        59        2.0000           -0.4800723             -13.0634
        60        2.0000           -0.4754997             -12.9390
        61        2.0000           -0.4674766             -12.7207
        62        2.0000           -0.4612876             -12.5523
        63        2.0000           -0.4530868             -12.3291
        64        2.0000           -0.4517013             -12.2914
        65        2.0000           -0.4447653             -12.1027
        66        2.0000           -0.4182038             -11.3799
        67        2.0000           -0.4118432             -11.2068 (HOMO)
        68                         -0.3248913              -8.8407 (LUMO)
        69                         -0.3111961              -8.4681
        70                         -0.2701197              -7.3503
        71                         -0.2561503              -6.9702
        72                         -0.2453405              -6.6761
        73                         -0.1986542              -5.4057
        74                         -0.1533743              -4.1735
        75                         -0.1512136              -4.1147
        76                         -0.1425916              -3.8801
        77                         -0.1409675              -3.8359
        78                         -0.1320113              -3.5922
       ...                                ...                  ...
       134                          0.7557983              20.5663
      -------------------------------------------------------------
                  HL-Gap            0.0869519 Eh            2.3661 eV

Wiberg/Mayer (AO) data.
largest (>0.10) Wiberg bond orders for each atom

     #   Z sym  total        # sym  WBO       # sym  WBO       # sym  WBO
 ---------------------------------------------------------------------------
     1   6 C    3.863 --    27 H    0.984    26 H    0.978    28 H    0.978
                             2 O    0.890
     2   8 O    2.236 --     3 C    1.150     1 C    0.890
     3   6 C    3.833 --     6 C    1.339     2 O    1.150     4 O    1.129
     4   8 O    2.221 --     3 C    1.129     5 C    0.883
     5   6 C    3.854 --    31 H    0.981    29 H    0.976    30 H    0.976
                             4 O    0.883
     6   6 C    3.924 --     3 C    1.339    24 C    1.163     7 N    1.106
     7   7 N    3.045 --     8 C    1.655     6 C    1.106
     8   6 C    3.932 --     7 N    1.655    21 N    1.105     9 C    0.976
     9   6 C    3.937 --    10 C    0.991    11 C    0.985     8 C    0.976
                            12 N    0.924
    10   6 C    3.990 --     9 C    0.991    33 H    0.985    32 H    0.983
                            34 H    0.981
    11   6 C    3.988 --     9 C    0.985    35 H    0.984    36 H    0.983
                            37 H    0.982
    12   7 N    3.339 --    13 C    1.247     9 C    0.924    38 H    0.891
                            14 O    0.174
    13   6 C    3.916 --    14 O    1.590    12 N    1.247    15 C    0.994
    14   8 O    1.891 --    13 C    1.590    12 N    0.174
    15   6 C    3.873 --    16 N    1.622    20 O    1.048    13 C    0.994
    16   7 N    3.000 --    15 C    1.622    17 N    1.199
    17   7 N    2.981 --    18 C    1.610    16 N    1.199
    18   6 C    3.868 --    17 N    1.610    20 O    1.073    19 C    1.032
    19   6 C    3.986 --    18 C    1.032    39 H    0.982    41 H    0.963
                            40 H    0.962
    20   8 O    2.317 --    18 C    1.073    15 C    1.048
    21   7 N    3.440 --    22 C    1.167     8 C    1.105    42 H    0.887
                            23 O    0.139
    22   6 C    3.884 --    23 O    1.631    21 N    1.167    24 C    0.940
    23   8 O    1.909 --    22 C    1.631    21 N    0.139
    24   6 C    3.919 --    25 O    1.631     6 C    1.163    22 C    0.940
    25   8 O    1.916 --    24 C    1.631
    26   1 H    1.006 --     1 C    0.978
    27   1 H    1.009 --     1 C    0.984
    28   1 H    1.005 --     1 C    0.978
    29   1 H    1.020 --     5 C    0.976
    30   1 H    1.020 --     5 C    0.976
    31   1 H    1.008 --     5 C    0.981
    32   1 H    1.006 --    10 C    0.983
    33   1 H    1.001 --    10 C    0.985
    34   1 H    1.009 --    10 C    0.981
    35   1 H    1.000 --    11 C    0.984
    36   1 H    0.999 --    11 C    0.983
    37   1 H    0.996 --    11 C    0.982
    38   1 H    0.932 --    12 N    0.891
    39   1 H    0.998 --    19 C    0.982
    40   1 H    0.996 --    19 C    0.962
    41   1 H    0.996 --    19 C    0.963
    42   1 H    0.938 --    21 N    0.887
 ---------------------------------------------------------------------------

           -------------------------------------------------
          | TOTAL ENERGY              -83.000666325678 Eh   |
          | GRADIENT NORM               0.000426729406 Eh/α |
          | HOMO-LUMO GAP               2.366081489566 eV   |
           -------------------------------------------------

 * finished run on 2023/06/21 at 17:34:07.930
