   * xtb version 6.5.1 (579679a) compiled by 'ehlert@majestix' on 2022-07-11
          program call               : /lustre/hpc/kemi/ree/PhD/git/ReactivityQM/dep/xtb-6.5.1/bin/xtb --gfn 1 /lustre/hpc/kemi/ree/PhD/git/ReactivityQM/calculations/R02oxygendeprot/reac01prodN03/conf03/R02oxygendeprot_reac01prodN03_conf03_gfn1.xyz --opt --vfukui --chrg 0 --uhf 0 --alpb DMSO

   ID    Z sym.   atoms
    1    6 C      1, 3, 5, 6, 8-11, 13, 15, 18, 19, 22, 24
    2    8 O      2, 4, 14, 20, 23, 25
    3    7 N      7, 12, 16, 17, 21
    4    1 H      26-42

      * Solvation model:               ALPB
        Solvent                        DMSO
        Solvent mass                       7.8130E+01 g/mol
          :  Hamiltonian                  GFN1-xTB          :
 * total energy  :   -82.9835875 Eh     change       -0.9649170E-11 Eh
 * total energy  :   -82.9946794 Eh     change       -0.1109182E-01 Eh
 * total energy  :   -82.9991157 Eh     change       -0.4436343E-02 Eh
 * total energy  :   -83.0003705 Eh     change       -0.1254784E-02 Eh
 * total energy  :   -83.0014923 Eh     change       -0.1121806E-02 Eh
 * total energy  :   -83.0022949 Eh     change       -0.8026374E-03 Eh
 * total energy  :   -83.0028854 Eh     change       -0.5904855E-03 Eh
 * total energy  :   -83.0032609 Eh     change       -0.3755154E-03 Eh
 * total energy  :   -83.0034972 Eh     change       -0.2362155E-03 Eh
 * total energy  :   -83.0036783 Eh     change       -0.1811849E-03 Eh
 * total energy  :   -83.0087848 Eh     change       -0.1277857E-04 Eh
 * total energy  :   -83.0088008 Eh     change       -0.1606308E-04 Eh
 * total energy  :   -83.0088177 Eh     change       -0.1683631E-04 Eh
 * total energy  :   -83.0088256 Eh     change       -0.7973146E-05 Eh
 * total energy  :   -83.0088371 Eh     change       -0.1150722E-04 Eh
 * total energy  :   -83.0088445 Eh     change       -0.7347047E-05 Eh
 * total energy  :   -83.0088528 Eh     change       -0.8369550E-05 Eh
 * total energy  :   -83.0088593 Eh     change       -0.6450299E-05 Eh
 * total energy  :   -83.0088632 Eh     change       -0.3859082E-05 Eh
   *** GEOMETRY OPTIMIZATION CONVERGED AFTER 94 ITERATIONS ***

 final structure:
================
42
 xtb: 6.5.1 (579679a)
C           -2.52318582099069       -2.34071912322450       -1.72996862563551
O           -2.51435122638724       -1.53637017374846       -0.53989358749293
C           -3.39682846540964       -0.57241917859301       -0.40563797535629
O           -4.31528732767708       -0.33910818589440       -1.14289284901816
C           -3.08433084284347        0.28676774343025        0.85865592735533
C           -4.24379522154133        1.24768411151402        1.11898563483560
N           -1.90246460070712        1.03728458945387        0.48509698669448
C           -0.74775923246234        0.62762450161532        0.80498127979073
C            0.48205655426705        1.41304489818988        0.39635991742332
C            1.00071906305573        2.18081751076851        1.61582643835688
C            0.15287996528126        2.36350197926367       -0.75722467714372
N            1.52360119627891        0.46826890596381       -0.01113157460681
C            1.30541299187902       -0.44914052911497       -0.98142494917757
O            0.21745771697971       -0.67536230707787       -1.48409317638247
C            2.53100886932679       -1.19088942298943       -1.35804918607606
N            2.64614172442074       -2.15704734563729       -2.21544285862310
N            3.95911746288702       -2.51836862563749       -2.22670719600681
C            4.56638183404661       -1.74978526836607       -1.37653917470900
C            6.00193077179663       -1.73935029963739       -1.02302713250541
O            3.71896245198853       -0.88736794965654       -0.79152864933006
N           -0.50185423494272       -0.49153951581781        1.58756692263442
C           -1.46559051044298       -1.21822352626458        2.21669388485259
O           -1.21248883042471       -2.17615853858287        2.91257684658700
C           -2.88980327498472       -0.68973022517545        1.99841633194553
O           -3.80262154806375       -1.06804863570350        2.68720358755729
H           -2.97998521294128       -3.30476522892390       -1.50173770976581
H           -1.48210134467797       -2.47511649964017       -2.02281314893757
H           -3.08174732141647       -1.83955110590870       -2.52228498361685
H           -4.41685693259166        1.85240660784363        0.23127723744008
H           -5.14439846287072        0.68298710950669        1.35424977523472
H           -3.99679952452672        1.89883947777402        1.95433864946791
H            1.89543277179822        2.73844865759795        1.34676287018998
H            1.24344707737994        1.49014844308325        2.42145919006425
H            0.24013219949102        2.87842916580532        1.96285564379182
H            1.05254878179317        2.89164518680042       -1.06530946308642
H           -0.59433203426836        3.08439506886036       -0.42958097903261
H           -0.24440114383576        1.80274837726805       -1.60247212904841
H            2.46744657040934        0.66007950580976        0.27732822321859
H            6.12069886116596       -1.90118667571660        0.04798375402397
H            6.52293401327173       -2.51958188324461       -1.57279867674941
H            6.43515174803899       -0.76897595851963       -1.26520421383598
H            0.45752148845339       -0.75884063747797        1.74714381467625

          :  Hamiltonian                  GFN1-xTB          :
         :: total energy             -83.008863159304 Eh    ::
         :: gradient norm              0.000392958959 Eh/a0 ::
         :: HOMO-LUMO gap              2.433592189863 eV    ::
         :: SCC energy               -83.796368604157 Eh    ::
         :: -> Gsolv                  -0.060734388131 Eh    ::
         :: repulsion energy           0.815581936441 Eh    ::

    * Orbital Energies and Occupations

         #    Occupation            Energy/Eh            Energy/eV
      -------------------------------------------------------------
         1        2.0000           -0.8671991             -23.5977
       ...           ...                  ...                  ...
        55        2.0000           -0.5102366             -13.8842
        56        2.0000           -0.5069578             -13.7950
        57        2.0000           -0.5061819             -13.7739
        58        2.0000           -0.5022134             -13.6659
        59        2.0000           -0.4947986             -13.4642
        60        2.0000           -0.4825542             -13.1310
        61        2.0000           -0.4729957             -12.8709
        62        2.0000           -0.4686023             -12.7513
        63        2.0000           -0.4622340             -12.5780
        64        2.0000           -0.4569460             -12.4341
        65        2.0000           -0.4542837             -12.3617
        66        2.0000           -0.4497505             -12.2383
        67        2.0000           -0.4390034             -11.9459 (HOMO)
        68                         -0.3495705              -9.5123 (LUMO)
        69                         -0.3150003              -8.5716
        70                         -0.2954204              -8.0388
        71                         -0.2664778              -7.2512
        72                         -0.2580463              -7.0218
        73                         -0.2248737              -6.1191
        74                         -0.2021940              -5.5020
        75                         -0.1418519              -3.8600
        76                         -0.1408858              -3.8337
        77                         -0.1357072              -3.6928
        78                         -0.1259772              -3.4280
       ...                                ...                  ...
       134                          0.7607321              20.7006
      -------------------------------------------------------------
                  HL-Gap            0.0894329 Eh            2.4336 eV

Wiberg/Mayer (AO) data.
largest (>0.10) Wiberg bond orders for each atom

     #   Z sym  total        # sym  WBO       # sym  WBO       # sym  WBO
 ---------------------------------------------------------------------------
     1   6 C    3.853 --    28 H    0.981    26 H    0.980    27 H    0.979
                             2 O    0.874
     2   8 O    2.226 --     3 C    1.161     1 C    0.874     4 O    0.141
     3   6 C    3.842 --     4 O    1.699     2 O    1.161     5 C    0.858
     4   8 O    1.982 --     3 C    1.699     2 O    0.141
     5   6 C    3.964 --     6 C    0.983     7 N    0.972    24 C    0.964
                             3 C    0.858
     6   6 C    3.985 --    31 H    0.985    30 H    0.983    29 H    0.983
                             5 C    0.983
     7   7 N    3.023 --     8 C    1.754     5 C    0.972
     8   6 C    3.928 --     7 N    1.754    21 N    1.069     9 C    0.973
     9   6 C    3.936 --    11 C    0.990    10 C    0.983     8 C    0.973
                            12 N    0.926
    10   6 C    3.988 --    33 H    0.984    34 H    0.983     9 C    0.983
                            32 H    0.981
    11   6 C    3.988 --     9 C    0.990    35 H    0.985    36 H    0.983
                            37 H    0.981
    12   7 N    3.338 --    13 C    1.244     9 C    0.926    38 H    0.889
                            14 O    0.172
    13   6 C    3.915 --    14 O    1.587    12 N    1.244    15 C    0.997
    14   8 O    1.904 --    13 C    1.587    12 N    0.172
    15   6 C    3.874 --    16 N    1.619    20 O    1.047    13 C    0.997
    16   7 N    3.001 --    15 C    1.619    17 N    1.201
    17   7 N    2.982 --    18 C    1.607    16 N    1.201
    18   6 C    3.867 --    17 N    1.607    20 O    1.073    19 C    1.032
    19   6 C    3.986 --    18 C    1.032    40 H    0.982    39 H    0.963
                            41 H    0.962
    20   8 O    2.317 --    18 C    1.073    15 C    1.047
    21   7 N    3.434 --    22 C    1.189     8 C    1.069    42 H    0.880
                            23 O    0.149
    22   6 C    3.892 --    23 O    1.668    21 N    1.189    24 C    0.907
    23   8 O    1.950 --    22 C    1.668    21 N    0.149
    24   6 C    3.846 --    25 O    1.805     5 C    0.964    22 C    0.907
    25   8 O    2.015 --    24 C    1.805
    26   1 H    1.006 --     1 C    0.980
    27   1 H    1.022 --     1 C    0.979
    28   1 H    1.006 --     1 C    0.981
    29   1 H    1.006 --     6 C    0.983
    30   1 H    1.004 --     6 C    0.983
    31   1 H    1.001 --     6 C    0.985
    32   1 H    0.996 --    10 C    0.981
    33   1 H    0.998 --    10 C    0.984
    34   1 H    0.999 --    10 C    0.983
    35   1 H    1.000 --    11 C    0.985
    36   1 H    1.008 --    11 C    0.983
    37   1 H    1.009 --    11 C    0.981
    38   1 H    0.931 --    12 N    0.889
    39   1 H    0.996 --    19 C    0.963
    40   1 H    0.998 --    19 C    0.982
    41   1 H    0.996 --    19 C    0.962
    42   1 H    0.931 --    21 N    0.880
 ---------------------------------------------------------------------------

           -------------------------------------------------
          | TOTAL ENERGY              -83.008863159304 Eh   |
          | GRADIENT NORM               0.000392958959 Eh/α |
          | HOMO-LUMO GAP               2.433592189863 eV   |
           -------------------------------------------------

 * finished run on 2023/06/21 at 17:19:07.106
