   * xtb version 6.5.1 (579679a) compiled by 'ehlert@majestix' on 2022-07-11
          program call               : /lustre/hpc/kemi/ree/PhD/git/ReactivityQM/dep/xtb-6.5.1/bin/xtb --gfn 1 /lustre/hpc/kemi/ree/PhD/git/ReactivityQM/calculations/R02/reac01prodE02/conf02/R02_reac01prodE02_conf02_gfn1.xyz --opt --vfukui --chrg -1 --uhf 0 --alpb DMSO

   ID    Z sym.   atoms
    1    6 C      1, 3, 4, 6, 8-11, 13, 15, 18, 19, 22, 24
    2    8 O      2, 5, 14, 20, 23, 25
    3    7 N      7, 12, 16, 17, 21
    4    1 H      26-43

      * Solvation model:               ALPB
        Solvent                        DMSO
        Solvent mass                       7.8130E+01 g/mol
          :  Hamiltonian                  GFN1-xTB          :
 * total energy  :   -83.8488382 Eh     change       -0.6920686E-11 Eh
 * total energy  :   -83.8602242 Eh     change       -0.1138592E-01 Eh
 * total energy  :   -83.8646013 Eh     change       -0.4377111E-02 Eh
 * total energy  :   -83.8656703 Eh     change       -0.1069000E-02 Eh
 * total energy  :   -83.8663325 Eh     change       -0.6622755E-03 Eh
 * total energy  :   -83.8667596 Eh     change       -0.4270410E-03 Eh
 * total energy  :   -83.8671127 Eh     change       -0.3531628E-03 Eh
 * total energy  :   -83.8673650 Eh     change       -0.2522505E-03 Eh
 * total energy  :   -83.8675161 Eh     change       -0.1511140E-03 Eh
 * total energy  :   -83.8676056 Eh     change       -0.8947249E-04 Eh
 * total energy  :   -83.8693561 Eh     change       -0.7064253E-05 Eh
 * total energy  :   -83.8693648 Eh     change       -0.8657357E-05 Eh
 * total energy  :   -83.8693740 Eh     change       -0.9191161E-05 Eh
 * total energy  :   -83.8693823 Eh     change       -0.8332886E-05 Eh
 * total energy  :   -83.8693894 Eh     change       -0.7098094E-05 Eh
 * total energy  :   -83.8693961 Eh     change       -0.6700184E-05 Eh
 * total energy  :   -83.8694029 Eh     change       -0.6816365E-05 Eh
 * total energy  :   -83.8694096 Eh     change       -0.6725642E-05 Eh
 * total energy  :   -83.8694146 Eh     change       -0.4959937E-05 Eh
   *** GEOMETRY OPTIMIZATION CONVERGED AFTER 52 ITERATIONS ***

 final structure:
================
43
 xtb: 6.5.1 (579679a)
C           -5.45005980986174        2.12773964973268        0.27581774068502
O           -4.12766271879101        1.97870125731038       -0.17732820388987
C           -3.81291332070933        0.58084555717761       -0.68932611495770
C           -3.26315618212620        0.85898048066133       -2.13007085268092
O           -4.79815297552981       -0.24865276567861       -0.63114790601373
C           -2.58675222444905        0.12800560654441        0.21248062570338
N           -1.48516961856301       -0.34791832637821       -0.45704491200741
C           -0.48122478990467       -0.84540123022784        0.18333874686289
C            0.70829149073447       -1.38855902447492       -0.59813797032901
C            0.84671334769113       -2.89999308741825       -0.37524497087801
C            0.51313865497300       -1.09789446660620       -2.08709615597359
N            1.94664576688089       -0.69446201928111       -0.19846242047655
C            2.64782712060813       -0.90820649939131        0.92726968111346
O            2.30367585366916       -1.61176917025503        1.86761893230892
C            3.93323039864646       -0.16463547523490        0.95642142006125
N            4.79252399608060       -0.11910408698286        1.92682086160471
N            5.81852362582209        0.67382192956392        1.50738628815219
C            5.52263766017766        1.06372342932740        0.30686760501713
C            6.31740691407724        1.93737158990003       -0.58288743569689
O            4.34115987111191        0.57073869445157       -0.10120368479317
N           -0.46245346436903       -0.93833517851111        1.54039273531308
C           -1.49851679135085       -0.48191517021572        2.32510011832121
O           -1.45647932385115       -0.54974469139576        3.55724584877569
C           -2.60884844481038        0.06485220963775        1.57938787701028
O           -3.64573472537155        0.50732445947403        2.34392958543945
H           -5.69601568547622        1.41834361215152        1.08127658220991
H           -6.18575452382484        1.99116251117298       -0.53351484272022
H           -5.55403839550929        3.14512632036115        0.66745827965070
H           -2.44410606197435        1.57551361972779       -2.10661331957507
H           -4.07851779227519        1.25749852742109       -2.73155471327730
H           -2.91939282008563       -0.07533630543047       -2.56969964819430
H            1.73304194721787       -3.26540725755530       -0.89028654379034
H           -0.03059106259793       -3.40216817938918       -0.78089733014225
H            0.93021171100429       -3.13935322311217        0.68261818207774
H            0.42024925790138       -0.02561726457974       -2.25385309185619
H           -0.39523324793167       -1.58378262090965       -2.44046936176822
H            1.36155354068719       -1.47587329799679       -2.65337893392125
H            2.37632316832887       -0.11984195523997       -0.90497147190054
H            7.25905811659918        2.18998615303484       -0.10161207983882
H            5.76358968830153        2.85017925468428       -0.80227973210766
H            6.51240678017505        1.42745997047928       -1.52572316994251
H            0.34353557937421       -1.33420276334608        2.01048392090374
H           -3.41097151069836        0.37080022679658        3.27599183552832

          :  Hamiltonian                  GFN1-xTB          :
         :: total energy             -83.869414586320 Eh    ::
         :: gradient norm              0.000585739108 Eh/a0 ::
         :: HOMO-LUMO gap              0.798739705746 eV    ::
         :: SCC energy               -84.631028033802 Eh    ::
         :: -> Gsolv                  -0.138447261493 Eh    ::
         :: repulsion energy           0.788130954669 Eh    ::

    * Orbital Energies and Occupations

         #    Occupation            Energy/Eh            Energy/eV
      -------------------------------------------------------------
         1        2.0000           -0.8640615             -23.5123
       ...           ...                  ...                  ...
        56        2.0000           -0.4637944             -12.6205
        57        2.0000           -0.4591450             -12.4940
        58        2.0000           -0.4545997             -12.3703
        59        2.0000           -0.4514841             -12.2855
        60        2.0000           -0.4500521             -12.2465
        61        2.0000           -0.4478480             -12.1866
        62        2.0000           -0.4349050             -11.8344
        63        2.0000           -0.4272191             -11.6252
        64        2.0000           -0.4180610             -11.3760
        65        2.0000           -0.4037332             -10.9861
        66        2.0000           -0.3889775             -10.5846
        67        2.0000           -0.3601193              -9.7993
        68        2.0000           -0.3384677              -9.2102 (HOMO)
        69        0.0000           -0.3091146              -8.4114 (LUMO)
        70                         -0.2694756              -7.3328
        71                         -0.2554573              -6.9513
        72                         -0.2466926              -6.7128
        73                         -0.1973641              -5.3705
        74                         -0.1414176              -3.8482
        75                         -0.1373399              -3.7372
        76                         -0.1229516              -3.3457
        77                         -0.1193859              -3.2487
        78                         -0.0939761              -2.5572
        79                         -0.0916589              -2.4942
       ...                                ...                  ...
       136                          0.7250407              19.7294
      -------------------------------------------------------------
                  HL-Gap            0.0293531 Eh            0.7987 eV

Wiberg/Mayer (AO) data.
largest (>0.10) Wiberg bond orders for each atom

     #   Z sym  total        # sym  WBO       # sym  WBO       # sym  WBO
 ---------------------------------------------------------------------------
     1   6 C    3.934 --    28 H    0.984    27 H    0.980    26 H    0.977
                             2 O    0.974
     2   8 O    1.936 --     1 C    0.974     3 C    0.779
     3   6 C    3.896 --     5 O    1.249     4 C    0.939     6 C    0.878
                             2 O    0.779
     4   6 C    3.991 --    29 H    0.990    30 H    0.987    31 H    0.987
                             3 C    0.939
     5   8 O    1.546 --     3 C    1.249
     6   6 C    3.913 --    24 C    1.522     7 N    1.190     3 C    0.878
     7   7 N    3.033 --     8 C    1.579     6 C    1.190
     8   6 C    3.939 --     7 N    1.579    21 N    1.183     9 C    0.967
     9   6 C    3.931 --    11 C    1.002    10 C    0.985     8 C    0.967
                            12 N    0.911
    10   6 C    3.989 --     9 C    0.985    33 H    0.985    32 H    0.984
                            34 H    0.979
    11   6 C    3.992 --     9 C    1.002    37 H    0.985    35 H    0.983
                            36 H    0.982
    12   7 N    3.359 --    13 C    1.280     9 C    0.911    38 H    0.895
                            14 O    0.178
    13   6 C    3.918 --    14 O    1.559    12 N    1.280    15 C    0.993
    14   8 O    1.907 --    13 C    1.559    12 N    0.178
    15   6 C    3.872 --    16 N    1.623    20 O    1.047    13 C    0.993
    16   7 N    2.999 --    15 C    1.623    17 N    1.198
    17   7 N    2.982 --    18 C    1.612    16 N    1.198
    18   6 C    3.869 --    17 N    1.612    20 O    1.072    19 C    1.032
    19   6 C    3.986 --    18 C    1.032    39 H    0.982    41 H    0.964
                            40 H    0.962
    20   8 O    2.315 --    18 C    1.072    15 C    1.047
    21   7 N    3.462 --     8 C    1.183    22 C    1.123    42 H    0.866
                            23 O    0.121
    22   6 C    3.908 --    23 O    1.515    21 N    1.123    24 C    1.121
    23   8 O    1.841 --    22 C    1.515    21 N    0.121
    24   6 C    3.912 --     6 C    1.522    22 C    1.121    25 O    1.044
    25   8 O    2.038 --    24 C    1.044    43 H    0.833
    26   1 H    1.039 --     1 C    0.977
    27   1 H    1.028 --     1 C    0.980
    28   1 H    1.024 --     1 C    0.984
    29   1 H    1.017 --     4 C    0.990
    30   1 H    1.019 --     4 C    0.987
    31   1 H    1.024 --     4 C    0.987
    32   1 H    1.000 --    10 C    0.984
    33   1 H    1.002 --    10 C    0.985
    34   1 H    1.010 --    10 C    0.979
    35   1 H    1.007 --    11 C    0.983
    36   1 H    1.011 --    11 C    0.982
    37   1 H    1.000 --    11 C    0.985
    38   1 H    0.939 --    12 N    0.895
    39   1 H    0.999 --    19 C    0.982
    40   1 H    0.997 --    19 C    0.962
    41   1 H    0.997 --    19 C    0.964
    42   1 H    0.943 --    21 N    0.866
    43   1 H    0.874 --    25 O    0.833
 ---------------------------------------------------------------------------

           -------------------------------------------------
          | TOTAL ENERGY              -83.869414586320 Eh   |
          | GRADIENT NORM               0.000585739108 Eh/α |
          | HOMO-LUMO GAP               0.798739705746 eV   |
           -------------------------------------------------

 * finished run on 2023/06/20 at 14:54:28.098
