   * xtb version 6.5.1 (579679a) compiled by 'ehlert@majestix' on 2022-07-11
          program call               : /lustre/hpc/kemi/ree/PhD/git/ReactivityQM/dep/xtb-6.5.1/bin/xtb --gfn 1 /lustre/hpc/kemi/ree/PhD/git/ReactivityQM/calculations/R02/reac01prodN09/conf18/R02_reac01prodN09_conf18_gfn1.xyz --opt --vfukui --chrg 1 --uhf 0 --alpb DMSO

   ID    Z sym.   atoms
    1    6 C      1, 3, 5, 6, 8-11, 13, 15, 18, 19, 22, 24
    2    8 O      2, 4, 14, 20, 23, 25
    3    7 N      7, 12, 16, 17, 21
    4    1 H      26-43

      * Solvation model:               ALPB
        Solvent                        DMSO
        Solvent mass                       7.8130E+01 g/mol
          :  Hamiltonian                  GFN1-xTB          :
 * total energy  :   -83.1034467 Eh     change       -0.6423306E-09 Eh
 * total energy  :   -83.1225488 Eh     change       -0.1910220E-01 Eh
 * total energy  :   -83.1303422 Eh     change       -0.7793340E-02 Eh
 * total energy  :   -83.1320210 Eh     change       -0.1678818E-02 Eh
 * total energy  :   -83.1332773 Eh     change       -0.1256268E-02 Eh
 * total energy  :   -83.1339195 Eh     change       -0.6421912E-03 Eh
 * total energy  :   -83.1345087 Eh     change       -0.5891902E-03 Eh
 * total energy  :   -83.1349876 Eh     change       -0.4789589E-03 Eh
 * total energy  :   -83.1352556 Eh     change       -0.2679376E-03 Eh
 * total energy  :   -83.1354281 Eh     change       -0.1725078E-03 Eh
 * total energy  :   -83.1365583 Eh     change       -0.1571084E-04 Eh
 * total energy  :   -83.1365776 Eh     change       -0.1932790E-04 Eh
 * total energy  :   -83.1365970 Eh     change       -0.1938576E-04 Eh
 * total energy  :   -83.1366083 Eh     change       -0.1127261E-04 Eh
 * total energy  :   -83.1366232 Eh     change       -0.1493856E-04 Eh
 * total energy  :   -83.1366383 Eh     change       -0.1511219E-04 Eh
 * total energy  :   -83.1366518 Eh     change       -0.1352028E-04 Eh
 * total energy  :   -83.1366616 Eh     change       -0.9776702E-05 Eh
 * total energy  :   -83.1366658 Eh     change       -0.4206307E-05 Eh
   *** GEOMETRY OPTIMIZATION CONVERGED AFTER 44 ITERATIONS ***

 final structure:
================
43
 xtb: 6.5.1 (579679a)
C           -4.19942010154267       -0.21604703484472        2.60938871788395
O           -3.37061916261896       -0.16659488228807        1.42200560808967
C           -3.87414851360909        0.33221230478165        0.34332973454925
O           -4.96929628164961        0.73541503976342        0.12570041445554
C           -2.75401197791771        0.36598706424820       -0.84145376662196
C           -3.27503448192002        1.31668958516885       -1.92074839313691
N           -1.57765817614813        0.87016706836219       -0.22034209238495
C           -0.65774538736859        0.08599453707887        0.19665439311755
C            0.53444536220759        0.66987684230329        0.93566983107007
C            0.47112603736642        0.23671601128455        2.40776464558011
C            0.50394413312963        2.19475487655944        0.83111795583865
N            1.78649667624194        0.22159758613288        0.31694079789107
C            2.30198762581941       -1.02111191319226        0.37320118368288
O            1.73181646929316       -2.00149692645478        0.84494684898120
C            3.64181736902877       -1.11589399973307       -0.23575518476979
N            4.40242133121616       -2.16112547657963       -0.34022947885245
N            5.52925400511892       -1.76355391961512       -0.98816048997020
C            5.39038228698220       -0.49836861571780       -1.24306125324249
C            6.33400572043318        0.40070948776255       -1.94042592197735
O            4.21691583475975       -0.02705409928854       -0.79107320202990
N           -0.69781376515664       -1.28436073875608        0.05724199624517
C           -1.65260068187939       -1.94175351897339       -0.63684056783350
O           -1.69726116894304       -3.13230469789215       -0.85756441286449
C           -2.70825720775248       -1.04012535730279       -1.19260615830568
O           -3.59896360898920       -1.57521586840725       -1.93303028562829
H           -5.22451700532067       -0.46088008551365        2.33080670743281
H           -4.15896618208237        0.75443175483600        3.10383393981445
H           -3.76617112005981       -0.98729331283278        3.24137765777209
H           -3.42179012454307        2.30219626110691       -1.48487475220865
H           -4.21683430791229        0.94397148693906       -2.31748627776189
H           -2.53678473941137        1.37926922100230       -2.71677156751158
H            1.32831232066439        0.64639458172743        2.93925784463948
H            0.47821457203392       -0.84693681645153        2.50077597452670
H           -0.44434892010222        0.62320992393193        2.85236879202007
H            0.52151322059419        2.50072119399215       -0.21332252627692
H           -0.40672270637645        2.57445059343969        1.29043697578092
H            1.36529757901407        2.61556026088303        1.34598898400825
H            2.34694289888712        0.94124120834071       -0.11384575982525
H            7.21934744038306       -0.15415382493332       -2.24215563451213
H            6.61959408558714        1.22045753726839       -1.28143167672867
H            5.85173939115055        0.82998574687112       -2.81847773750060
H            0.11169308046607       -1.81831456709306        0.43227682260723
H           -3.47830181908063       -2.54942351790939       -2.02551668604133

          :  Hamiltonian                  GFN1-xTB          :
         :: total energy             -83.136665831232 Eh    ::
         :: gradient norm              0.000485922806 Eh/a0 ::
         :: HOMO-LUMO gap              1.058145779850 eV    ::
         :: SCC energy               -83.932391025079 Eh    ::
         :: -> Gsolv                  -0.108322954035 Eh    ::
         :: repulsion energy           0.823439786576 Eh    ::

    * Orbital Energies and Occupations

         #    Occupation            Energy/Eh            Energy/eV
      -------------------------------------------------------------
         1        2.0000           -0.9154245             -24.9100
       ...           ...                  ...                  ...
        55        2.0000           -0.5336007             -14.5200
        56        2.0000           -0.5318434             -14.4722
        57        2.0000           -0.5275402             -14.3551
        58        2.0000           -0.5178032             -14.0901
        59        2.0000           -0.5142261             -13.9928
        60        2.0000           -0.5118001             -13.9268
        61        2.0000           -0.4943977             -13.4532
        62        2.0000           -0.4895961             -13.3226
        63        2.0000           -0.4891353             -13.3100
        64        2.0000           -0.4812315             -13.0950
        65        2.0000           -0.4760152             -12.9530
        66        2.0000           -0.4616404             -12.5619
        67        2.0000           -0.4609718             -12.5437 (HOMO)
        68                         -0.4220856             -11.4855 (LUMO)
        69                         -0.3343609              -9.0984
        70                         -0.3270501              -8.8995
        71                         -0.3072498              -8.3607
        72                         -0.2643901              -7.1944
        73                         -0.2624326              -7.1412
        74                         -0.2137552              -5.8166
        75                         -0.1656462              -4.5075
        76                         -0.1533513              -4.1729
        77                         -0.1500327              -4.0826
        78                         -0.1451657              -3.9502
       ...                                ...                  ...
       136                          0.7471783              20.3318
      -------------------------------------------------------------
                  HL-Gap            0.0388861 Eh            1.0581 eV

Wiberg/Mayer (AO) data.
largest (>0.10) Wiberg bond orders for each atom

     #   Z sym  total        # sym  WBO       # sym  WBO       # sym  WBO
 ---------------------------------------------------------------------------
     1   6 C    3.817 --    28 H    0.980    26 H    0.980    27 H    0.976
                             2 O    0.838
     2   8 O    2.255 --     3 C    1.220     1 C    0.838     4 O    0.149
     3   6 C    3.857 --     4 O    1.748     2 O    1.220     5 C    0.705
     4   8 O    2.089 --     3 C    1.748     2 O    0.149
     5   6 C    3.956 --    24 C    1.104     7 N    1.023     6 C    0.953
                             3 C    0.705
     6   6 C    3.967 --    29 H    0.980    30 H    0.980    31 H    0.977
                             5 C    0.953
     7   7 N    3.027 --     8 C    1.683     5 C    1.023
     8   6 C    3.917 --     7 N    1.683    21 N    1.123     9 C    0.970
     9   6 C    3.932 --    11 C    1.000    10 C    0.974     8 C    0.970
                            12 N    0.924
    10   6 C    3.983 --    34 H    0.984    32 H    0.980    33 H    0.978
                             9 C    0.974
    11   6 C    3.987 --     9 C    1.000    37 H    0.983    35 H    0.982
                            36 H    0.982
    12   7 N    3.352 --    13 C    1.273     9 C    0.924    38 H    0.885
                            14 O    0.167
    13   6 C    3.911 --    14 O    1.534    12 N    1.273    15 C    1.010
    14   8 O    1.933 --    13 C    1.534    12 N    0.167
    15   6 C    3.877 --    16 N    1.612    20 O    1.046    13 C    1.010
    16   7 N    3.005 --    15 C    1.612    17 N    1.209
    17   7 N    2.983 --    18 C    1.600    16 N    1.209
    18   6 C    3.864 --    17 N    1.600    20 O    1.074    19 C    1.033
    19   6 C    3.985 --    18 C    1.033    39 H    0.982    41 H    0.961
                            40 H    0.961
    20   8 O    2.318 --    18 C    1.074    15 C    1.046
    21   7 N    3.484 --    22 C    1.214     8 C    1.123    42 H    0.784
                            23 O    0.167
    22   6 C    3.924 --    23 O    1.626    21 N    1.214    24 C    0.972
    23   8 O    1.969 --    22 C    1.626    21 N    0.167
    24   6 C    3.801 --    25 O    1.361     5 C    1.104    22 C    0.972
    25   8 O    2.281 --    24 C    1.361    43 H    0.743
    26   1 H    0.998 --     1 C    0.980
    27   1 H    0.998 --     1 C    0.976
    28   1 H    1.003 --     1 C    0.980
    29   1 H    0.997 --     6 C    0.980
    30   1 H    0.999 --     6 C    0.980
    31   1 H    0.994 --     6 C    0.977
    32   1 H    0.996 --    10 C    0.980
    33   1 H    1.004 --    10 C    0.978
    34   1 H    0.999 --    10 C    0.984
    35   1 H    1.000 --    11 C    0.982
    36   1 H    1.005 --    11 C    0.982
    37   1 H    0.996 --    11 C    0.983
    38   1 H    0.929 --    12 N    0.885
    39   1 H    0.997 --    19 C    0.982
    40   1 H    0.995 --    19 C    0.961
    41   1 H    0.996 --    19 C    0.961
    42   1 H    0.902 --    21 N    0.784
    43   1 H    0.789 --    25 O    0.743
 ---------------------------------------------------------------------------

           -------------------------------------------------
          | TOTAL ENERGY              -83.136665831232 Eh   |
          | GRADIENT NORM               0.000485922806 Eh/α |
          | HOMO-LUMO GAP               1.058145779850 eV   |
           -------------------------------------------------

 * finished run on 2023/06/20 at 15:29:46.952
