   * xtb version 6.5.1 (579679a) compiled by 'ehlert@majestix' on 2022-07-11
          program call               : /lustre/hpc/kemi/ree/PhD/git/ReactivityQM/dep/xtb-6.5.1/bin/xtb --gfn 1 /lustre/hpc/kemi/ree/PhD/git/ReactivityQM/calculations/R02/reac01prodE13/conf07/R02_reac01prodE13_conf07_gfn1.xyz --opt --vfukui --chrg -1 --uhf 0 --alpb DMSO

   ID    Z sym.   atoms
    1    6 C      1, 3, 5, 6, 8, 10, 12-15, 17, 19, 22, 23
    2    8 O      2, 4, 7, 9, 18, 24
    3    7 N      11, 16, 20, 21, 25
    4    1 H      26-43

      * Solvation model:               ALPB
        Solvent                        DMSO
        Solvent mass                       7.8130E+01 g/mol
          :  Hamiltonian                  GFN1-xTB          :
 * total energy  :   -83.8244327 Eh     change       -0.5468337E-10 Eh
 * total energy  :   -83.8411038 Eh     change       -0.1667113E-01 Eh
 * total energy  :   -83.8473359 Eh     change       -0.6232039E-02 Eh
 * total energy  :   -83.8486133 Eh     change       -0.1277417E-02 Eh
 * total energy  :   -83.8493263 Eh     change       -0.7130662E-03 Eh
 * total energy  :   -83.8495861 Eh     change       -0.2597925E-03 Eh
 * total energy  :   -83.8497737 Eh     change       -0.1875611E-03 Eh
 * total energy  :   -83.8499688 Eh     change       -0.1951375E-03 Eh
 * total energy  :   -83.8502245 Eh     change       -0.2556521E-03 Eh
 * total energy  :   -83.8505444 Eh     change       -0.3199661E-03 Eh
 * total energy  :   -83.8526618 Eh     change       -0.3769510E-04 Eh
 * total energy  :   -83.8526782 Eh     change       -0.1631467E-04 Eh
 * total energy  :   -83.8526969 Eh     change       -0.1870777E-04 Eh
 * total energy  :   -83.8527304 Eh     change       -0.3357020E-04 Eh
 * total energy  :   -83.8527485 Eh     change       -0.1804861E-04 Eh
 * total energy  :   -83.8527588 Eh     change       -0.1033041E-04 Eh
 * total energy  :   -83.8527674 Eh     change       -0.8583015E-05 Eh
 * total energy  :   -83.8527752 Eh     change       -0.7826900E-05 Eh
 * total energy  :   -83.8527793 Eh     change       -0.4098559E-05 Eh
   *** GEOMETRY OPTIMIZATION CONVERGED AFTER 55 ITERATIONS ***

 final structure:
================
43
 xtb: 6.5.1 (579679a)
C           -4.98317721821433        3.33608098724633        0.86800322420572
O           -3.84021914383447        2.50436761552318        0.81009121676567
C           -3.97522458457967        1.37286171151153        0.00317097693855
O           -5.06301961570217        1.19683148143333       -0.62049049508594
C           -2.87445735019150        0.53245780511093       -0.04808959922057
C           -2.90742162537757       -0.69905228954497       -0.84092551675036
O           -4.07398968685768       -1.01712301948381       -1.48510234189991
C           -1.82900794343494       -1.49804482855299       -0.86893506618624
O           -1.65985429152847       -2.71051122346622       -1.52139620594616
C           -2.78575153112839       -3.57025274911655       -1.59336689521486
N           -0.60717713067156       -1.08793232468462       -0.23568529048233
C           -0.72025434463900        0.01592968862254        0.64217188648547
C            0.51932248924904        0.29550452950081        1.47332956119497
C            0.45686265118597        1.71752697060146        2.04087827433473
C            0.63556689122824       -0.73627257255989        2.60710538401350
N            1.67244779337564        0.16411374468545        0.57216045806382
C            2.95583523281233        0.32586214354495        0.94977839899258
O            3.33492939235872        0.67585748973797        2.06187922127173
C            3.87797166764013        0.04188107377810       -0.17251368493564
N            3.53503509293439       -0.32124930160263       -1.37795620717383
N            4.69208413329575       -0.47957559877637       -2.08479139362800
C            5.66395455459298       -0.20561689074043       -1.27167965948153
C            7.11560742364901       -0.23270098388987       -1.56101741669598
O            5.22123734730498        0.13244343794484       -0.04925276121853
N           -1.72558805575923        0.79168448907883        0.70902591292224
H           -4.74129958457879        4.17215720843914        1.52648994246044
H           -5.84828773471069        2.79587638497220        1.27192583186491
H           -5.24706452602342        3.72185458320312       -0.12454338439540
H           -4.70262935448952       -0.25140409596190       -1.28693973383119
H           -3.49919657576479       -3.23609915631673       -2.35676851011918
H           -2.41108148545461       -4.55959573763636       -1.86524361238768
H           -3.30310418999497       -3.63438164738540       -0.62836478262918
H           -0.09579762599130       -1.87396603143614        0.14358520107253
H           -0.45313877955346        1.82619368778355        2.63021280958876
H            0.43389460952597        2.44290282841893        1.22761926696075
H            1.31846630402122        1.91685260381903        2.67493443066922
H            1.50387068525597       -0.52253952336705        3.22837330666476
H            0.73778368292608       -1.73869705369157        2.19436471806079
H           -0.26052605585338       -0.69824026429397        3.22496078361028
H            1.49087509381941       -0.19064907356522       -0.35844561109189
H            7.54927796243804        0.75320449914876       -1.39519200358429
H            7.61598069765942       -0.93696680646827       -0.89671497404810
H            7.27626672905771       -0.53157279156283       -2.59373966013685

          :  Hamiltonian                  GFN1-xTB          :
         :: total energy             -83.852779317728 Eh    ::
         :: gradient norm              0.000809662309 Eh/a0 ::
         :: HOMO-LUMO gap              0.151089820701 eV    ::
         :: SCC energy               -84.606650340312 Eh    ::
         :: -> Gsolv                  -0.106905117658 Eh    ::
         :: repulsion energy           0.779156800064 Eh    ::

    * Orbital Energies and Occupations

         #    Occupation            Energy/Eh            Energy/eV
      -------------------------------------------------------------
         1        2.0000           -0.8502269             -23.1359
       ...           ...                  ...                  ...
        56        2.0000           -0.4699697             -12.7885
        57        2.0000           -0.4645071             -12.6399
        58        2.0000           -0.4562551             -12.4153
        59        2.0000           -0.4489628             -12.2169
        60        2.0000           -0.4466513             -12.1540
        61        2.0000           -0.4409463             -11.9988
        62        2.0000           -0.4372657             -11.8986
        63        2.0000           -0.4279076             -11.6440
        64        2.0000           -0.4226384             -11.5006
        65        2.0000           -0.4071317             -11.0786
        66        2.0000           -0.3859223             -10.5015
        67        2.0000           -0.3806184             -10.3572
        68        1.8979           -0.3021898              -8.2230 (HOMO)
        69        0.1021           -0.2966374              -8.0719 (LUMO)
        70                         -0.2465917              -6.7101
        71                         -0.2261064              -6.1527
        72                         -0.1872515              -5.0954
        73                         -0.1823998              -4.9634
        74                         -0.1388784              -3.7791
        75                         -0.1158308              -3.1519
        76                         -0.1134678              -3.0876
        77                         -0.1112427              -3.0271
        78                         -0.1056312              -2.8744
        79                         -0.0958380              -2.6079
       ...                                ...                  ...
       136                          0.7213711              19.6295
      -------------------------------------------------------------
                  HL-Gap            0.0055524 Eh            0.1511 eV

Wiberg/Mayer (AO) data.
largest (>0.10) Wiberg bond orders for each atom

     #   Z sym  total        # sym  WBO       # sym  WBO       # sym  WBO
 ---------------------------------------------------------------------------
     1   6 C    3.914 --    26 H    0.987    27 H    0.981    28 H    0.981
                             2 O    0.945
     2   8 O    2.072 --     3 C    0.954     1 C    0.945
     3   6 C    3.855 --     5 C    1.382     4 O    1.362     2 O    0.954
     4   8 O    1.795 --     3 C    1.362    29 H    0.121     5 C    0.110
     5   6 C    3.824 --     3 C    1.382    25 N    1.082     6 C    1.068
                             4 O    0.110
     6   6 C    3.900 --     8 C    1.637     5 C    1.068     7 O    1.032
     7   8 O    1.975 --     6 C    1.032    29 H    0.750
     8   6 C    3.799 --     6 C    1.637    11 N    0.969     9 O    0.962
     9   8 O    2.053 --     8 C    0.962    10 C    0.933
    10   6 C    3.907 --    31 H    0.985    32 H    0.982    30 H    0.980
                             9 O    0.933
    11   7 N    3.175 --    12 C    1.030     8 C    0.969    33 H    0.915
                            25 N    0.101
    12   6 C    3.933 --    25 N    1.720    11 N    1.030    13 C    0.975
    13   6 C    3.930 --    14 C    0.995    15 C    0.981    12 C    0.975
                            16 N    0.914
    14   6 C    3.994 --    13 C    0.995    35 H    0.986    34 H    0.984
                            36 H    0.984
    15   6 C    3.990 --    39 H    0.986    38 H    0.984    37 H    0.982
                            13 C    0.981
    16   7 N    3.332 --    17 C    1.256    13 C    0.914    40 H    0.895
                            18 O    0.173
    17   6 C    3.889 --    18 O    1.553    16 N    1.256    19 C    1.004
    18   8 O    1.858 --    17 C    1.553    16 N    0.173
    19   6 C    3.829 --    20 N    1.578    24 O    1.048    17 C    1.004
    20   7 N    2.960 --    19 C    1.578    21 N    1.191
    21   7 N    2.979 --    22 C    1.615    20 N    1.191
    22   6 C    3.863 --    21 N    1.615    24 O    1.077    23 C    1.029
    23   6 C    3.989 --    22 C    1.029    43 H    0.983    42 H    0.965
                            41 H    0.965
    24   8 O    2.300 --    22 C    1.077    19 C    1.048
    25   7 N    3.034 --    12 C    1.720     5 C    1.082    11 N    0.101
    26   1 H    1.019 --     1 C    0.987
    27   1 H    1.018 --     1 C    0.981
    28   1 H    1.019 --     1 C    0.981
    29   1 H    0.884 --     7 O    0.750     4 O    0.121
    30   1 H    1.025 --    10 C    0.980
    31   1 H    1.018 --    10 C    0.985
    32   1 H    1.012 --    10 C    0.982
    33   1 H    0.960 --    11 N    0.915
    34   1 H    1.018 --    14 C    0.984
    35   1 H    1.011 --    14 C    0.986
    36   1 H    1.014 --    14 C    0.984
    37   1 H    1.010 --    15 C    0.982
    38   1 H    1.004 --    15 C    0.984
    39   1 H    1.005 --    15 C    0.986
    40   1 H    0.970 --    16 N    0.895
    41   1 H    0.998 --    23 C    0.965
    42   1 H    0.998 --    23 C    0.965
    43   1 H    1.000 --    23 C    0.983
 ---------------------------------------------------------------------------

           -------------------------------------------------
          | TOTAL ENERGY              -83.852779317728 Eh   |
          | GRADIENT NORM               0.000809662309 Eh/α |
          | HOMO-LUMO GAP               0.151089820701 eV   |
           -------------------------------------------------

 * finished run on 2023/06/20 at 15:16:10.748
