   * xtb version 6.5.1 (579679a) compiled by 'ehlert@majestix' on 2022-07-11
          program call               : /lustre/hpc/kemi/ree/PhD/git/ReactivityQM/dep/xtb-6.5.1/bin/xtb --gfn 1 /lustre/hpc/kemi/ree/PhD/git/ReactivityQM/calculations/R02deprot/reac01prodN10/conf01/R02deprot_reac01prodN10_conf01_gfn1.xyz --opt --vfukui --chrg 0 --uhf 0 --alpb DMSO

   ID    Z sym.   atoms
    1    6 C      1, 3, 5, 6, 8-11, 13, 15, 18, 19, 22, 24
    2    8 O      2, 4, 14, 20, 23, 25
    3    7 N      7, 12, 16, 17, 21
    4    1 H      26-42

      * Solvation model:               ALPB
        Solvent                        DMSO
        Solvent mass                       7.8130E+01 g/mol
          :  Hamiltonian                  GFN1-xTB          :
 * total energy  :   -82.9340615 Eh     change       -0.1490719E-10 Eh
 * total energy  :   -82.9472472 Eh     change       -0.1318572E-01 Eh
 * total energy  :   -82.9527038 Eh     change       -0.5456567E-02 Eh
 * total energy  :   -82.9538397 Eh     change       -0.1135962E-02 Eh
 * total energy  :   -82.9544146 Eh     change       -0.5748464E-03 Eh
 * total energy  :   -82.9546293 Eh     change       -0.2147398E-03 Eh
 * total energy  :   -82.9547675 Eh     change       -0.1382267E-03 Eh
 * total energy  :   -82.9548385 Eh     change       -0.7097242E-04 Eh
 * total energy  :   -82.9548824 Eh     change       -0.4393426E-04 Eh
 * total energy  :   -82.9549255 Eh     change       -0.4300521E-04 Eh
 * total energy  :   -82.9557350 Eh     change       -0.2314849E-04 Eh
 * total energy  :   -82.9557467 Eh     change       -0.1167696E-04 Eh
 * total energy  :   -82.9557703 Eh     change       -0.2354916E-04 Eh
 * total energy  :   -82.9557941 Eh     change       -0.2387950E-04 Eh
 * total energy  :   -82.9558075 Eh     change       -0.1340750E-04 Eh
 * total energy  :   -82.9558218 Eh     change       -0.1429515E-04 Eh
 * total energy  :   -82.9558398 Eh     change       -0.1792955E-04 Eh
 * total energy  :   -82.9558476 Eh     change       -0.7881441E-05 Eh
 * total energy  :   -82.9558525 Eh     change       -0.4821567E-05 Eh
   *** GEOMETRY OPTIMIZATION CONVERGED AFTER 36 ITERATIONS ***

 final structure:
================
42
 xtb: 6.5.1 (579679a)
C           -3.00004563497495        2.41651921215232       -1.83149664733964
O           -2.70123361821401        1.17457803276038       -1.16543281312941
C           -2.91979673567573        1.11915921003954        0.12061714436121
O           -3.36140314205298        1.98691874039678        0.81461131879042
C           -2.51964004317114       -0.29437129443511        0.71920124082836
C           -2.68727493941289       -0.22196202989533        2.24011009260033
N           -1.15223581467205       -0.47621136757539        0.34894162021821
C           -0.85389674771473       -1.28981747570665       -0.61594411918955
C            0.60708322140063       -1.42940335685948       -1.01053263838387
C            1.06054473157916       -2.86779269335679       -0.72207324131758
C            0.75211166370754       -1.09508164022076       -2.50184318744382
N            1.38121208811162       -0.48779433313137       -0.20851425294227
C            2.71063364088561       -0.32381086496544       -0.30652548731681
O            3.45331899640980       -0.94120183607269       -1.05274775092888
C            3.18381943412892        0.73606260268972        0.62554937154179
N            2.44509938497054        1.41887206828568        1.44799954061325
N            3.27442711933463        2.28652430594634        2.09410058274825
C            4.46642200635023        2.07833720081542        1.62298489661730
C            5.71787753614095        2.77143618048992        2.00083979337436
O            4.47446586373158        1.11116690710500        0.69372152449230
N           -1.68211764283368       -2.07948406305803       -1.34012230460892
C           -2.98787174756353       -2.09119022744911       -1.06879796880315
O           -3.86981688709967       -2.77087102348124       -1.60046271437337
C           -3.43372169605072       -1.21567127352721        0.05196215827825
O           -4.67718860348122       -1.29648464779167        0.36125476459077
H           -2.90885733774949        2.21880692179808       -2.89672226324598
H           -4.01315305694370        2.73358000650277       -1.58054643600759
H           -2.28517590788371        3.17921700610605       -1.51955274682878
H           -3.72926998863958       -0.02609120549118        2.48317673598831
H           -2.06460276900666        0.58018678013913        2.62897075688497
H           -2.37926905974393       -1.16693878955808        2.68073806072922
H            2.09050417530654       -3.00861334141559       -1.04534389093197
H            0.41636120140424       -3.56030079175463       -1.26209535233195
H            0.98905346440153       -3.07318109443116        0.34506199402603
H            0.48351166800130       -0.05408582553443       -2.67546558781754
H            1.77753084616245       -1.25918236876200       -2.82813122010217
H            0.08522868453203       -1.73525640884989       -3.07757477995772
H            0.85868632098088        0.07258137055439        0.45489340339024
H            6.43579307629782        2.05498214194670        2.39998449882311
H            6.16298176249244        3.24286133051280        1.12468260933635
H            5.50240582976427        3.52764888606346        2.75160190663123
H           -5.10250134321364       -1.94463995097546       -0.26423561186497

          :  Hamiltonian                  GFN1-xTB          :
         :: total energy             -82.955852465945 Eh    ::
         :: gradient norm              0.000715998361 Eh/a0 ::
         :: HOMO-LUMO gap              1.256591767300 eV    ::
         :: SCC energy               -83.726518421318 Eh    ::
         :: -> Gsolv                  -0.050728639803 Eh    ::
         :: repulsion energy           0.797274476332 Eh    ::

    * Orbital Energies and Occupations

         #    Occupation            Energy/Eh            Energy/eV
      -------------------------------------------------------------
         1        2.0000           -0.8767948             -23.8588
       ...           ...                  ...                  ...
        55        2.0000           -0.5042291             -13.7208
        56        2.0000           -0.5010799             -13.6351
        57        2.0000           -0.4988522             -13.5745
        58        2.0000           -0.4876843             -13.2706
        59        2.0000           -0.4858908             -13.2218
        60        2.0000           -0.4808830             -13.0855
        61        2.0000           -0.4638001             -12.6206
        62        2.0000           -0.4576230             -12.4526
        63        2.0000           -0.4553213             -12.3899
        64        2.0000           -0.4486955             -12.2096
        65        2.0000           -0.4418247             -12.0227
        66        2.0000           -0.4342009             -11.8152
        67        2.0000           -0.4266839             -11.6107 (HOMO)
        68                         -0.3805050             -10.3541 (LUMO)
        69                         -0.3068059              -8.3486
        70                         -0.2987784              -8.1302
        71                         -0.2730604              -7.4304
        72                         -0.2558068              -6.9609
        73                         -0.2002386              -5.4488
        74                         -0.1947786              -5.3002
        75                         -0.1526458              -4.1537
        76                         -0.1423046              -3.8723
        77                         -0.1353438              -3.6829
        78                         -0.1204347              -3.2772
       ...                                ...                  ...
       134                          0.7260267              19.7562
      -------------------------------------------------------------
                  HL-Gap            0.0461789 Eh            1.2566 eV

Wiberg/Mayer (AO) data.
largest (>0.10) Wiberg bond orders for each atom

     #   Z sym  total        # sym  WBO       # sym  WBO       # sym  WBO
 ---------------------------------------------------------------------------
     1   6 C    3.844 --    26 H    0.984    27 H    0.980    28 H    0.979
                             2 O    0.864
     2   8 O    2.237 --     3 C    1.182     1 C    0.864     4 O    0.142
     3   6 C    3.849 --     4 O    1.716     2 O    1.182     5 C    0.787
     4   8 O    2.023 --     3 C    1.716     2 O    0.142
     5   6 C    3.969 --    24 C    1.060     7 N    1.012     6 C    0.952
                             3 C    0.787
     6   6 C    3.978 --    29 H    0.983    31 H    0.983    30 H    0.982
                             5 C    0.952
     7   7 N    3.016 --     8 C    1.589     5 C    1.012
     8   6 C    3.944 --     7 N    1.589    21 N    1.248     9 C    0.979
     9   6 C    3.935 --    11 C    0.980     8 C    0.979    10 C    0.978
                            12 N    0.930
    10   6 C    3.990 --    34 H    0.986    33 H    0.984    32 H    0.981
                             9 C    0.978
    11   6 C    3.991 --    35 H    0.986    37 H    0.983    36 H    0.981
                             9 C    0.980
    12   7 N    3.364 --    13 C    1.274     9 C    0.930    38 H    0.880
                            14 O    0.182
    13   6 C    3.921 --    14 O    1.581    12 N    1.274    15 C    0.985
    14   8 O    1.899 --    13 C    1.581    12 N    0.182
    15   6 C    3.873 --    16 N    1.613    20 O    1.064    13 C    0.985
    16   7 N    3.013 --    15 C    1.613    17 N    1.197
    17   7 N    2.980 --    18 C    1.608    16 N    1.197
    18   6 C    3.872 --    17 N    1.608    20 O    1.082    19 C    1.031
    19   6 C    3.987 --    18 C    1.031    41 H    0.983    40 H    0.964
                            39 H    0.963
    20   8 O    2.329 --    18 C    1.082    15 C    1.064
    21   7 N    3.011 --    22 C    1.308     8 C    1.248    23 O    0.162
                            24 C    0.114
    22   6 C    3.935 --    23 O    1.512    21 N    1.308    24 C    0.991
    23   8 O    1.882 --    22 C    1.512    21 N    0.162
    24   6 C    3.784 --    25 O    1.331     5 C    1.060    22 C    0.991
                            21 N    0.114
    25   8 O    2.252 --    24 C    1.331    42 H    0.746
    26   1 H    1.006 --     1 C    0.984
    27   1 H    1.002 --     1 C    0.980
    28   1 H    1.001 --     1 C    0.979
    29   1 H    1.001 --     6 C    0.983
    30   1 H    1.003 --     6 C    0.982
    31   1 H    0.998 --     6 C    0.983
    32   1 H    1.009 --    10 C    0.981
    33   1 H    1.009 --    10 C    0.984
    34   1 H    1.003 --    10 C    0.986
    35   1 H    1.003 --    11 C    0.986
    36   1 H    1.009 --    11 C    0.981
    37   1 H    1.011 --    11 C    0.983
    38   1 H    0.972 --    12 N    0.880
    39   1 H    0.997 --    19 C    0.963
    40   1 H    0.997 --    19 C    0.964
    41   1 H    0.999 --    19 C    0.983
    42   1 H    0.821 --    25 O    0.746
 ---------------------------------------------------------------------------

           -------------------------------------------------
          | TOTAL ENERGY              -82.955852465945 Eh   |
          | GRADIENT NORM               0.000715998361 Eh/α |
          | HOMO-LUMO GAP               1.256591767300 eV   |
           -------------------------------------------------

 * finished run on 2023/06/20 at 18:18:19.237
