   * xtb version 6.5.1 (579679a) compiled by 'ehlert@majestix' on 2022-07-11
          program call               : /lustre/hpc/kemi/ree/PhD/git/ReactivityQM/dep/xtb-6.5.1/bin/xtb --gfn 1 /lustre/hpc/kemi/ree/PhD/git/ReactivityQM/calculations/RaltegravirCLI/reac01prodE04/conf02/RaltegravirCLI_reac01prodE04_conf02_gfn1.xyz --opt --vfukui --chrg -1 --uhf 0 --alpb DMSO

   ID    Z sym.   atoms
    1    6 C      1, 2, 5-7
    2    7 N      3, 4
    3    8 O      8, 10
    4   17 Cl     9
    5    1 H      11-16

      * Solvation model:               ALPB
        Solvent                        DMSO
        Solvent mass                       7.8130E+01 g/mol
          :  Hamiltonian                  GFN1-xTB          :
 * total energy  :   -34.1287233 Eh     change       -0.1253397E-10 Eh
 * total energy  :   -34.1337645 Eh     change       -0.5041188E-02 Eh
 * total energy  :   -34.1359187 Eh     change       -0.2154209E-02 Eh
 * total energy  :   -34.1367361 Eh     change       -0.8173756E-03 Eh
 * total energy  :   -34.1377458 Eh     change       -0.1009720E-02 Eh
 * total energy  :   -34.1391011 Eh     change       -0.1355312E-02 Eh
 * total energy  :   -34.1392039 Eh     change       -0.1027473E-03 Eh
 * total energy  :   -34.1411882 Eh     change       -0.1984299E-02 Eh
 * total energy  :   -34.1420790 Eh     change       -0.8908017E-03 Eh
 * total energy  :   -34.1450374 Eh     change       -0.2958438E-02 Eh
 * total energy  :   -34.1513892 Eh     change       -0.1161893E-04 Eh
 * total energy  :   -34.1514041 Eh     change       -0.1488557E-04 Eh
 * total energy  :   -34.1514125 Eh     change       -0.8387105E-05 Eh
 * total energy  :   -34.1514244 Eh     change       -0.1187718E-04 Eh
 * total energy  :   -34.1514332 Eh     change       -0.8856146E-05 Eh
 * total energy  :   -34.1514454 Eh     change       -0.1216436E-04 Eh
 * total energy  :   -34.1514502 Eh     change       -0.4822828E-05 Eh
 * total energy  :   -34.1514554 Eh     change       -0.5196528E-05 Eh
 * total energy  :   -34.1514581 Eh     change       -0.2646013E-05 Eh
   *** GEOMETRY OPTIMIZATION CONVERGED AFTER 45 ITERATIONS ***

 final structure:
================
16
 xtb: 6.5.1 (579679a)
C            2.67518615081668       -0.56645674914806        0.11474487516367
C            1.22302609552596       -0.25606065456002        0.20726901367937
N            0.34188345778777       -1.02865516694016        0.71213660062604
N           -0.91640654057571       -0.34675005337413        0.62999060898926
C           -1.84223860957095       -1.18458421327391       -0.14595396179889
C           -0.59835224677726        0.91639852752826       -0.03499367982702
C           -1.41565273070705        1.97975725696140       -0.00593639657896
O           -2.61603680741861        2.11983163217635        0.23173049677178
Cl          -0.53023337061875        3.52963945059055       -0.73279335825623
O            0.79347650917937        0.92342029541932       -0.26996936049475
H            3.24706043866003        0.11825984103930        0.74147964930106
H            3.01495080011339       -0.44939707332478       -0.91308004276868
H            2.85382849157276       -1.58742390524369        0.44268063445381
H           -2.80368798004489       -0.67392567659909       -0.18379499983272
H           -1.95330952165408       -2.13752481804642        0.36807034946171
H           -1.47349313628904       -1.35652969320465       -1.16158042888958

          :  Hamiltonian                  GFN1-xTB          :
         :: total energy             -34.151458067824 Eh    ::
         :: gradient norm              0.000785869534 Eh/a0 ::
         :: HOMO-LUMO gap              2.684909070644 eV    ::
         :: SCC energy               -34.422873153124 Eh    ::
         :: -> Gsolv                  -0.094280687447 Eh    ::
         :: repulsion energy           0.278839467919 Eh    ::

    * Orbital Energies and Occupations

         #    Occupation            Energy/Eh            Energy/eV
      -------------------------------------------------------------
         1        2.0000           -0.8439969             -22.9663
       ...           ...                  ...                  ...
        16        2.0000           -0.5187405             -14.1156
        17        2.0000           -0.5142741             -13.9941
        18        2.0000           -0.5118639             -13.9285
        19        2.0000           -0.4997277             -13.5983
        20        2.0000           -0.4952160             -13.4755
        21        2.0000           -0.4774076             -12.9909
        22        2.0000           -0.4409613             -11.9992
        23        2.0000           -0.4399374             -11.9713
        24        2.0000           -0.4368143             -11.8863
        25        2.0000           -0.4278223             -11.6416
        26        2.0000           -0.4120998             -11.2138
        27        2.0000           -0.4040174             -10.9939
        28        2.0000           -0.3202734              -8.7151 (HOMO)
        29                         -0.2216048              -6.0302 (LUMO)
        30                         -0.1793581              -4.8806
        31                         -0.1568821              -4.2690
        32                         -0.1274812              -3.4689
        33                         -0.1013981              -2.7592
        34                         -0.0608466              -1.6557
        35                         -0.0598321              -1.6281
        36                         -0.0489771              -1.3327
        37                         -0.0448682              -1.2209
        38                         -0.0081045              -0.2205
        39                          0.0218758               0.5953
       ...                                ...                  ...
        57                          0.7882819              21.4502
      -------------------------------------------------------------
                  HL-Gap            0.0986686 Eh            2.6849 eV

Wiberg/Mayer (AO) data.
largest (>0.10) Wiberg bond orders for each atom

     #   Z sym  total        # sym  WBO       # sym  WBO       # sym  WBO
 ---------------------------------------------------------------------------
     1   6 C    3.994 --     2 C    1.018    13 H    0.986    12 H    0.973
                            11 H    0.969
     2   6 C    3.902 --     3 N    1.722    10 O    1.070     1 C    1.018
     3   7 N    2.956 --     2 C    1.722     4 N    0.992    10 O    0.124
     4   7 N    3.082 --     3 N    0.992     5 C    0.962     6 C    0.949
     5   6 C    3.975 --    15 H    0.989    14 H    0.987    16 H    0.984
                             4 N    0.962
     6   6 C    3.736 --     7 C    1.596     4 N    0.949    10 O    0.906
                             8 O    0.188
     7   6 C    3.884 --     6 C    1.596     8 O    1.522     9 Cl   0.642
     8   8 O    1.881 --     7 C    1.522     6 C    0.188     9 Cl   0.115
     9  17 Cl   0.809 --     7 C    0.642     8 O    0.115
    10   8 O    2.195 --     2 C    1.070     6 C    0.906     3 N    0.124
    11   1 H    1.002 --     1 C    0.969
    12   1 H    1.002 --     1 C    0.973
    13   1 H    1.004 --     1 C    0.986
    14   1 H    1.022 --     5 C    0.987
    15   1 H    1.021 --     5 C    0.989
    16   1 H    1.015 --     5 C    0.984
 ---------------------------------------------------------------------------

           -------------------------------------------------
          | TOTAL ENERGY              -34.151458067824 Eh   |
          | GRADIENT NORM               0.000785869534 Eh/α |
          | HOMO-LUMO GAP               2.684909070644 eV   |
           -------------------------------------------------

 * finished run on 2023/06/20 at 14:53:31.137
