   * xtb version 6.5.1 (579679a) compiled by 'ehlert@majestix' on 2022-07-11
          program call               : /lustre/hpc/kemi/ree/PhD/git/ReactivityQM/dep/xtb-6.5.1/bin/xtb --gfn 1 /lustre/hpc/kemi/ree/PhD/git/ReactivityQM/calculations/R02deprot/reac01prodN12/conf15/R02deprot_reac01prodN12_conf15_gfn1.xyz --opt --vfukui --chrg 0 --uhf 0 --alpb DMSO

   ID    Z sym.   atoms
    1    6 C      1, 3, 5, 7-10, 12, 13, 15, 18, 19, 22, 24
    2    8 O      2, 4, 14, 20, 23, 25
    3    7 N      6, 11, 16, 17, 21
    4    1 H      26-42

      * Solvation model:               ALPB
        Solvent                        DMSO
        Solvent mass                       7.8130E+01 g/mol
          :  Hamiltonian                  GFN1-xTB          :
 * total energy  :   -82.8422993 Eh     change       -0.4789058E-11 Eh
 * total energy  :   -82.8582667 Eh     change       -0.1596732E-01 Eh
 * total energy  :   -82.8650388 Eh     change       -0.6772141E-02 Eh
 * total energy  :   -82.8665699 Eh     change       -0.1531125E-02 Eh
 * total energy  :   -82.8677391 Eh     change       -0.1169200E-02 Eh
 * total energy  :   -82.8683302 Eh     change       -0.5910238E-03 Eh
 * total energy  :   -82.8687169 Eh     change       -0.3867142E-03 Eh
 * total energy  :   -82.8690153 Eh     change       -0.2984750E-03 Eh
 * total energy  :   -82.8692833 Eh     change       -0.2680094E-03 Eh
 * total energy  :   -82.8695707 Eh     change       -0.2873465E-03 Eh
 * total energy  :   -82.8738466 Eh     change       -0.2402657E-04 Eh
 * total energy  :   -82.8738764 Eh     change       -0.2978677E-04 Eh
 * total energy  :   -82.8738978 Eh     change       -0.2135128E-04 Eh
 * total energy  :   -82.8739174 Eh     change       -0.1965009E-04 Eh
 * total energy  :   -82.8739328 Eh     change       -0.1532122E-04 Eh
 * total energy  :   -82.8739440 Eh     change       -0.1129053E-04 Eh
 * total energy  :   -82.8739533 Eh     change       -0.9276043E-05 Eh
 * total energy  :   -82.8739601 Eh     change       -0.6767882E-05 Eh
 * total energy  :   -82.8739625 Eh     change       -0.2365651E-05 Eh
   *** GEOMETRY OPTIMIZATION CONVERGED AFTER 80 ITERATIONS ***

 final structure:
================
42
 xtb: 6.5.1 (579679a)
C            3.32784765222243        3.76062351518948       -1.09076086817237
O            3.34404497878149        2.44327561321407       -0.51567125348442
C            2.19899886793634        1.76121190069638       -0.57638829291847
O            1.19628104287842        2.19018879057988       -1.09197353499468
C            2.28708575031889        0.41441347510748        0.07120970526692
N            1.12397298042591       -0.24928079176476        0.10910881986765
C            1.10241181227334       -1.48696511929890        0.61413089126263
C           -0.25657670242102       -2.15028671508441        0.59487750695552
C           -0.44273077760932       -2.82526524967053       -0.77875814913713
C           -0.37906395608736       -3.18690252821487        1.72272362033502
N           -1.21508144214684       -1.10028453680253        0.79745204869544
C           -2.62489202101268       -1.18508168580327        0.48094625918610
C           -3.34180026001142       -0.52817004435111        1.75030636621743
O           -3.11285651280151       -2.32617408009442        0.19223257741869
C           -2.81564648746841       -0.08338770583733       -0.59203297390438
N           -3.47854561333129       -0.15013367364586       -1.69298400949095
N           -3.28310015158564        1.05672188275893       -2.31532979172033
C           -2.52230417748657        1.76823237483109       -1.54793454387467
C           -1.99765131864839        3.12946430097642       -1.78140207274345
O           -2.19248193042340        1.09780565911195       -0.42584742183825
N            2.14875626514119       -2.15865705404265        1.01084387697323
C            3.39159168624414       -1.58309412445346        1.05136837285065
O            4.37705472102247       -2.14458147623547        1.50391522566050
C            3.45365953857522       -0.18736763716803        0.53034203855310
O            4.64400844466789        0.38270317271620        0.59325478487738
H            3.08807930519940        3.69524167851797       -2.15366648095267
H            2.58127111225100        4.37317148067598       -0.58242853818650
H            4.32291723594484        4.17333906712348       -0.94725515906214
H           -1.37311202750824       -3.38752452550680       -0.81676350790618
H           -0.44472366705173       -2.06649801895502       -1.55914202402952
H            0.39080904969143       -3.50688207508602       -0.93866220497430
H           -1.34822420361757       -3.67890173969880        1.66744574540331
H            0.41885100821263       -3.91910852455313        1.60926583874858
H           -0.27751177601824       -2.69173298902395        2.68601456055104
H           -0.84078559284674       -0.17417784134871        0.96638126349128
H           -3.16079946233114       -1.19199825151267        2.58966441530579
H           -4.40237649918811       -0.47954966112710        1.52397758391578
H           -2.93686950363741        0.45899635371319        1.94112716509883
H           -2.33850210122094        3.49532978023144       -2.74668641122596
H           -2.33504057264020        3.80142288255264       -0.99314400133046
H           -0.90756346793713        3.10611301309748       -1.75832619427598
H            4.63060077323837        1.33375110819001        0.38511676758694

          :  Hamiltonian                  GFN1-xTB          :
         :: total energy             -82.873962454447 Eh    ::
         :: gradient norm              0.000423666033 Eh/a0 ::
         :: HOMO-LUMO gap              0.125946538443 eV    ::
         :: SCC energy               -83.634103391197 Eh    ::
         :: -> Gsolv                  -0.060964107784 Eh    ::
         :: repulsion energy           0.787642912660 Eh    ::

    * Orbital Energies and Occupations

         #    Occupation            Energy/Eh            Energy/eV
      -------------------------------------------------------------
         1        2.0000           -0.8678010             -23.6141
       ...           ...                  ...                  ...
        55        2.0000           -0.5055699             -13.7573
        56        2.0000           -0.5036948             -13.7062
        57        2.0000           -0.4933522             -13.4248
        58        2.0000           -0.4870097             -13.2522
        59        2.0000           -0.4810983             -13.0914
        60        2.0000           -0.4776064             -12.9963
        61        2.0000           -0.4634764             -12.6118
        62        2.0000           -0.4613984             -12.5553
        63        2.0000           -0.4596750             -12.5084
        64        2.0000           -0.4539684             -12.3531
        65        2.0000           -0.4434659             -12.0673
        66        1.9993           -0.4278966             -11.6437
        67        1.8394           -0.4225987             -11.4995 (HOMO)
        68        0.1613           -0.4179702             -11.3735 (LUMO)
        69                         -0.3207634              -8.7284
        70                         -0.2851016              -7.7580
        71                         -0.2727630              -7.4223
        72                         -0.2543782              -6.9220
        73                         -0.2369990              -6.4491
        74                         -0.1622246              -4.4144
        75                         -0.1386702              -3.7734
        76                         -0.1348749              -3.6701
        77                         -0.1333326              -3.6282
        78                         -0.1265770              -3.4443
       ...                                ...                  ...
       134                          0.7306458              19.8819
      -------------------------------------------------------------
                  HL-Gap            0.0046285 Eh            0.1259 eV

Wiberg/Mayer (AO) data.
largest (>0.10) Wiberg bond orders for each atom

     #   Z sym  total        # sym  WBO       # sym  WBO       # sym  WBO
 ---------------------------------------------------------------------------
     1   6 C    3.853 --    28 H    0.986    27 H    0.979    26 H    0.979
                             2 O    0.877
     2   8 O    2.210 --     3 C    1.105     1 C    0.877     4 O    0.133
     3   6 C    3.840 --     4 O    1.672     2 O    1.105     5 C    0.982
     4   8 O    1.953 --     3 C    1.672     2 O    0.133
     5   6 C    3.931 --    24 C    1.364     6 N    1.324     3 C    0.982
     6   7 N    3.015 --     5 C    1.324     7 C    1.307
     7   6 C    3.931 --    21 N    1.470     6 N    1.307     8 C    0.976
     8   6 C    3.928 --     7 C    0.976    11 N    0.972     9 C    0.946
                            10 C    0.944
     9   6 C    3.974 --    30 H    0.985    31 H    0.981    29 H    0.974
                             8 C    0.946
    10   6 C    3.973 --    34 H    0.985    32 H    0.983    33 H    0.978
                             8 C    0.944
    11   7 N    3.329 --     8 C    0.972    12 C    0.951    35 H    0.879
                            14 O    0.198
    12   6 C    3.898 --    14 O    1.282    11 N    0.951    15 C    0.827
                            13 C    0.761
    13   6 C    3.850 --    38 H    0.986    37 H    0.981    36 H    0.981
                            12 C    0.761
    14   8 O    1.675 --    12 C    1.282    11 N    0.198
    15   6 C    3.802 --    16 N    1.661    20 O    1.061    12 C    0.827
    16   7 N    2.982 --    15 C    1.661    17 N    1.151
    17   7 N    2.987 --    18 C    1.631    16 N    1.151
    18   6 C    3.858 --    17 N    1.631    20 O    1.051    19 C    1.032
    19   6 C    3.984 --    18 C    1.032    39 H    0.982    40 H    0.963
                            41 H    0.956
    20   8 O    2.313 --    15 C    1.061    18 C    1.051
    21   7 N    2.999 --     7 C    1.470    22 C    1.157
    22   6 C    3.883 --    23 O    1.601    21 N    1.157    24 C    1.002
    23   8 O    1.816 --    22 C    1.601
    24   6 C    3.766 --     5 C    1.364    25 O    1.164    22 C    1.002
    25   8 O    2.082 --    24 C    1.164    42 H    0.788
    26   1 H    1.004 --     1 C    0.979
    27   1 H    1.004 --     1 C    0.979
    28   1 H    1.007 --     1 C    0.986
    29   1 H    1.012 --     9 C    0.974
    30   1 H    1.001 --     9 C    0.985
    31   1 H    1.001 --     9 C    0.981
    32   1 H    1.006 --    10 C    0.983
    33   1 H    1.009 --    10 C    0.978
    34   1 H    1.003 --    10 C    0.985
    35   1 H    0.951 --    11 N    0.879
    36   1 H    0.996 --    13 C    0.981
    37   1 H    1.000 --    13 C    0.981
    38   1 H    0.999 --    13 C    0.986
    39   1 H    0.998 --    19 C    0.982
    40   1 H    0.997 --    19 C    0.963
    41   1 H    1.011 --    19 C    0.956
    42   1 H    0.842 --    25 O    0.788
 ---------------------------------------------------------------------------

           -------------------------------------------------
          | TOTAL ENERGY              -82.873962454447 Eh   |
          | GRADIENT NORM               0.000423666033 Eh/α |
          | HOMO-LUMO GAP               0.125946538443 eV   |
           -------------------------------------------------

 * finished run on 2023/06/20 at 18:21:02.446
