   * xtb version 6.5.1 (579679a) compiled by 'ehlert@majestix' on 2022-07-11
          program call               : /lustre/hpc/kemi/ree/PhD/git/ReactivityQM/dep/xtb-6.5.1/bin/xtb --gfn 1 /lustre/hpc/kemi/ree/PhD/git/ReactivityQM/calculations/RaltegravirCLI/reac02prodE01/conf11/RaltegravirCLI_reac02prodE01_conf11_gfn1.xyz --opt --vfukui --chrg -1 --uhf 0 --alpb DMSO

   ID    Z sym.   atoms
    1    6 C      1, 3-6, 9-11, 14-18, 20-22, 24
    2    7 N      2, 7, 8, 13
    3    8 O      12, 23, 25
    4    9 F      19
    5    1 H      26-47

      * Solvation model:               ALPB
        Solvent                        DMSO
        Solvent mass                       7.8130E+01 g/mol
          :  Hamiltonian                  GFN1-xTB          :
 * total energy  :   -80.1889288 Eh     change       -0.1972467E-10 Eh
 * total energy  :   -80.1980665 Eh     change       -0.9137695E-02 Eh
 * total energy  :   -80.2003665 Eh     change       -0.2300060E-02 Eh
 * total energy  :   -80.2008798 Eh     change       -0.5132385E-03 Eh
 * total energy  :   -80.2011878 Eh     change       -0.3080596E-03 Eh
 * total energy  :   -80.2013954 Eh     change       -0.2076006E-03 Eh
 * total energy  :   -80.2016231 Eh     change       -0.2276924E-03 Eh
 * total energy  :   -80.2018353 Eh     change       -0.2122392E-03 Eh
 * total energy  :   -80.2020180 Eh     change       -0.1826744E-03 Eh
 * total energy  :   -80.2021625 Eh     change       -0.1445015E-03 Eh
 * total energy  :   -80.2029904 Eh     change       -0.2277833E-04 Eh
 * total energy  :   -80.2030120 Eh     change       -0.2164199E-04 Eh
 * total energy  :   -80.2030453 Eh     change       -0.3334314E-04 Eh
 * total energy  :   -80.2030768 Eh     change       -0.3143700E-04 Eh
 * total energy  :   -80.2030896 Eh     change       -0.1278638E-04 Eh
 * total energy  :   -80.2031020 Eh     change       -0.1242827E-04 Eh
 * total energy  :   -80.2031104 Eh     change       -0.8416907E-05 Eh
 * total energy  :   -80.2031165 Eh     change       -0.6113996E-05 Eh
 * total energy  :   -80.2031210 Eh     change       -0.4514812E-05 Eh
   *** GEOMETRY OPTIMIZATION CONVERGED AFTER 36 ITERATIONS ***

 final structure:
================
47
 xtb: 6.5.1 (579679a)
C           -4.30871534605598       -1.66049214427828        0.93226922987204
N           -2.92535524751784       -1.57805681287953        0.46728621998911
C           -2.26701303638766       -0.41081532338664        0.16936552501411
C           -2.95202696985413        0.94950411474959        0.28866634218112
C           -2.04396011380226        2.03638910147346       -0.30738656374841
C           -3.21858808198279        1.27952582925615        1.76375795042913
N           -4.22490124114962        0.93638687499636       -0.43758664122895
N           -1.02534944217160       -0.40695159131636       -0.20307342715175
C           -0.29431139999614       -1.55413801783245       -0.34074471888716
C            1.23466251059233       -1.44501261443112       -0.72994205387770
C            1.36606491659226       -2.12159836138160       -2.14124923312116
O            2.02286315269349       -1.93567138233210        0.18949586307073
N            1.47068383818847        0.04301435681580       -1.02842192641960
C            1.70549230700485        0.81536150115522        0.20013186141113
C            3.14063567936812        1.26624094523443        0.32868494074616
C            3.44946848298790        2.61851456130942        0.46398677114543
C            4.76813151265502        3.04258039357570        0.57728677395068
C            5.76580317853179        2.08730873652473        0.54869493857840
F            7.05104195063387        2.49007698425583        0.65975354343001
C            5.50051692076502        0.73636086912334        0.41359773184337
C            4.17850997001344        0.33319951524667        0.30303891545685
C           -0.90942875583891       -2.74623051267248       -0.07546650103737
O           -0.30000777185739       -3.96250346807909       -0.19822227295285
C           -2.27878412797617       -2.80167009825330        0.35760322578847
O           -2.86009731350677       -3.86638022084102        0.61777832057392
H           -4.88684877233924       -0.82159762207229        0.55574966943821
H           -4.73848577617081       -2.59233244380360        0.56211549734172
H           -4.33148031964245       -1.67276587042168        2.02305282640971
H           -1.78786567025368        1.79380764331037       -1.33803274235921
H           -1.12532763239188        2.12514501857260        0.27163999215865
H           -2.56549759268618        2.99160646942879       -0.28865663100249
H           -3.94333121723002        0.59494021241733        2.19870585081809
H           -2.29132525599225        1.21942173955811        2.33332177881988
H           -3.61362477041270        2.29112162785998        1.84565948114484
H           -4.05046895457954        0.90608744884887       -1.43362815245506
H           -4.72074051815987        1.79354006728051       -0.24267410648380
H            1.12584723362952       -3.17967807873272       -2.05757949506545
H            2.39687417235559       -2.02429377326012       -2.47968514564477
H            0.70049042133632       -1.65129919151819       -2.86423702604288
H            2.32245174039114        0.08121149039833       -1.58605836894805
H            1.44404930613516        0.20226975537102        1.07514038806093
H            1.04778897975456        1.69493108315629        0.20214419358155
H            2.65528712335269        3.35669705075995        0.48704581391922
H            5.01670236665345        4.09027468927389        0.68416290128848
H            6.31425650686436        0.02241724888515        0.39674785442621
H            3.94041715234870       -0.72272468465810        0.20055718694172
H           -0.95450509488777       -4.64372411668700        0.02975641859842

          :  Hamiltonian                  GFN1-xTB          :
         :: total energy             -80.203121044968 Eh    ::
         :: gradient norm              0.000697449145 Eh/a0 ::
         :: HOMO-LUMO gap              1.868748205746 eV    ::
         :: SCC energy               -81.055700067111 Eh    ::
         :: -> Gsolv                  -0.117051516526 Eh    ::
         :: repulsion energy           0.883945819033 Eh    ::

    * Orbital Energies and Occupations

         #    Occupation            Energy/Eh            Energy/eV
      -------------------------------------------------------------
         1        2.0000           -0.8461664             -23.0254
       ...           ...                  ...                  ...
        56        2.0000           -0.4538807             -12.3507
        57        2.0000           -0.4455565             -12.1242
        58        2.0000           -0.4368634             -11.8877
        59        2.0000           -0.4295390             -11.6884
        60        2.0000           -0.4284737             -11.6594
        61        2.0000           -0.4283533             -11.6561
        62        2.0000           -0.4141971             -11.2709
        63        2.0000           -0.4103795             -11.1670
        64        2.0000           -0.4022930             -10.9469
        65        2.0000           -0.3850469             -10.4777
        66        2.0000           -0.3666849              -9.9780
        67        2.0000           -0.3347217              -9.1082
        68        2.0000           -0.3333366              -9.0706 (HOMO)
        69                         -0.2646613              -7.2018 (LUMO)
        70                         -0.2510724              -6.8320
        71                         -0.2415887              -6.5740
        72                         -0.2401664              -6.5353
        73                         -0.1337600              -3.6398
        74                         -0.1261615              -3.4330
        75                         -0.1220940              -3.3223
        76                         -0.1181933              -3.2162
        77                         -0.1114930              -3.0339
        78                         -0.1008699              -2.7448
        79                         -0.0898777              -2.4457
       ...                                ...                  ...
       144                          0.6932338              18.8639
      -------------------------------------------------------------
                  HL-Gap            0.0686752 Eh            1.8687 eV

Wiberg/Mayer (AO) data.
largest (>0.10) Wiberg bond orders for each atom

     #   Z sym  total        # sym  WBO       # sym  WBO       # sym  WBO
 ---------------------------------------------------------------------------
     1   6 C    3.934 --    28 H    0.978    27 H    0.977    26 H    0.970
                             2 N    0.937
     2   7 N    3.499 --     3 C    1.172    24 C    1.116     1 C    0.937
                            25 O    0.121
     3   6 C    3.931 --     8 N    1.561     2 N    1.172     4 C    0.974
     4   6 C    3.965 --     5 C    0.993     6 C    0.988     7 N    0.976
                             3 C    0.974
     5   6 C    3.996 --     4 C    0.993    31 H    0.986    29 H    0.984
                            30 H    0.979
     6   6 C    3.995 --     4 C    0.988    33 H    0.986    34 H    0.984
                            32 H    0.982
     7   7 N    2.992 --     4 C    0.976    35 H    0.943    36 H    0.943
     8   7 N    3.033 --     3 C    1.561     9 C    1.209
     9   6 C    3.918 --    22 C    1.508     8 N    1.209    10 C    0.891
    10   6 C    3.938 --    12 O    1.201    11 C    0.930     9 C    0.891
                            13 N    0.863
    11   6 C    3.988 --    39 H    0.991    38 H    0.986    37 H    0.985
                            10 C    0.930
    12   8 O    1.539 --    10 C    1.201
    13   7 N    2.971 --    14 C    0.982    40 H    0.958    10 C    0.863
    14   6 C    3.983 --    15 C    1.004    13 N    0.982    42 H    0.973
                            41 H    0.959
    15   6 C    3.985 --    16 C    1.417    21 C    1.402    14 C    1.004
    16   6 C    3.994 --    17 C    1.435    15 C    1.417    43 H    0.972
                            20 C    0.107
    17   6 C    3.992 --    16 C    1.435    18 C    1.408    44 H    0.971
                            21 C    0.111
    18   6 C    3.854 --    17 C    1.408    20 C    1.398    19 F    0.907
    19   9 F    1.029 --    18 C    0.907
    20   6 C    3.992 --    21 C    1.449    18 C    1.398    45 H    0.972
                            16 C    0.107
    21   6 C    3.988 --    20 C    1.449    15 C    1.402    46 H    0.959
                            17 C    0.111
    22   6 C    3.911 --     9 C    1.508    24 C    1.141    23 O    1.036
    23   8 O    2.026 --    22 C    1.036    47 H    0.833
    24   6 C    3.913 --    25 O    1.490    22 C    1.141     2 N    1.116
    25   8 O    1.840 --    24 C    1.490     2 N    0.121
    26   1 H    1.031 --     1 C    0.970
    27   1 H    1.014 --     1 C    0.977
    28   1 H    1.007 --     1 C    0.978
    29   1 H    1.013 --     5 C    0.984
    30   1 H    1.019 --     5 C    0.979
    31   1 H    1.005 --     5 C    0.986
    32   1 H    1.005 --     6 C    0.982
    33   1 H    1.004 --     6 C    0.986
    34   1 H    1.001 --     6 C    0.984
    35   1 H    0.959 --     7 N    0.943
    36   1 H    0.958 --     7 N    0.943
    37   1 H    1.023 --    11 C    0.985
    38   1 H    1.015 --    11 C    0.986
    39   1 H    1.012 --    11 C    0.991
    40   1 H    0.990 --    13 N    0.958
    41   1 H    1.031 --    14 C    0.959
    42   1 H    1.031 --    14 C    0.973
    43   1 H    1.004 --    16 C    0.972
    44   1 H    1.001 --    17 C    0.971
    45   1 H    1.002 --    20 C    0.972
    46   1 H    1.037 --    21 C    0.959
    47   1 H    0.876 --    23 O    0.833
 ---------------------------------------------------------------------------

           -------------------------------------------------
          | TOTAL ENERGY              -80.203121044968 Eh   |
          | GRADIENT NORM               0.000697449145 Eh/α |
          | HOMO-LUMO GAP               1.868748205746 eV   |
           -------------------------------------------------

 * finished run on 2023/06/20 at 14:56:07.907
