   * xtb version 6.5.1 (579679a) compiled by 'ehlert@majestix' on 2022-07-11
          program call               : /lustre/hpc/kemi/ree/PhD/git/ReactivityQM/dep/xtb-6.5.1/bin/xtb --gfn 1 /lustre/hpc/kemi/ree/PhD/git/ReactivityQM/calculations/R02methylcation/reac01prodE10/conf12/R02methylcation_reac01prodE10_conf12_gfn1.xyz --opt --vfukui --chrg -2 --uhf 0 --alpb DMSO

   ID    Z sym.   atoms
    1    6 C      1, 3, 5, 7-10, 12, 14, 17-19, 22, 24
    2    8 O      2, 4, 13, 20, 23, 25
    3    7 N      6, 11, 15, 16, 21
    4    1 H      26-42

      * Solvation model:               ALPB
        Solvent                        DMSO
        Solvent mass                       7.8130E+01 g/mol
          :  Hamiltonian                  GFN1-xTB          :
 * total energy  :   -83.5627944 Eh     change       -0.4364153E-10 Eh
 * total energy  :   -83.5790657 Eh     change       -0.1627140E-01 Eh
 * total energy  :   -83.5858973 Eh     change       -0.6831563E-02 Eh
 * total energy  :   -83.5871063 Eh     change       -0.1208997E-02 Eh
 * total energy  :   -83.5880366 Eh     change       -0.9302726E-03 Eh
 * total energy  :   -83.5883029 Eh     change       -0.2663665E-03 Eh
 * total energy  :   -83.5884669 Eh     change       -0.1639490E-03 Eh
 * total energy  :   -83.5885435 Eh     change       -0.7656606E-04 Eh
 * total energy  :   -83.5885855 Eh     change       -0.4199550E-04 Eh
 * total energy  :   -83.5886092 Eh     change       -0.2376225E-04 Eh
 * total energy  :   -83.5886622 Eh     change       -0.1677250E-04 Eh
 * total energy  :   -83.5886757 Eh     change       -0.1351517E-04 Eh
 * total energy  :   -83.5886881 Eh     change       -0.1236907E-04 Eh
 * total energy  :   -83.5887036 Eh     change       -0.1554268E-04 Eh
 * total energy  :   -83.5887224 Eh     change       -0.1878791E-04 Eh
 * total energy  :   -83.5887376 Eh     change       -0.1516299E-04 Eh
 * total energy  :   -83.5887477 Eh     change       -0.1009004E-04 Eh
 * total energy  :   -83.5887547 Eh     change       -0.7007008E-05 Eh
 * total energy  :   -83.5887574 Eh     change       -0.2683417E-05 Eh
   *** GEOMETRY OPTIMIZATION CONVERGED AFTER 22 ITERATIONS ***

 final structure:
================
42
 xtb: 6.5.1 (579679a)
C           -5.96801820422214        2.31005499956099       -0.31804243975262
O           -4.83197921701924        1.48917518923429       -0.11668951088527
C           -4.84152694398680        0.74310127418757        1.04715836885814
O           -5.79615053647157        0.83601960799803        1.81419727371780
C           -3.66676318498239       -0.08238100196801        1.18948982494016
N           -2.74117080986542        0.01522917130653        0.15818913552509
C           -1.67046903314568       -0.69118642634135        0.18023078783795
C           -0.68285110445290       -0.66810362489771       -0.97567946315990
C           -0.73756135967482        0.70380077358006       -1.66871348014921
C           -1.12450436338606       -1.77848857140537       -1.94796579948116
N            0.64138287471834       -0.96169624640990       -0.42229857772617
C            1.78479161924367       -0.81118815025648       -1.34157710974879
O            1.66265236536898       -1.11207781049541       -2.57883763660926
C            2.90482929672725       -0.39617673613415       -0.68512409069106
N            3.02775277589624       -0.04473734126967        0.68043740480282
N            4.29710413594862        0.32924402102868        0.78959553762210
C            4.79472121479707        0.76545780251941        2.07224590099727
C            4.98899712137023        0.25634384141349       -0.32605476507919
C            6.42382124650190        0.57896322030212       -0.52965790646105
O            4.20106708765854       -0.20396222130722       -1.33898165150830
N           -1.40712908958015       -1.57762438950980        1.20115623258780
C           -2.22676884754661       -1.77103564312884        2.28392494345485
O           -1.90074249043171       -2.58665352627403        3.15728524490733
C           -3.48653552676683       -0.95493206461686        2.30281135125663
O           -4.28130263449043       -1.08797183650666        3.26133905329863
H           -5.81990068354416        2.84189273633953       -1.25771215611216
H           -6.08113052390384        3.03381103884487        0.49687606083407
H           -6.88229947419330        1.70895286565099       -0.37951719151282
H           -1.76737480620607        0.93588767595969       -1.94194240361481
H           -0.37329375006459        1.47908907838434       -0.99420441357213
H           -0.12291204693505        0.69683476265770       -2.56807011850551
H           -0.50560918413047       -1.77874106722880       -2.84370303351618
H           -2.16408378360026       -1.61904506379254       -2.23680574629916
H           -1.03858277243463       -2.74999918058068       -1.46090989905303
H            0.81006152961098       -0.34684109548334        0.37418373247382
H            5.17132916531671        1.78476965842136        1.99561801182739
H            3.97456608891290        0.72551659161922        2.78586778977965
H            5.60252782956152        0.11080020472063        2.39783272187575
H            6.67949429527477        0.41284754153836       -1.57424429008877
H            7.06344695057280       -0.04968757932329        0.09340785640108
H            6.63526757038326        1.61961192373155       -0.27651149388323
H           -0.54515479682711       -2.10487440207668        1.16729094441722

          :  Hamiltonian                  GFN1-xTB          :
         :: total energy             -83.588757361181 Eh    ::
         :: gradient norm              0.000282249763 Eh/a0 ::
         :: HOMO-LUMO gap              0.138020547536 eV    ::
         :: SCC energy               -84.326028323603 Eh    ::
         :: -> Gsolv                  -0.285400382749 Eh    ::
         :: repulsion energy           0.762451924786 Eh    ::

    * Orbital Energies and Occupations

         #    Occupation            Energy/Eh            Energy/eV
      -------------------------------------------------------------
         1        2.0000           -0.8041407             -21.8818
       ...           ...                  ...                  ...
        56        2.0000           -0.4475180             -12.1776
        57        2.0000           -0.4434333             -12.0664
        58        2.0000           -0.4330598             -11.7842
        59        2.0000           -0.4203038             -11.4370
        60        2.0000           -0.4166458             -11.3375
        61        2.0000           -0.4063037             -11.0561
        62        2.0000           -0.3936178             -10.7109
        63        2.0000           -0.3751863             -10.2093
        64        2.0000           -0.3720836             -10.1249
        65        2.0000           -0.3586728              -9.7600
        66        2.0000           -0.3492457              -9.5035
        67        2.0000           -0.3449813              -9.3874
        68        1.8704           -0.2590993              -7.0505 (HOMO)
        69        0.1296           -0.2540272              -6.9124 (LUMO)
        70                         -0.2261809              -6.1547
        71                         -0.2141581              -5.8275
        72                         -0.1781506              -4.8477
        73                         -0.1397894              -3.8039
        74                         -0.1243723              -3.3843
        75                         -0.1158357              -3.1520
        76                         -0.1057644              -2.8780
        77                         -0.0919865              -2.5031
        78                         -0.0881506              -2.3987
        79                         -0.0876155              -2.3841
       ...                                ...                  ...
       134                          0.7635047              20.7760
      -------------------------------------------------------------
                  HL-Gap            0.0050722 Eh            0.1380 eV

Wiberg/Mayer (AO) data.
largest (>0.10) Wiberg bond orders for each atom

     #   Z sym  total        # sym  WBO       # sym  WBO       # sym  WBO
 ---------------------------------------------------------------------------
     1   6 C    3.908 --    26 H    0.987    28 H    0.980    27 H    0.980
                             2 O    0.937
     2   8 O    2.111 --     3 C    0.995     1 C    0.937     4 O    0.100
     3   6 C    3.814 --     4 O    1.557     5 C    1.156     2 O    0.995
     4   8 O    1.825 --     3 C    1.557     2 O    0.100
     5   6 C    3.902 --    24 C    1.252     3 C    1.156     6 N    1.137
                            25 O    0.122
     6   7 N    3.007 --     7 C    1.629     5 C    1.137
     7   6 C    3.927 --     6 N    1.629    21 N    1.103     8 C    0.975
     8   6 C    3.967 --     9 C    0.987    10 C    0.980     7 C    0.975
                            11 N    0.971
     9   6 C    3.996 --    30 H    0.987     8 C    0.987    29 H    0.985
                            31 H    0.984
    10   6 C    3.993 --    33 H    0.989    34 H    0.987     8 C    0.980
                            32 H    0.976
    11   7 N    3.051 --     8 C    0.971    35 H    0.942    12 C    0.922
    12   6 C    3.891 --    14 C    1.499    13 O    1.313    11 N    0.922
    13   8 O    1.643 --    12 C    1.313    14 C    0.144
    14   6 C    3.665 --    12 C    1.499    15 N    1.078    20 O    0.839
                            13 O    0.144
    15   7 N    2.744 --    16 N    1.175    14 C    1.078    18 C    0.297
    16   7 N    3.636 --    18 C    1.382    15 N    1.175    17 C    0.950
    17   6 C    3.953 --    37 H    0.985    36 H    0.981    38 H    0.981
                            16 N    0.950
    18   6 C    3.846 --    16 N    1.382    20 O    1.044    19 C    1.025
                            15 N    0.297
    19   6 C    3.993 --    18 C    1.025    39 H    0.983    41 H    0.972
                            40 H    0.971
    20   8 O    2.091 --    18 C    1.044    14 C    0.839
    21   7 N    3.415 --    22 C    1.153     7 C    1.103    42 H    0.895
                            23 O    0.127
    22   6 C    3.838 --    23 O    1.529    21 N    1.153    24 C    0.996
    23   8 O    1.792 --    22 C    1.529    21 N    0.127
    24   6 C    3.914 --    25 O    1.489     5 C    1.252    22 C    0.996
    25   8 O    1.775 --    24 C    1.489     5 C    0.122
    26   1 H    1.018 --     1 C    0.987
    27   1 H    1.017 --     1 C    0.980
    28   1 H    1.016 --     1 C    0.980
    29   1 H    1.021 --     9 C    0.985
    30   1 H    1.009 --     9 C    0.987
    31   1 H    1.020 --     9 C    0.984
    32   1 H    1.034 --    10 C    0.976
    33   1 H    1.010 --    10 C    0.989
    34   1 H    1.013 --    10 C    0.987
    35   1 H    0.993 --    11 N    0.942
    36   1 H    1.002 --    17 C    0.981
    37   1 H    1.012 --    17 C    0.985
    38   1 H    1.002 --    17 C    0.981
    39   1 H    1.002 --    19 C    0.983
    40   1 H    1.002 --    19 C    0.971
    41   1 H    1.003 --    19 C    0.972
    42   1 H    0.968 --    21 N    0.895
 ---------------------------------------------------------------------------

           -------------------------------------------------
          | TOTAL ENERGY              -83.588757361181 Eh   |
          | GRADIENT NORM               0.000282249763 Eh/α |
          | HOMO-LUMO GAP               0.138020547536 eV   |
           -------------------------------------------------

 * finished run on 2023/06/21 at 17:22:16.236
