   * xtb version 6.5.1 (579679a) compiled by 'ehlert@majestix' on 2022-07-11
          program call               : /lustre/hpc/kemi/ree/PhD/git/ReactivityQM/dep/xtb-6.5.1/bin/xtb --gfn 1 /lustre/hpc/kemi/ree/PhD/git/ReactivityQM/calculations/RaltegravirCLI/reac02prodN06/conf12/RaltegravirCLI_reac02prodN06_conf12_gfn1.xyz --opt --vfukui --chrg 1 --uhf 0 --alpb DMSO

   ID    Z sym.   atoms
    1    6 C      1, 3, 5, 7-9, 12-16, 18, 19, 21-24
    2    7 N      2, 11, 20, 25
    3    8 O      4, 6, 10
    4    9 F      17
    5    1 H      26-47

      * Solvation model:               ALPB
        Solvent                        DMSO
        Solvent mass                       7.8130E+01 g/mol
          :  Hamiltonian                  GFN1-xTB          :
 * total energy  :   -79.4675682 Eh     change       -0.3664553E-09 Eh
 * total energy  :   -79.4816967 Eh     change       -0.1412852E-01 Eh
 * total energy  :   -79.4872417 Eh     change       -0.5544998E-02 Eh
 * total energy  :   -79.4884307 Eh     change       -0.1189043E-02 Eh
 * total energy  :   -79.4892660 Eh     change       -0.8353243E-03 Eh
 * total energy  :   -79.4895103 Eh     change       -0.2442102E-03 Eh
 * total energy  :   -79.4897363 Eh     change       -0.2260590E-03 Eh
 * total energy  :   -79.4899179 Eh     change       -0.1815500E-03 Eh
 * total energy  :   -79.4900950 Eh     change       -0.1771723E-03 Eh
 * total energy  :   -79.4902881 Eh     change       -0.1930613E-03 Eh
 * total energy  :   -79.4933215 Eh     change       -0.1040570E-04 Eh
 * total energy  :   -79.4933344 Eh     change       -0.1280181E-04 Eh
 * total energy  :   -79.4933419 Eh     change       -0.7580469E-05 Eh
 * total energy  :   -79.4933506 Eh     change       -0.8652822E-05 Eh
 * total energy  :   -79.4933605 Eh     change       -0.9886102E-05 Eh
 * total energy  :   -79.4933711 Eh     change       -0.1060012E-04 Eh
 * total energy  :   -79.4933812 Eh     change       -0.1010544E-04 Eh
 * total energy  :   -79.4933863 Eh     change       -0.5101145E-05 Eh
 * total energy  :   -79.4933888 Eh     change       -0.2509855E-05 Eh
   *** GEOMETRY OPTIMIZATION CONVERGED AFTER 50 ITERATIONS ***

 final structure:
================
47
 xtb: 6.5.1 (579679a)
C           -2.78995515020359       -1.65186395142056       -0.65177173826219
N           -2.06302496824220       -0.38156897933583       -0.55442274647917
C           -1.31343793819883       -0.06558454075684       -1.65139242259036
O           -1.26884209541666       -0.71623778719995       -2.68257543928729
C           -0.51082402709378        1.16749678228160       -1.53460452459872
O            0.20516723914158        1.50638484898979       -2.55872745604354
C           -0.40027926022033        1.83342950344909       -0.27654818182470
C           -0.00156444708849        3.29993501767937       -0.22486013026971
C            0.91421108153161        0.88017379441379        0.23596005389441
O            0.69091554774242       -0.01783714558098        0.99002803028232
N            2.04762102724093        1.32562313358111       -0.24914629234916
C            3.32794891367275        0.83627673579029        0.30813224506984
C            3.62903104111815       -0.55434238653091       -0.19294794082312
C            4.21166078294219       -0.73452025926517       -1.44602325045724
C            4.48730087669021       -2.01046011899909       -1.91503032378145
C            4.16914080586057       -3.08941569936240       -1.10824885411197
F            4.43242387720604       -4.32363016737555       -1.55369946084607
C            3.58931712434190       -2.94386973243574        0.13991797181798
C            3.31717728102064       -1.66154946354563        0.59323060055504
N           -1.41021816316587        1.52510571253207        0.64704746016410
C           -2.13967467117689        0.47246631940665        0.54338923770799
C           -3.07534251920652        0.19808379425194        1.71237113641092
C           -3.14941905225978        1.44791186862204        2.60469516077969
C           -2.50383674960640       -0.97277301375611        2.52624497247979
N           -4.40770322327657       -0.14134100155973        1.22716408275579
H           -2.98471080750393       -1.84943790038763       -1.70518984189392
H           -2.16987036425221       -2.44813907444171       -0.24069594848117
H           -3.72554940144623       -1.57713737176767       -0.10197366334006
H            0.06747748758826        0.89181354645863       -3.31516612672553
H           -0.90765826484069        3.89649552832268       -0.32149498126644
H            0.46857634646757        3.52911120066435        0.72852507979906
H            0.67338439178107        3.54822941052154       -1.03955101771285
H            2.08829166038425        2.01250497259384       -0.98238695450496
H            4.08840865817260        1.54959517895809       -0.01008663347509
H            3.24356502672006        0.85100563028223        1.39728080482556
H            4.45018434999224        0.12673503779696       -2.05768781734787
H            4.93818096036164       -2.16676479139015       -2.88624612762298
H            3.35390781247220       -3.81380974148265        0.73926241587332
H            2.85500504118634       -1.51876089885846        1.56258688511760
H           -3.48235064674059        2.30594016457043        2.02354410215791
H           -2.17336405512693        1.67058275219354        3.03298457089255
H           -3.85958409909344        1.26805580076095        3.40989979954443
H           -3.07148174941511       -1.08103106915221        3.44917464142813
H           -2.56706230453328       -1.90453095701222        1.96890644644953
H           -1.46042947402018       -0.77649315439021        2.77111321629922
H           -4.98388582140894       -0.41090881386105        2.01292852457207
H           -4.82882608009544        0.66905628575513        0.79378443520896

          :  Hamiltonian                  GFN1-xTB          :
         :: total energy             -79.493388786941 Eh    ::
         :: gradient norm              0.000429819462 Eh/a0 ::
         :: HOMO-LUMO gap              0.670685438435 eV    ::
         :: SCC energy               -80.394759945512 Eh    ::
         :: -> Gsolv                  -0.102253263588 Eh    ::
         :: repulsion energy           0.933571074528 Eh    ::

    * Orbital Energies and Occupations

         #    Occupation            Energy/Eh            Energy/eV
      -------------------------------------------------------------
         1        2.0000           -0.8950761             -24.3563
       ...           ...                  ...                  ...
        55        2.0000           -0.5229242             -14.2295
        56        2.0000           -0.5151432             -14.0178
        57        2.0000           -0.5131730             -13.9641
        58        2.0000           -0.5091502             -13.8547
        59        2.0000           -0.4998885             -13.6027
        60        2.0000           -0.4919921             -13.3878
        61        2.0000           -0.4902572             -13.3406
        62        2.0000           -0.4862104             -13.2305
        63        2.0000           -0.4785576             -13.0222
        64        2.0000           -0.4738354             -12.8937
        65        2.0000           -0.4647820             -12.6474
        66        2.0000           -0.4527038             -12.3187
        67        2.0000           -0.4272789             -11.6269 (HOMO)
        68        0.0000           -0.4026317             -10.9562 (LUMO)
        69                         -0.3205547              -8.7227
        70                         -0.2920972              -7.9484
        71                         -0.2865264              -7.7968
        72                         -0.2832715              -7.7082
        73                         -0.2540373              -6.9127
        74                         -0.1620595              -4.4099
        75                         -0.1582143              -4.3052
        76                         -0.1508800              -4.1057
        77                         -0.1451104              -3.9487
        78                         -0.1424856              -3.8772
       ...                                ...                  ...
       144                          0.7422547              20.1978
      -------------------------------------------------------------
                  HL-Gap            0.0246472 Eh            0.6707 eV

Wiberg/Mayer (AO) data.
largest (>0.10) Wiberg bond orders for each atom

     #   Z sym  total        # sym  WBO       # sym  WBO       # sym  WBO
 ---------------------------------------------------------------------------
     1   6 C    3.897 --    26 H    0.974    27 H    0.968    28 H    0.958
                             2 N    0.916
     2   7 N    3.533 --     3 C    1.194    21 C    1.103     1 C    0.916
                             4 O    0.164
     3   6 C    3.927 --     4 O    1.586     2 N    1.194     5 C    1.011
     4   8 O    1.942 --     3 C    1.586     2 N    0.164
     5   6 C    3.845 --     6 O    1.266     7 C    1.150     3 C    1.011
                             9 C    0.111
     6   8 O    2.218 --     5 C    1.266    29 H    0.758
     7   6 C    3.959 --     5 C    1.150    20 N    1.061     8 C    0.978
                             9 C    0.595
     8   6 C    3.975 --    31 H    0.980    32 H    0.980     7 C    0.978
                            30 H    0.968
     9   6 C    3.904 --    10 O    1.698    11 N    1.376     7 C    0.595
                             5 C    0.111
    10   8 O    2.082 --     9 C    1.698    11 N    0.181
    11   7 N    3.402 --     9 C    1.376    12 C    0.882    33 H    0.882
                            10 O    0.181
    12   6 C    3.907 --    13 C    0.998    35 H    0.972    34 H    0.971
                            11 N    0.882
    13   6 C    3.984 --    19 C    1.415    14 C    1.414    12 C    0.998
    14   6 C    3.993 --    15 C    1.448    13 C    1.414    36 H    0.971
                            18 C    0.110
    15   6 C    3.990 --    14 C    1.448    16 C    1.395    37 H    0.968
                            19 C    0.109
    16   6 C    3.860 --    18 C    1.398    15 C    1.395    17 F    0.935
    17   9 F    1.066 --    16 C    0.935
    18   6 C    3.991 --    19 C    1.446    16 C    1.398    38 H    0.968
                            14 C    0.110
    19   6 C    3.991 --    18 C    1.446    13 C    1.415    39 H    0.969
                            15 C    0.109
    20   7 N    3.031 --    21 C    1.656     7 C    1.061
    21   6 C    3.903 --    20 N    1.656     2 N    1.103    22 C    0.975
    22   6 C    3.961 --    23 C    0.989    25 N    0.984    24 C    0.976
                            21 C    0.975
    23   6 C    3.992 --    22 C    0.989    42 H    0.984    40 H    0.984
                            41 H    0.983
    24   6 C    3.991 --    45 H    0.984    44 H    0.982    43 H    0.981
                            22 C    0.976
    25   7 N    3.000 --    22 C    0.984    47 H    0.937    46 H    0.933
    26   1 H    1.002 --     1 C    0.974
    27   1 H    0.999 --     1 C    0.968
    28   1 H    1.024 --     1 C    0.958
    29   1 H    0.804 --     6 O    0.758
    30   1 H    0.996 --     8 C    0.968
    31   1 H    0.997 --     8 C    0.980
    32   1 H    0.996 --     8 C    0.980
    33   1 H    0.927 --    11 N    0.882
    34   1 H    0.996 --    12 C    0.971
    35   1 H    0.997 --    12 C    0.972
    36   1 H    0.997 --    14 C    0.971
    37   1 H    0.996 --    15 C    0.968
    38   1 H    0.996 --    18 C    0.968
    39   1 H    1.004 --    19 C    0.969
    40   1 H    1.006 --    23 C    0.984
    41   1 H    1.009 --    23 C    0.983
    42   1 H    1.002 --    23 C    0.984
    43   1 H    0.998 --    24 C    0.981
    44   1 H    1.002 --    24 C    0.982
    45   1 H    1.005 --    24 C    0.984
    46   1 H    0.948 --    25 N    0.933
    47   1 H    0.951 --    25 N    0.937
 ---------------------------------------------------------------------------

           -------------------------------------------------
          | TOTAL ENERGY              -79.493388786941 Eh   |
          | GRADIENT NORM               0.000429819462 Eh/α |
          | HOMO-LUMO GAP               0.670685438435 eV   |
           -------------------------------------------------

 * finished run on 2023/06/20 at 15:23:16.105
