   * xtb version 6.5.1 (579679a) compiled by 'ehlert@majestix' on 2022-07-11
          program call               : /lustre/hpc/kemi/ree/PhD/git/ReactivityQM/dep/xtb-6.5.1/bin/xtb --gfn 1 /lustre/hpc/kemi/ree/PhD/git/ReactivityQM/calculations/RaltegravirCLI/reac02prodN10/conf12/RaltegravirCLI_reac02prodN10_conf12_gfn1.xyz --opt --vfukui --chrg 1 --uhf 0 --alpb DMSO

   ID    Z sym.   atoms
    1    6 C      1-5, 7, 9, 11-14, 17, 18, 20, 22-24
    2    7 N      6, 10, 15, 16
    3    8 O      8, 19, 21
    4    9 F      25
    5    1 H      26-47

      * Solvation model:               ALPB
        Solvent                        DMSO
        Solvent mass                       7.8130E+01 g/mol
          :  Hamiltonian                  GFN1-xTB          :
 * total energy  :   -79.4691103 Eh     change       -0.9947598E-12 Eh
 * total energy  :   -79.4779695 Eh     change       -0.8859149E-02 Eh
 * total energy  :   -79.4801509 Eh     change       -0.2181465E-02 Eh
 * total energy  :   -79.4805386 Eh     change       -0.3876434E-03 Eh
 * total energy  :   -79.4808699 Eh     change       -0.3313594E-03 Eh
 * total energy  :   -79.4810246 Eh     change       -0.1546878E-03 Eh
 * total energy  :   -79.4811968 Eh     change       -0.1721530E-03 Eh
 * total energy  :   -79.4813285 Eh     change       -0.1317348E-03 Eh
 * total energy  :   -79.4814453 Eh     change       -0.1168528E-03 Eh
 * total energy  :   -79.4815881 Eh     change       -0.1427256E-03 Eh
 * total energy  :   -79.4853345 Eh     change       -0.2031492E-04 Eh
 * total energy  :   -79.4853451 Eh     change       -0.1051400E-04 Eh
 * total energy  :   -79.4853529 Eh     change       -0.7873980E-05 Eh
 * total energy  :   -79.4853606 Eh     change       -0.7673084E-05 Eh
 * total energy  :   -79.4853681 Eh     change       -0.7504597E-05 Eh
 * total energy  :   -79.4853757 Eh     change       -0.7552416E-05 Eh
 * total energy  :   -79.4853829 Eh     change       -0.7215796E-05 Eh
 * total energy  :   -79.4853884 Eh     change       -0.5530186E-05 Eh
 * total energy  :   -79.4853931 Eh     change       -0.4651448E-05 Eh
   *** GEOMETRY OPTIMIZATION CONVERGED AFTER 57 ITERATIONS ***

 final structure:
================
47
 xtb: 6.5.1 (579679a)
C            4.44776505421305        2.02026668841373        1.28411593588085
C            4.75996744498781        0.88614760056110        0.26846508569200
C            3.60920762136094       -0.00664481038699        0.03905685505925
C            3.70441732182995       -1.36853323945859        0.12587150617758
C            2.51628123227538       -2.27929704091510       -0.10204660122543
N            1.33990232269578       -1.54389680234721       -0.50286074832721
C            0.36797848629995       -1.24817196003873        0.39748372625338
O            0.36999165252761       -1.68529002771955        1.53564082491485
C           -0.71299969155903       -0.35689092675759       -0.13544108811906
N           -1.94592416113746       -0.52555462798673        0.41955322041332
C           -2.95839943921741        0.19856201819069        0.05149079454757
C           -4.29089673797259       -0.15097388570832        0.70291673231461
C           -5.06498292407068       -1.08771381017381       -0.23671553479115
C           -4.02689883804476       -0.87325737848063        2.03617300888780
N           -5.07765621370371        1.04634521203528        0.95386536140606
N           -2.84506559975625        1.17107874508787       -0.90888489097367
C           -3.96820503371143        2.00359430559037       -1.35102294805710
C           -1.62520394229219        1.45327126471239       -1.49954247248500
O           -1.47530363681213        2.33742317008164       -2.33889718276942
C           -0.52409685451506        0.61488834329510       -1.07142757194054
O            0.67278831625389        0.88454067377241       -1.64292154326746
C            4.94602042573116       -1.95816112296238        0.45101426702290
C            6.08981650959066       -1.19750336337130        0.68161000144888
C            5.99514180073534        0.16693959332576        0.60456299693315
F            7.04818937215923        0.90815402037409        0.83428946234281
H            5.30647037398729        2.68461086341453        1.35244723702137
H            3.57986965585401        2.57830952096312        0.94222514595292
H            4.24164590895125        1.58535140017542        2.25963661439287
H            4.95029096128237        1.41490833171231       -0.68253274211073
H            2.66769263400790        0.47033685197021       -0.21384123585130
H            2.76584385902155       -3.01450173856154       -0.87147821567126
H            2.28755365448963       -2.81056958676067        0.82898024193292
H            1.33769712637140       -1.13543979154242       -1.42109950696499
H           -4.46343045330409       -1.96894766346910       -0.45618964460198
H           -5.99087946492577       -1.40204933878691        0.24295409915150
H           -5.30970200042105       -0.58916091033387       -1.17268758371886
H           -3.49096395160310       -1.80502804609015        1.86064398329721
H           -3.42987975595170       -0.24150447405503        2.69188433810629
H           -4.97674264226886       -1.09154579591439        2.52061067823862
H           -6.02628485362027        0.79859074009765        1.19463821193738
H           -4.67737422737414        1.58250748894011        1.71111375224754
H           -4.85207120542214        1.39188585339875       -1.50238255066297
H           -4.17759194266231        2.76321781315797       -0.59982881649640
H           -3.68520749797253        2.48182878743216       -2.28835944701395
H            0.54547543695968        1.60482129575585       -2.29115412727157
H            5.01269209942409       -3.03802551264646        0.52679051257907
H            7.03305879732665       -1.66891872796830        0.92897085818333

          :  Hamiltonian                  GFN1-xTB          :
         :: total energy             -79.485393064940 Eh    ::
         :: gradient norm              0.000295389081 Eh/a0 ::
         :: HOMO-LUMO gap              0.160660169999 eV    ::
         :: SCC energy               -80.368323223725 Eh    ::
         :: -> Gsolv                  -0.106193955033 Eh    ::
         :: repulsion energy           0.912994501750 Eh    ::

    * Orbital Energies and Occupations

         #    Occupation            Energy/Eh            Energy/eV
      -------------------------------------------------------------
         1        2.0000           -0.9437978             -25.6820
       ...           ...                  ...                  ...
        55        2.0000           -0.5198272             -14.1452
        56        2.0000           -0.5156701             -14.0321
        57        2.0000           -0.5091724             -13.8553
        58        2.0000           -0.5010352             -13.6339
        59        2.0000           -0.4997332             -13.5984
        60        2.0000           -0.4930872             -13.4176
        61        2.0000           -0.4782121             -13.0128
        62        2.0000           -0.4731718             -12.8757
        63        2.0000           -0.4606246             -12.5342
        64        2.0000           -0.4563443             -12.4178
        65        2.0000           -0.4434684             -12.0674
        66        1.9999           -0.4293702             -11.6838
        67        1.9144           -0.4223575             -11.4929 (HOMO)
        68        0.0856           -0.4164533             -11.3323 (LUMO)
        69                         -0.3250810              -8.8459
        70                         -0.3182253              -8.6594
        71                         -0.2823058              -7.6819
        72                         -0.2470955              -6.7238
        73                         -0.2421897              -6.5903
        74                         -0.1628393              -4.4311
        75                         -0.1577417              -4.2924
        76                         -0.1525242              -4.1504
        77                         -0.1469768              -3.9994
        78                         -0.1372284              -3.7342
       ...                                ...                  ...
       144                          0.7085333              19.2802
      -------------------------------------------------------------
                  HL-Gap            0.0059042 Eh            0.1607 eV

Wiberg/Mayer (AO) data.
largest (>0.10) Wiberg bond orders for each atom

     #   Z sym  total        # sym  WBO       # sym  WBO       # sym  WBO
 ---------------------------------------------------------------------------
     1   6 C    3.956 --    28 H    0.985    27 H    0.983    26 H    0.982
                             2 C    0.907
     2   6 C    3.986 --     3 C    1.080    24 C    1.066     1 C    0.907
                            29 H    0.850
     3   6 C    3.919 --     4 C    1.563     2 C    1.080    30 H    0.957
     4   6 C    3.982 --     3 C    1.563    22 C    1.305     5 C    0.996
     5   6 C    3.952 --     4 C    0.996     6 N    0.968    31 H    0.960
                            32 H    0.951
     6   7 N    3.324 --     7 C    1.228     5 C    0.968    33 H    0.889
                             8 O    0.165
     7   6 C    3.899 --     8 O    1.608     6 N    1.228     9 C    0.983
     8   8 O    1.898 --     7 C    1.608     6 N    0.165
     9   6 C    3.966 --    20 C    1.511    10 N    1.205     7 C    0.983
    10   7 N    3.026 --    11 C    1.553     9 C    1.205
    11   6 C    3.920 --    10 N    1.553    16 N    1.182    12 C    0.975
    12   6 C    3.956 --    15 N    0.984    14 C    0.981    13 C    0.980
                            11 C    0.975
    13   6 C    3.992 --    34 H    0.985    35 H    0.982    12 C    0.980
                            36 H    0.979
    14   6 C    3.979 --    39 H    0.986    38 H    0.985    37 H    0.981
                            12 C    0.981
    15   7 N    2.947 --    12 C    0.984    41 H    0.933    40 H    0.930
    16   7 N    3.516 --    11 C    1.182    18 C    1.130    17 C    0.925
                            19 O    0.132
    17   6 C    3.916 --    42 H    0.977    44 H    0.975    43 H    0.975
                            16 N    0.925
    18   6 C    3.917 --    19 O    1.544    16 N    1.130    20 C    1.093
    19   8 O    1.893 --    18 C    1.544    16 N    0.132
    20   6 C    3.913 --     9 C    1.511    18 C    1.093    21 O    1.062
    21   8 O    2.056 --    20 C    1.062    45 H    0.799
    22   6 C    3.898 --    23 C    1.404     4 C    1.305    46 H    0.965
    23   6 C    3.981 --    24 C    1.468    22 C    1.404    47 H    0.956
    24   6 C    3.803 --    23 C    1.468     2 C    1.066    25 F    1.028
    25   9 F    1.189 --    24 C    1.028
    26   1 H    0.996 --     1 C    0.982
    27   1 H    0.993 --     1 C    0.983
    28   1 H    0.994 --     1 C    0.985
    29   1 H    0.971 --     2 C    0.850
    30   1 H    1.007 --     3 C    0.957
    31   1 H    0.998 --     5 C    0.960
    32   1 H    1.006 --     5 C    0.951
    33   1 H    0.937 --     6 N    0.889
    34   1 H    1.003 --    13 C    0.985
    35   1 H    0.998 --    13 C    0.982
    36   1 H    1.003 --    13 C    0.979
    37   1 H    1.012 --    14 C    0.981
    38   1 H    1.006 --    14 C    0.985
    39   1 H    1.002 --    14 C    0.986
    40   1 H    0.946 --    15 N    0.930
    41   1 H    0.949 --    15 N    0.933
    42   1 H    1.018 --    17 C    0.977
    43   1 H    1.014 --    17 C    0.975
    44   1 H    1.007 --    17 C    0.975
    45   1 H    0.842 --    21 O    0.799
    46   1 H    0.989 --    22 C    0.965
    47   1 H    0.985 --    23 C    0.956
 ---------------------------------------------------------------------------

           -------------------------------------------------
          | TOTAL ENERGY              -79.485393064940 Eh   |
          | GRADIENT NORM               0.000295389081 Eh/α |
          | HOMO-LUMO GAP               0.160660169999 eV   |
           -------------------------------------------------

 * finished run on 2023/06/20 at 15:30:15.932
