                         Program Version 5.0.1 -  RELEASE  -
|  1> # ORCA input file
|  2> ! SP r2SCAN-3c CPCM
|  3>
|  4> %maxcore 1875.0
|  5> %pal nprocs 4 end
|  6> %cpcm smd true SMDsolvent "DMSO" end
|  7>
|  8> *xyz -1 1
|  9> C       2.760777   -0.395452   -0.547114
| 10> C       1.400516   -0.128525   -0.022597
| 11> N       1.130573    0.621798    0.969617
| 12> N      -0.296148    0.597742    1.123595
| 13> C      -0.808381   -0.290190    0.027236
| 14> C      -1.942465    0.162798   -0.848069
| 15> C      -0.804760   -0.646298    1.438132
| 16> O      -1.015038   -1.377631    2.354194
| 17> Cl     -3.417276    2.770367    1.385178
| 18> O       0.357417   -0.726230   -0.648362
| 19> H       2.812734   -0.110002   -1.597296
| 20> H       3.496288    0.164750    0.024858
| 21> H       2.976663   -1.460950   -0.478219
| 22> H      -1.553517    0.767589   -1.665080
| 23> H      -2.640375    0.752406   -0.255116
| 24> H      -2.457011   -0.702175   -1.260955
| 25> **                         ****END OF INPUT****

CARTESIAN COORDINATES (ANGSTROEM)
---------------------------------
  C      2.760777   -0.395452   -0.547114
  C      1.400516   -0.128525   -0.022597
  N      1.130573    0.621798    0.969617
  N     -0.296148    0.597742    1.123595
  C     -0.808381   -0.290190    0.027236
  C     -1.942465    0.162798   -0.848069
  C     -0.804760   -0.646298    1.438132
  O     -1.015038   -1.377631    2.354194
  Cl    -3.417276    2.770367    1.385178
  O      0.357417   -0.726230   -0.648362
  H      2.812734   -0.110002   -1.597296
  H      3.496288    0.164750    0.024858
  H      2.976663   -1.460950   -0.478219
  H     -1.553517    0.767589   -1.665080
  H     -2.640375    0.752406   -0.255116
  H     -2.457011   -0.702175   -1.260955

 Total Charge           Charge          ....   -1
 Multiplicity           Mult            ....    1
 Number of Electrons    NEL             ....   84
 Basis Dimension        Dim             ....  248

ORBITAL ENERGIES
----------------

  NO   OCC          E(Eh)            E(eV)
   0   2.0000    -101.073335     -2750.3453
   1   2.0000     -19.023295      -517.6502
   2   2.0000     -18.976185      -516.3682
   3   2.0000     -14.218100      -386.8942
   4   2.0000     -14.193819      -386.2334
   5   2.0000     -10.160613      -276.4843
   6   2.0000     -10.144404      -276.0433
   7   2.0000     -10.143939      -276.0306
   8   2.0000     -10.041593      -273.2456
   9   2.0000     -10.026358      -272.8311
  10   2.0000      -9.229497      -251.1474
  11   2.0000      -6.969093      -189.6387
  12   2.0000      -6.969091      -189.6386
  13   2.0000      -6.968881      -189.6329
  14   2.0000      -1.117802       -30.4169
  15   2.0000      -1.045381       -28.4463
  16   2.0000      -0.978392       -26.6234
  17   2.0000      -0.877446       -23.8765
  18   2.0000      -0.725518       -19.7423
  19   2.0000      -0.712294       -19.3825
  20   2.0000      -0.627463       -17.0741
  21   2.0000      -0.618690       -16.8354
  22   2.0000      -0.599589       -16.3157
  23   2.0000      -0.514899       -14.0111
  24   2.0000      -0.484150       -13.1744
  25   2.0000      -0.463718       -12.6184
  26   2.0000      -0.450988       -12.2720
  27   2.0000      -0.413422       -11.2498
  28   2.0000      -0.411398       -11.1947
  29   2.0000      -0.391380       -10.6500
  30   2.0000      -0.379196       -10.3184
  31   2.0000      -0.374017       -10.1775
  32   2.0000      -0.365403        -9.9431
  33   2.0000      -0.354808        -9.6548
  34   2.0000      -0.335506        -9.1296
  35   2.0000      -0.311636        -8.4801
  36   2.0000      -0.295629        -8.0445
  37   2.0000      -0.273369        -7.4387
  38   2.0000      -0.202034        -5.4976
  39   2.0000      -0.189774        -5.1640
  40   2.0000      -0.189301        -5.1511
  41   2.0000      -0.186452        -5.0736
  42   0.0000      -0.076073        -2.0700
  43   0.0000      -0.025275        -0.6878
  44   0.0000       0.060201         1.6382
  45   0.0000       0.074597         2.0299
  46   0.0000       0.108237         2.9453

MULLIKEN ATOMIC CHARGES
-----------------------
   0 C :   -0.631304
   1 C :    0.399848
   2 N :   -0.256493
   3 N :   -0.192648
   4 C :    0.255735
   5 C :   -0.590308
   6 C :    0.250248
   7 O :   -0.340809
   8 Cl:   -0.961652
   9 O :   -0.123810
  10 H :    0.198608
  11 H :    0.201610
  12 H :    0.200398
  13 H :    0.185933
  14 H :    0.216544
  15 H :    0.188100
Sum of atomic charges:   -1.0000000

LOEWDIN ATOMIC CHARGES
----------------------
   0 C :   -0.310302
   1 C :    0.378223
   2 N :   -0.359525
   3 N :   -0.446955
   4 C :    0.311203
   5 C :   -0.353078
   6 C :    0.403172
   7 O :   -0.323805
   8 Cl:   -0.952726
   9 O :   -0.464830
  10 H :    0.190649
  11 H :    0.188999
  12 H :    0.192254
  13 H :    0.179870
  14 H :    0.189176
  15 H :    0.177675

  Mayer bond orders larger than 0.100000
B(  0-C ,  1-C ) :   0.8656 B(  0-C , 10-H ) :   0.9421 B(  0-C , 11-H ) :   0.9844
B(  0-C , 12-H ) :   0.9324 B(  1-C ,  2-N ) :   1.7707 B(  1-C ,  9-O ) :   1.0560
B(  2-N ,  3-N ) :   1.0291 B(  3-N ,  4-C ) :   0.7780 B(  3-N ,  6-C ) :   0.9073
B(  4-C ,  5-C ) :   0.8560 B(  4-C ,  6-C ) :   0.9433 B(  4-C ,  9-O ) :   0.8502
B(  5-C , 13-H ) :   0.9606 B(  5-C , 14-H ) :   0.9504 B(  5-C , 15-H ) :   0.9556
B(  6-C ,  7-O ) :   2.1669

Dispersion correction           -0.005231273
FINAL SINGLE POINT ENERGY      -914.271520654594

DIPOLE MOMENT
-------------
                                X             Y             Z
Electronic contribution:     -4.63793       1.66858       6.01808
Nuclear contribution   :     10.00118      -6.04812      -9.43647
                        -----------------------------------------
Total Dipole Moment    :      5.36325      -4.37953      -3.41838
                        -----------------------------------------
Magnitude (a.u.)       :      7.72205
Magnitude (Debye)      :     19.62790

Rotational constants in cm-1:     0.061401     0.018337     0.017446
Rotational constants in MHz :  1840.764560   549.718068   523.026788

                             ****ORCA TERMINATED NORMALLY****
TOTAL RUN TIME: 0 days 0 hours 0 minutes 26 seconds 622 msec
