   * xtb version 6.5.1 (579679a) compiled by 'ehlert@majestix' on 2022-07-11
          program call               : /lustre/hpc/kemi/ree/PhD/git/ReactivityQM/dep/xtb-6.5.1/bin/xtb --gfn 1 /lustre/hpc/kemi/ree/PhD/git/ReactivityQM/calculations/RaltegravirCLI/reac01prodE05/conf09/RaltegravirCLI_reac01prodE05_conf09_gfn1.xyz --opt --vfukui --chrg -1 --uhf 0 --alpb DMSO

   ID    Z sym.   atoms
    1    6 C      1, 2, 5-7
    2    7 N      3, 4
    3    8 O      8, 10
    4   17 Cl     9
    5    1 H      11-16

      * Solvation model:               ALPB
        Solvent                        DMSO
        Solvent mass                       7.8130E+01 g/mol
          :  Hamiltonian                  GFN1-xTB          :
 * total energy  :   -34.1134835 Eh     change       -0.1080025E-10 Eh
 * total energy  :   -34.1238999 Eh     change       -0.1041647E-01 Eh
 * total energy  :   -34.1289625 Eh     change       -0.5062579E-02 Eh
 * total energy  :   -34.1309308 Eh     change       -0.1968340E-02 Eh
 * total energy  :   -34.1325251 Eh     change       -0.1594295E-02 Eh
 * total energy  :   -34.1336771 Eh     change       -0.1151971E-02 Eh
 * total energy  :   -34.1354070 Eh     change       -0.1729868E-02 Eh
 * total energy  :   -34.1374468 Eh     change       -0.2039789E-02 Eh
 * total energy  :   -34.1413742 Eh     change       -0.3927445E-02 Eh
 * total energy  :   -34.1317085 Eh     change        0.9665670E-02 Eh
 * total energy  :   -34.1664585 Eh     change        0.4277112E-05 Eh
 * total energy  :   -34.1664841 Eh     change       -0.2561377E-04 Eh
 * total energy  :   -34.1665225 Eh     change       -0.3831921E-04 Eh
 * total energy  :   -34.1665414 Eh     change       -0.1895762E-04 Eh
 * total energy  :   -34.1665685 Eh     change       -0.2711244E-04 Eh
 * total energy  :   -34.1665761 Eh     change       -0.7576351E-05 Eh
 * total energy  :   -34.1665994 Eh     change       -0.2327635E-04 Eh
 * total energy  :   -34.1666048 Eh     change       -0.5459018E-05 Eh
 * total energy  :   -34.1666097 Eh     change       -0.4852836E-05 Eh
   *** GEOMETRY OPTIMIZATION CONVERGED AFTER 67 ITERATIONS ***

 final structure:
================
16
 xtb: 6.5.1 (579679a)
C            2.76077740079616       -0.39545166808690       -0.54711448452528
C            1.40051630700586       -0.12852454187929       -0.02259710943165
N            1.13057328676707        0.62179776947040        0.96961673774153
N           -0.29614799272466        0.59774170318203        1.12359491056093
C           -0.80838052779749       -0.29018967440359        0.02723557697343
C           -1.94246454654731        0.16279839911234       -0.84806883526764
C           -0.80476002406693       -0.64629754942032        1.43813205449974
O           -1.01503755968369       -1.37763058795862        2.35419389429715
Cl          -3.41727578968916        2.77036728762820        1.38517821524583
O            0.35741702119786       -0.72623026224129       -0.64836194032434
H            2.81273410720319       -0.11000201406833       -1.59729576768356
H            3.49628835799171        0.16475006349472        0.02485800658241
H            2.97666323242079       -1.46095047736858       -0.47821885447992
H           -1.55351710841121        0.76758942002383       -1.66508032481527
H           -2.64037546530400        0.75240600183814       -0.25511560975162
H           -2.45701069915858       -0.70217486932236       -1.26095546962215

          :  Hamiltonian                  GFN1-xTB          :
         :: total energy             -34.166609698463 Eh    ::
         :: gradient norm              0.000577274036 Eh/a0 ::
         :: HOMO-LUMO gap              3.026604404352 eV    ::
         :: SCC energy               -34.447559866178 Eh    ::
         :: -> Gsolv                  -0.112807502424 Eh    ::
         :: repulsion energy           0.288056755994 Eh    ::

    * Orbital Energies and Occupations

         #    Occupation            Energy/Eh            Energy/eV
      -------------------------------------------------------------
         1        2.0000           -0.8402588             -22.8646
       ...           ...                  ...                  ...
        16        2.0000           -0.5473972             -14.8954
        17        2.0000           -0.5426646             -14.7667
        18        2.0000           -0.5337230             -14.5233
        19        2.0000           -0.5318957             -14.4736
        20        2.0000           -0.5183532             -14.1051
        21        2.0000           -0.5078112             -13.8182
        22        2.0000           -0.4907509             -13.3540
        23        2.0000           -0.4828335             -13.1386
        24        2.0000           -0.4749219             -12.9233
        25        2.0000           -0.4748861             -12.9223
        26        2.0000           -0.4735436             -12.8858
        27        2.0000           -0.4561296             -12.4119
        28        2.0000           -0.4082099             -11.1080 (HOMO)
        29                         -0.2969842              -8.0814 (LUMO)
        30                         -0.2590696              -7.0496
        31                         -0.1406839              -3.8282
        32                         -0.1276455              -3.4734
        33                         -0.1131357              -3.0786
        34                         -0.0738310              -2.0090
        35                         -0.0728202              -1.9815
        36                         -0.0637685              -1.7352
        37                         -0.0503051              -1.3689
        38                         -0.0226690              -0.6169
        39                          0.0335305               0.9124
       ...                                ...                  ...
        57                          0.9019754              24.5440
      -------------------------------------------------------------
                  HL-Gap            0.1112257 Eh            3.0266 eV

Wiberg/Mayer (AO) data.
largest (>0.10) Wiberg bond orders for each atom

     #   Z sym  total        # sym  WBO       # sym  WBO       # sym  WBO
 ---------------------------------------------------------------------------
     1   6 C    3.988 --     2 C    1.022    12 H    0.984    11 H    0.965
                            13 H    0.963
     2   6 C    3.887 --     3 N    1.751    10 O    1.040     1 C    1.022
     3   7 N    2.946 --     2 C    1.751     4 N    0.941    10 O    0.116
     4   7 N    3.093 --     7 C    1.056     3 N    0.941     5 C    0.858
                             8 O    0.132
     5   6 C    3.804 --     6 C    0.993     7 C    0.912    10 O    0.911
                             4 N    0.858
     6   6 C    3.983 --     5 C    0.993    14 H    0.979    16 H    0.978
                            15 H    0.973
     7   6 C    3.849 --     8 O    1.780     4 N    1.056     5 C    0.912
     8   8 O    2.045 --     7 C    1.780     4 N    0.132
     9  17 Cl   0.028
    10   8 O    2.170 --     2 C    1.040     5 C    0.911     3 N    0.116
    11   1 H    0.998 --     1 C    0.965
    12   1 H    0.999 --     1 C    0.984
    13   1 H    0.998 --     1 C    0.963
    14   1 H    1.002 --     6 C    0.979
    15   1 H    1.017 --     6 C    0.973
    16   1 H    1.003 --     6 C    0.978
 ---------------------------------------------------------------------------

           -------------------------------------------------
          | TOTAL ENERGY              -34.166609698463 Eh   |
          | GRADIENT NORM               0.000577274036 Eh/α |
          | HOMO-LUMO GAP               3.026604404352 eV   |
           -------------------------------------------------

 * finished run on 2023/06/20 at 14:53:32.752
