   * xtb version 6.5.1 (579679a) compiled by 'ehlert@majestix' on 2022-07-11
          program call               : /lustre/hpc/kemi/ree/PhD/git/ReactivityQM/dep/xtb-6.5.1/bin/xtb --gfn 1 /lustre/hpc/kemi/ree/PhD/git/ReactivityQM/calculations/RaltegravirCLI/reac02prodN04/conf18/RaltegravirCLI_reac02prodN04_conf18_gfn1.xyz --opt --vfukui --chrg 1 --uhf 0 --alpb DMSO

   ID    Z sym.   atoms
    1    6 C      1, 3-6, 9-11, 14-18, 20-22, 24
    2    7 N      2, 7, 8, 13
    3    8 O      12, 23, 25
    4    9 F      19
    5    1 H      26-47

      * Solvation model:               ALPB
        Solvent                        DMSO
        Solvent mass                       7.8130E+01 g/mol
          :  Hamiltonian                  GFN1-xTB          :
 * total energy  :   -79.4978398 Eh     change       -0.2354739E-10 Eh
 * total energy  :   -79.5137487 Eh     change       -0.1590893E-01 Eh
 * total energy  :   -79.5191542 Eh     change       -0.5405542E-02 Eh
 * total energy  :   -79.5203955 Eh     change       -0.1241275E-02 Eh
 * total energy  :   -79.5213837 Eh     change       -0.9881567E-03 Eh
 * total energy  :   -79.5219776 Eh     change       -0.5939634E-03 Eh
 * total energy  :   -79.5224632 Eh     change       -0.4856045E-03 Eh
 * total energy  :   -79.5227685 Eh     change       -0.3052980E-03 Eh
 * total energy  :   -79.5229757 Eh     change       -0.2071318E-03 Eh
 * total energy  :   -79.5231050 Eh     change       -0.1293762E-03 Eh
 * total energy  :   -79.5239313 Eh     change       -0.1268947E-04 Eh
 * total energy  :   -79.5239447 Eh     change       -0.1337111E-04 Eh
 * total energy  :   -79.5239597 Eh     change       -0.1500478E-04 Eh
 * total energy  :   -79.5239757 Eh     change       -0.1604190E-04 Eh
 * total energy  :   -79.5239881 Eh     change       -0.1234671E-04 Eh
 * total energy  :   -79.5239972 Eh     change       -0.9136423E-05 Eh
 * total energy  :   -79.5240088 Eh     change       -0.1159803E-04 Eh
 * total energy  :   -79.5240146 Eh     change       -0.5811872E-05 Eh
 * total energy  :   -79.5240175 Eh     change       -0.2827916E-05 Eh
   *** GEOMETRY OPTIMIZATION CONVERGED AFTER 36 ITERATIONS ***

 final structure:
================
47
 xtb: 6.5.1 (579679a)
C           -4.03742511562450       -1.95153953204791        0.15271535148612
N           -2.76669127797840       -1.27294519176362        0.46131749496523
C           -2.41812963459817       -0.05568912555652       -0.00338053109257
C           -3.49791342263914        0.90177831473709       -0.53270877209988
C           -3.72997273872861        0.71747501570987       -2.03917516980120
C           -3.19224803889362        2.37920404137450       -0.21040981449363
N           -4.73043231619985        0.56979777348896        0.17476863079515
N           -1.13923066216245        0.31834997036304        0.12028861968490
C           -0.55348450218908        1.36005836925275       -0.74117686047446
C           -0.23059714386547       -0.34348586796763        0.94263486451824
C            1.07735069489744        0.34687443236103        1.27475404102916
O            1.14902107009030        1.56270436948398        1.36371866383803
N            2.09404825937583       -0.48693069076018        1.50561012002959
C            3.41600630957172        0.01182763450700        1.87620831020941
C            4.37731485313020       -0.07777780018631        0.71197319404100
C            4.00519058204683        0.39835167058494       -0.54361178792776
C            4.88497613149727        0.33079353447489       -1.61362688084384
C            6.13838046704883       -0.21475219376221       -1.39857401148022
F            6.99540805553026       -0.28374510771033       -2.42754018319469
C            6.54074831639843       -0.69429494281400       -0.16540977891901
C            5.64536271409439       -0.62354415970780        0.89315304771243
C           -0.62552775825331       -1.49891073635586        1.53586839145442
O            0.15239136991778       -2.18960978785381        2.37310369993032
C           -1.92874977915061       -2.06926639441672        1.25172741984383
O           -2.27635748402708       -3.15476340914282        1.67162709221918
H           -4.72770567209297       -1.82361739442792        0.98358735006699
H           -4.46749075896343       -1.55506924396351       -0.75680448034436
H           -3.80997542607466       -3.01031556789045        0.02469180439248
H           -2.81475605552782        0.88996646572329       -2.60139736291609
H           -4.48098188951676        1.43456767368140       -2.36713724796976
H           -4.08722238897552       -0.28660693693410       -2.25843953578831
H           -2.59120143101210        2.86039198540538       -0.97689723474037
H           -4.14342959294519        2.90815426405367       -0.16510357662686
H           -2.70267277784431        2.47321100779757        0.75674449518489
H           -5.50463093239144        1.02128566072496       -0.29202477675451
H           -4.68327697922996        0.92650926460569        1.12015746805439
H           -1.15486983647513        1.47088449437192       -1.63484427244479
H            0.44019255890617        1.02363941538045       -1.02995259416310
H           -0.47282151318225        2.30130082657765       -0.20186681784636
H            1.98448617020422       -1.47917702778066        1.38812932448541
H            3.77871594322134       -0.57679409727425        2.72276719345391
H            3.29851607126098        1.05398012088153        2.19185233568179
H            3.01749413979073        0.81878834209710       -0.68845619585313
H            4.60518869874895        0.69239686523285       -2.59422743051031
H            7.52853344876099       -1.11762289354471       -0.03777810454690
H            5.93826063205805       -0.99828489214971        1.86668190921210
H           -0.29978935800338       -3.00754851886829        2.65300259854321

          :  Hamiltonian                  GFN1-xTB          :
         :: total energy             -79.524017458504 Eh    ::
         :: gradient norm              0.000355315471 Eh/a0 ::
         :: HOMO-LUMO gap              2.314954087347 eV    ::
         :: SCC energy               -80.424888223307 Eh    ::
         :: -> Gsolv                  -0.107630967190 Eh    ::
         :: repulsion energy           0.932203902397 Eh    ::

    * Orbital Energies and Occupations

         #    Occupation            Energy/Eh            Energy/eV
      -------------------------------------------------------------
         1        2.0000           -0.8796826             -23.9374
       ...           ...                  ...                  ...
        55        2.0000           -0.5208441             -14.1729
        56        2.0000           -0.5170823             -14.0705
        57        2.0000           -0.5156136             -14.0306
        58        2.0000           -0.5085787             -13.8391
        59        2.0000           -0.5054816             -13.7549
        60        2.0000           -0.5053778             -13.7520
        61        2.0000           -0.4810893             -13.0911
        62        2.0000           -0.4789395             -13.0326
        63        2.0000           -0.4703245             -12.7982
        64        2.0000           -0.4617261             -12.5642
        65        2.0000           -0.4583988             -12.4737
        66        2.0000           -0.4432359             -12.0611
        67        2.0000           -0.4373823             -11.9018 (HOMO)
        68                         -0.3523093              -9.5868 (LUMO)
        69                         -0.3503520              -9.5336
        70                         -0.2804857              -7.6324
        71                         -0.2744759              -7.4689
        72                         -0.2664625              -7.2508
        73                         -0.2088989              -5.6844
        74                         -0.1629548              -4.4342
        75                         -0.1527558              -4.1567
        76                         -0.1511402              -4.1127
        77                         -0.1454518              -3.9579
        78                         -0.1395194              -3.7965
       ...                                ...                  ...
       144                          0.6962864              18.9469
      -------------------------------------------------------------
                  HL-Gap            0.0850730 Eh            2.3150 eV

Wiberg/Mayer (AO) data.
largest (>0.10) Wiberg bond orders for each atom

     #   Z sym  total        # sym  WBO       # sym  WBO       # sym  WBO
 ---------------------------------------------------------------------------
     1   6 C    3.891 --    27 H    0.977    26 H    0.970    28 H    0.969
                             2 N    0.905
     2   7 N    3.541 --     3 C    1.296    24 C    1.073     1 C    0.905
                            25 O    0.117
     3   6 C    3.885 --     8 N    1.355     2 N    1.296     4 C    0.967
     4   6 C    3.954 --     7 N    0.991     6 C    0.981     5 C    0.978
                             3 C    0.967
     5   6 C    3.987 --    30 H    0.979     4 C    0.978    29 H    0.977
                            31 H    0.977
     6   6 C    3.988 --    34 H    0.984     4 C    0.981    32 H    0.979
                            33 H    0.978
     7   7 N    2.975 --     4 C    0.991    36 H    0.935    35 H    0.928
     8   7 N    3.562 --     3 C    1.355    10 C    1.094     9 C    0.905
     9   6 C    3.896 --    37 H    0.977    38 H    0.973    39 H    0.967
                             8 N    0.905
    10   6 C    3.920 --    22 C    1.538     8 N    1.094    11 C    0.959
    11   6 C    3.920 --    12 O    1.571    13 N    1.311    10 C    0.959
    12   8 O    1.912 --    11 C    1.571    13 N    0.186
    13   7 N    3.387 --    11 C    1.311    14 C    0.932    40 H    0.890
                            12 O    0.186
    14   6 C    3.933 --    15 C    0.995    41 H    0.973    42 H    0.961
                            13 N    0.932
    15   6 C    3.988 --    21 C    1.420    16 C    1.414    14 C    0.995
    16   6 C    3.994 --    17 C    1.448    15 C    1.414    43 H    0.970
                            20 C    0.111
    17   6 C    3.992 --    16 C    1.448    18 C    1.397    44 H    0.969
                            21 C    0.110
    18   6 C    3.862 --    20 C    1.402    17 C    1.397    19 F    0.929
    19   9 F    1.059 --    18 C    0.929
    20   6 C    3.991 --    21 C    1.441    18 C    1.402    45 H    0.969
                            16 C    0.111
    21   6 C    3.993 --    20 C    1.441    15 C    1.420    46 H    0.970
                            17 C    0.110
    22   6 C    3.927 --    10 C    1.538    23 O    1.108    24 C    1.065
    23   8 O    2.087 --    22 C    1.108    47 H    0.790
    24   6 C    3.909 --    25 O    1.621     2 N    1.073    22 C    1.065
    25   8 O    1.952 --    24 C    1.621     2 N    0.117
    26   1 H    1.011 --     1 C    0.970
    27   1 H    1.019 --     1 C    0.977
    28   1 H    1.002 --     1 C    0.969
    29   1 H    1.001 --     5 C    0.977
    30   1 H    0.995 --     5 C    0.979
    31   1 H    1.001 --     5 C    0.977
    32   1 H    0.999 --     6 C    0.979
    33   1 H    0.998 --     6 C    0.978
    34   1 H    0.997 --     6 C    0.984
    35   1 H    0.944 --     7 N    0.928
    36   1 H    0.948 --     7 N    0.935
    37   1 H    1.003 --     9 C    0.977
    38   1 H    1.001 --     9 C    0.973
    39   1 H    1.009 --     9 C    0.967
    40   1 H    0.937 --    13 N    0.890
    41   1 H    1.001 --    14 C    0.973
    42   1 H    1.007 --    14 C    0.961
    43   1 H    1.002 --    16 C    0.970
    44   1 H    0.997 --    17 C    0.969
    45   1 H    0.997 --    20 C    0.969
    46   1 H    0.998 --    21 C    0.970
    47   1 H    0.824 --    23 O    0.790
 ---------------------------------------------------------------------------

           -------------------------------------------------
          | TOTAL ENERGY              -79.524017458504 Eh   |
          | GRADIENT NORM               0.000355315471 Eh/α |
          | HOMO-LUMO GAP               2.314954087347 eV   |
           -------------------------------------------------

 * finished run on 2023/06/20 at 15:20:02.457
