   * xtb version 6.5.1 (579679a) compiled by 'ehlert@majestix' on 2022-07-11
          program call               : /lustre/hpc/kemi/ree/PhD/git/ReactivityQM/dep/xtb-6.5.1/bin/xtb --gfn 1 /lustre/hpc/kemi/ree/PhD/git/ReactivityQM/calculations/R02methylcation/reac01prodN19/conf15/R02methylcation_reac01prodN19_conf15_gfn1.xyz --opt --vfukui --chrg 0 --uhf 0 --alpb DMSO

   ID    Z sym.   atoms
    1    6 C      1, 3, 5, 7-10, 12, 14, 17, 18, 21, 23, 24
    2    8 O      2, 4, 13, 19, 22, 25
    3    7 N      6, 11, 15, 16, 20
    4    1 H      26-42

      * Solvation model:               ALPB
        Solvent                        DMSO
        Solvent mass                       7.8130E+01 g/mol
          :  Hamiltonian                  GFN1-xTB          :
 * total energy  :   -82.9792860 Eh     change       -0.3996092E-10 Eh
 * total energy  :   -82.9929129 Eh     change       -0.1362690E-01 Eh
 * total energy  :   -82.9979409 Eh     change       -0.5028020E-02 Eh
 * total energy  :   -82.9996238 Eh     change       -0.1682864E-02 Eh
 * total energy  :   -83.0009832 Eh     change       -0.1359402E-02 Eh
 * total energy  :   -83.0017356 Eh     change       -0.7524412E-03 Eh
 * total energy  :   -83.0022144 Eh     change       -0.4787700E-03 Eh
 * total energy  :   -83.0025472 Eh     change       -0.3328084E-03 Eh
 * total energy  :   -83.0027373 Eh     change       -0.1900846E-03 Eh
 * total energy  :   -83.0028514 Eh     change       -0.1141139E-03 Eh
 * total energy  :   -83.0034414 Eh     change       -0.1964444E-04 Eh
 * total energy  :   -83.0034590 Eh     change       -0.1761785E-04 Eh
 * total energy  :   -83.0034713 Eh     change       -0.1227156E-04 Eh
 * total energy  :   -83.0034806 Eh     change       -0.9294583E-05 Eh
 * total energy  :   -83.0034885 Eh     change       -0.7907308E-05 Eh
 * total energy  :   -83.0034957 Eh     change       -0.7213016E-05 Eh
 * total energy  :   -83.0035020 Eh     change       -0.6321490E-05 Eh
 * total energy  :   -83.0035074 Eh     change       -0.5371931E-05 Eh
 * total energy  :   -83.0035122 Eh     change       -0.4838585E-05 Eh
   *** GEOMETRY OPTIMIZATION CONVERGED AFTER 42 ITERATIONS ***

 final structure:
================
42
 xtb: 6.5.1 (579679a)
C           -4.36127764069311        3.60985774344218       -0.93331606147975
O           -3.45088616059651        2.52138553339534       -0.78009736432669
C           -3.82607433018797        1.55207952321693        0.07585666817145
O           -4.87412954908541        1.59908542518113        0.68196860933992
C           -2.82010876072235        0.46931135066611        0.16007392237249
N           -1.71086766220693        0.64516073563414       -0.59317410439801
C           -0.76399168463240       -0.23749385959367       -0.61273677171102
C            0.46021848077001       -0.03955796894959       -1.48615403093360
C            0.39660926535626        1.35135593513384       -2.11860089509019
C            0.52155341358389       -1.11463121499055       -2.57981136614388
N            1.68466842821985       -0.08181151937868       -0.66696659441421
C            2.21078369978724       -1.18060311680532       -0.09910799377987
O            1.69235846655529       -2.29220061264417       -0.08063543904963
C            3.51172471197915       -0.92742841980845        0.55976308823082
N            4.25385436743221       -1.77750281118877        1.19938531239314
N            5.34638202862501       -1.09414511444581        1.63718142421067
C            5.20543035256472        0.13268937312524        1.23957072110503
C            6.11900008453278        1.27230949792960        1.46910139460329
O            4.06457279047589        0.30499160967987        0.55184061465886
N           -0.88096664943806       -1.38492069048574        0.12596617971662
C           -1.92155949543879       -1.63705637036747        0.90825433363120
O           -1.83001032246226       -2.78817320136261        1.55726848225310
C           -2.84505659625890       -3.23893278945333        2.46258232527267
C           -3.03216513596432       -0.67917207149532        0.98857734940460
O           -4.01853614847075       -0.89196605274145        1.70878043879643
H           -4.48929756020905        4.13468917261454        0.01737083425132
H           -5.33376008388988        3.24663800479733       -1.27700173954979
H           -3.92780565205742        4.27855407733682       -1.67437996360494
H           -0.50074926707679        1.43316241310715       -2.73008699438465
H            0.35799641929911        2.11592430056075       -1.34427543556155
H            1.27070142415709        1.51571832602581       -2.74495261404290
H            0.53064125241321       -2.11377605112816       -2.14994360602077
H            1.42321964049807       -0.97642048805614       -3.17367369616247
H           -0.34917804910593       -1.01721129929767       -3.22627716538623
H            2.22672217328699        0.76703652453334       -0.63072080932632
H            7.01980498528258        0.92611989007662        1.96977578712997
H            5.62589482994149        2.02368322622336        2.08598637958963
H            6.37957381584339        1.73657862552653        0.51886524581790
H           -0.11154152295569       -2.06128829436823        0.10046490898979
H           -2.96448944297432       -2.53591614746670        3.28910404286652
H           -2.49234777149098       -4.19971091939453        2.83760584835030
H           -3.79691014467482       -3.36641227479621        1.94395773423069

          :  Hamiltonian                  GFN1-xTB          :
         :: total energy             -83.003512240239 Eh    ::
         :: gradient norm              0.000295305433 Eh/a0 ::
         :: HOMO-LUMO gap              2.263103256247 eV    ::
         :: SCC energy               -83.779300951371 Eh    ::
         :: -> Gsolv                  -0.060367601078 Eh    ::
         :: repulsion energy           0.800883341774 Eh    ::

    * Orbital Energies and Occupations

         #    Occupation            Energy/Eh            Energy/eV
      -------------------------------------------------------------
         1        2.0000           -0.8696331             -23.6639
       ...           ...                  ...                  ...
        55        2.0000           -0.5056209             -13.7586
        56        2.0000           -0.5044485             -13.7267
        57        2.0000           -0.4903898             -13.3442
        58        2.0000           -0.4856562             -13.2154
        59        2.0000           -0.4840527             -13.1717
        60        2.0000           -0.4732961             -12.8790
        61        2.0000           -0.4720412             -12.8449
        62        2.0000           -0.4680694             -12.7368
        63        2.0000           -0.4637074             -12.6181
        64        2.0000           -0.4566101             -12.4250
        65        2.0000           -0.4529929             -12.3266
        66        2.0000           -0.4190770             -11.4037
        67        2.0000           -0.4111026             -11.1867 (HOMO)
        68                         -0.3279351              -8.9236 (LUMO)
        69                         -0.3180843              -8.6555
        70                         -0.2805178              -7.6333
        71                         -0.2602204              -7.0810
        72                         -0.2385685              -6.4918
        73                         -0.2055862              -5.5943
        74                         -0.1512170              -4.1148
        75                         -0.1436708              -3.9095
        76                         -0.1377559              -3.7485
        77                         -0.1326684              -3.6101
        78                         -0.1302697              -3.5448
       ...                                ...                  ...
       134                          0.7301051              19.8672
      -------------------------------------------------------------
                  HL-Gap            0.0831675 Eh            2.2631 eV

Wiberg/Mayer (AO) data.
largest (>0.10) Wiberg bond orders for each atom

     #   Z sym  total        # sym  WBO       # sym  WBO       # sym  WBO
 ---------------------------------------------------------------------------
     1   6 C    3.881 --    28 H    0.986    26 H    0.980    27 H    0.980
                             2 O    0.907
     2   8 O    2.177 --     3 C    1.080     1 C    0.907     4 O    0.126
     3   6 C    3.853 --     4 O    1.645     2 O    1.080     5 C    1.036
     4   8 O    1.913 --     3 C    1.645     2 O    0.126
     5   6 C    3.948 --     6 N    1.280    24 C    1.215     3 C    1.036
                            25 O    0.128
     6   7 N    3.043 --     7 C    1.539     5 C    1.280
     7   6 C    3.918 --     6 N    1.539    20 N    1.135     8 C    0.975
     8   6 C    3.932 --     9 C    1.001    10 C    0.982     7 C    0.975
                            11 N    0.913
     9   6 C    3.990 --     8 C    1.001    31 H    0.985    30 H    0.983
                            29 H    0.982
    10   6 C    3.986 --    34 H    0.984    33 H    0.983     8 C    0.982
                            32 H    0.979
    11   7 N    3.357 --    12 C    1.281     8 C    0.913    35 H    0.890
                            13 O    0.174
    12   6 C    3.915 --    13 O    1.544    11 N    1.281    14 C    1.001
    13   8 O    1.914 --    12 C    1.544    11 N    0.174
    14   6 C    3.875 --    15 N    1.618    19 O    1.047    12 C    1.001
    15   7 N    3.002 --    14 C    1.618    16 N    1.203
    16   7 N    2.982 --    17 C    1.606    15 N    1.203
    17   6 C    3.867 --    16 N    1.606    19 O    1.073    18 C    1.032
    18   6 C    3.986 --    17 C    1.032    36 H    0.982    38 H    0.964
                            37 H    0.960
    19   8 O    2.317 --    17 C    1.073    14 C    1.047
    20   7 N    3.536 --    21 C    1.341     7 C    1.135    39 H    0.828
    21   6 C    3.860 --    20 N    1.341    22 O    1.135    24 C    1.068
    22   8 O    2.221 --    21 C    1.135    23 C    0.881
    23   6 C    3.851 --    41 H    0.984    40 H    0.978    42 H    0.978
                            22 O    0.881
    24   6 C    3.951 --    25 O    1.510     5 C    1.215    21 C    1.068
    25   8 O    1.859 --    24 C    1.510     5 C    0.128
    26   1 H    1.008 --     1 C    0.980
    27   1 H    1.009 --     1 C    0.980
    28   1 H    1.012 --     1 C    0.986
    29   1 H    1.008 --     9 C    0.982
    30   1 H    1.004 --     9 C    0.983
    31   1 H    0.998 --     9 C    0.985
    32   1 H    1.008 --    10 C    0.979
    33   1 H    0.999 --    10 C    0.983
    34   1 H    1.001 --    10 C    0.984
    35   1 H    0.934 --    11 N    0.890
    36   1 H    0.998 --    18 C    0.982
    37   1 H    0.996 --    18 C    0.960
    38   1 H    0.996 --    18 C    0.964
    39   1 H    0.926 --    20 N    0.828
    40   1 H    1.016 --    23 C    0.978
    41   1 H    1.010 --    23 C    0.984
    42   1 H    1.016 --    23 C    0.978
 ---------------------------------------------------------------------------

           -------------------------------------------------
          | TOTAL ENERGY              -83.003512240239 Eh   |
          | GRADIENT NORM               0.000295305433 Eh/α |
          | HOMO-LUMO GAP               2.263103256247 eV   |
           -------------------------------------------------

 * finished run on 2023/06/21 at 18:02:59.806
