   * xtb version 6.5.1 (579679a) compiled by 'ehlert@majestix' on 2022-07-11
          program call               : /lustre/hpc/kemi/ree/PhD/git/ReactivityQM/dep/xtb-6.5.1/bin/xtb --gfn 1 /lustre/hpc/kemi/ree/PhD/git/ReactivityQM/calculations/R02methylcation/reac01prodE01/conf14/R02methylcation_reac01prodE01_conf14_gfn1.xyz --opt --vfukui --chrg -2 --uhf 0 --alpb DMSO

   ID    Z sym.   atoms
    1    6 C      1, 3, 5, 7-10, 12, 13, 15, 18, 19, 22, 24
    2    8 O      2, 4, 14, 20, 23, 25
    3    7 N      6, 11, 16, 17, 21
    4    1 H      26-42

      * Solvation model:               ALPB
        Solvent                        DMSO
        Solvent mass                       7.8130E+01 g/mol
          :  Hamiltonian                  GFN1-xTB          :
 * total energy  :   -83.6240410 Eh     change       -0.1769251E-10 Eh
 * total energy  :   -83.6343179 Eh     change       -0.1027691E-01 Eh
 * total energy  :   -83.6381818 Eh     change       -0.3863899E-02 Eh
 * total energy  :   -83.6390144 Eh     change       -0.8325723E-03 Eh
 * total energy  :   -83.6395696 Eh     change       -0.5551803E-03 Eh
 * total energy  :   -83.6398337 Eh     change       -0.2641220E-03 Eh
 * total energy  :   -83.6400321 Eh     change       -0.1983815E-03 Eh
 * total energy  :   -83.6401449 Eh     change       -0.1128714E-03 Eh
 * total energy  :   -83.6401995 Eh     change       -0.5451811E-04 Eh
 * total energy  :   -83.6402370 Eh     change       -0.3757327E-04 Eh
 * total energy  :   -83.6403411 Eh     change       -0.1701463E-04 Eh
 * total energy  :   -83.6403599 Eh     change       -0.1884300E-04 Eh
 * total energy  :   -83.6403730 Eh     change       -0.1307338E-04 Eh
 * total energy  :   -83.6403863 Eh     change       -0.1330697E-04 Eh
 * total energy  :   -83.6403976 Eh     change       -0.1128078E-04 Eh
 * total energy  :   -83.6403970 Eh     change        0.5917915E-06 Eh
 * total energy  :   -83.6404040 Eh     change       -0.7038265E-05 Eh
 * total energy  :   -83.6404114 Eh     change       -0.7398191E-05 Eh
 * total energy  :   -83.6404154 Eh     change       -0.4027995E-05 Eh
   *** GEOMETRY OPTIMIZATION CONVERGED AFTER 22 ITERATIONS ***

 final structure:
================
42
 xtb: 6.5.1 (579679a)
C           -4.81740269809330        1.60257782374628       -2.03739954069658
O           -3.85032146672563        1.02281376516308       -1.17760033068229
C           -4.22943798230460        0.89237414459454        0.13625354219090
O           -5.33699595460611        1.27311344563753        0.49064893680750
C           -3.20106222819302        0.28262609654418        0.95566647595731
N           -2.03594582502899       -0.05888230978638        0.28692334199659
C           -1.06779620003807       -0.61777132027002        0.91477765659329
C            0.18682300569791       -1.08559340999729        0.18542511006899
C            0.34979984218926       -0.23761058790892       -1.08738488342484
C           -0.08783543073307       -2.55591653199866       -0.19661783068590
N            1.27670456988166       -0.97770314411637        1.15387577193631
C            2.76241023311290       -1.09724867532530        0.80058223600667
C            3.03808499070032       -2.41129655682312        0.00639435138817
O            3.48638379779667       -0.97708925630718        1.87954636103403
C            3.12235534297277        0.07832701157290       -0.17593754060237
N            3.93269979811471        0.02510193300694       -1.19103841335531
N            4.17634009305239        1.32962326293943       -1.58377225508599
C            3.50648010952974        2.07915759190086       -0.77485387296002
C            3.43347501836532        3.56115603512573       -0.77160601381755
O            2.82063036500514        1.36215939385923        0.13666565179633
N           -1.14890858271525       -0.91149927285007        2.25862429998549
C           -2.23036531818028       -0.62980942838562        3.04282622936429
O           -2.21797827795400       -0.92243762368428        4.24018641941659
C           -3.39407585248544        0.03306051066233        2.34000903849893
O           -4.41666428785681        0.30533134335745        3.00039331116364
H           -5.06151438466055        2.62238439646965       -1.72129877249106
H           -5.73785372651998        1.00900695779285       -2.04677192804528
H           -4.38658193883739        1.62360431269407       -3.03787618492058
H            1.19448286318143       -0.58158587748462       -1.68139964372949
H            0.49711380298301        0.80941526714057       -0.82642874127914
H           -0.55753240915406       -0.31991553766444       -1.68632571275010
H           -1.09559331786246       -2.64309825645468       -0.60389458321775
H            0.60841559785252       -2.91511839250743       -0.95034690211776
H           -0.01241634094353       -3.18705901465176        0.68799426427936
H            1.21778927982860       -0.06048756364308        1.59602734104626
H            2.62790108473905       -3.25884531516710        0.55108634940508
H            4.12007291087257       -2.52758404384065       -0.05415445801760
H            2.63778572628221       -2.38403924999176       -1.00477550362571
H            4.10506447636198        3.95830043425379       -1.52852255193651
H            3.71818993316058        3.95136752844953        0.20519479355127
H            2.41704585751620        3.89200717363088       -0.98537358325275
H           -0.34976747627690       -1.35291505967406        2.69583576421514

          :  Hamiltonian                  GFN1-xTB          :
         :: total energy             -83.640415443136 Eh    ::
         :: gradient norm              0.000368271018 Eh/a0 ::
         :: HOMO-LUMO gap              2.117423929740 eV    ::
         :: SCC energy               -84.373716648179 Eh    ::
         :: -> Gsolv                  -0.262519908066 Eh    ::
         :: repulsion energy           0.760375559782 Eh    ::

    * Orbital Energies and Occupations

         #    Occupation            Energy/Eh            Energy/eV
      -------------------------------------------------------------
         1        2.0000           -0.8133236             -22.1317
       ...           ...                  ...                  ...
        56        2.0000           -0.4414528             -12.0125
        57        2.0000           -0.4379290             -11.9167
        58        2.0000           -0.4320332             -11.7562
        59        2.0000           -0.4270944             -11.6218
        60        2.0000           -0.4236237             -11.5274
        61        2.0000           -0.4104155             -11.1680
        62        2.0000           -0.4046884             -11.0121
        63        2.0000           -0.3997936             -10.8789
        64        2.0000           -0.3673262              -9.9955
        65        2.0000           -0.3625488              -9.8655
        66        2.0000           -0.3521942              -9.5837
        67        2.0000           -0.3418080              -9.3011
        68        2.0000           -0.3364724              -9.1559 (HOMO)
        69                         -0.2586585              -7.0385 (LUMO)
        70                         -0.2218054              -6.0356
        71                         -0.2202704              -5.9939
        72                         -0.2067088              -5.6248
        73                         -0.1850190              -5.0346
        74                         -0.1269321              -3.4540
        75                         -0.1179149              -3.2086
        76                         -0.1066973              -2.9034
        77                         -0.0957825              -2.6064
        78                         -0.0922990              -2.5116
        79                         -0.0819419              -2.2298
       ...                                ...                  ...
       134                          0.7707953              20.9744
      -------------------------------------------------------------
                  HL-Gap            0.0778139 Eh            2.1174 eV

Wiberg/Mayer (AO) data.
largest (>0.10) Wiberg bond orders for each atom

     #   Z sym  total        # sym  WBO       # sym  WBO       # sym  WBO
 ---------------------------------------------------------------------------
     1   6 C    3.904 --    28 H    0.987    27 H    0.980    26 H    0.980
                             2 O    0.932
     2   8 O    2.132 --     3 C    1.015     1 C    0.932     4 O    0.106
     3   6 C    3.848 --     4 O    1.582     5 C    1.132     2 O    1.015
     4   8 O    1.860 --     3 C    1.582     2 O    0.106
     5   6 C    3.918 --    24 C    1.273     6 N    1.144     3 C    1.132
                            25 O    0.130
     6   7 N    3.023 --     7 C    1.632     5 C    1.144
     7   6 C    3.927 --     6 N    1.632    21 N    1.101     8 C    0.972
     8   6 C    3.972 --     9 C    0.986    11 N    0.981    10 C    0.978
                             7 C    0.972
     9   6 C    3.996 --     8 C    0.986    30 H    0.985    31 H    0.983
                            29 H    0.982
    10   6 C    3.994 --    32 H    0.986    34 H    0.986    33 H    0.980
                             8 C    0.978
    11   7 N    2.997 --     8 C    0.981    35 H    0.942    12 C    0.855
    12   6 C    3.935 --    14 O    1.203    13 C    0.946    15 C    0.873
                            11 N    0.855
    13   6 C    3.991 --    36 H    0.986    37 H    0.985    38 H    0.983
                            12 C    0.946
    14   8 O    1.508 --    12 C    1.203
    15   6 C    3.797 --    16 N    1.633    20 O    1.044    12 C    0.873
    16   7 N    2.961 --    15 C    1.633    17 N    1.146
    17   7 N    2.975 --    18 C    1.657    16 N    1.146
    18   6 C    3.889 --    17 N    1.657    20 O    1.064    19 C    1.023
    19   6 C    3.993 --    18 C    1.023    39 H    0.985    40 H    0.972
                            41 H    0.969
    20   8 O    2.300 --    18 C    1.064    15 C    1.044
    21   7 N    3.441 --    22 C    1.179     7 C    1.101    42 H    0.890
                            23 O    0.136
    22   6 C    3.883 --    23 O    1.559    21 N    1.179    24 C    0.971
    23   8 O    1.838 --    22 C    1.559    21 N    0.136
    24   6 C    3.944 --    25 O    1.510     5 C    1.273    22 C    0.971
    25   8 O    1.813 --    24 C    1.510     5 C    0.130
    26   1 H    1.015 --     1 C    0.980
    27   1 H    1.015 --     1 C    0.980
    28   1 H    1.017 --     1 C    0.987
    29   1 H    1.014 --     9 C    0.982
    30   1 H    1.014 --     9 C    0.985
    31   1 H    1.020 --     9 C    0.983
    32   1 H    1.010 --    10 C    0.986
    33   1 H    1.011 --    10 C    0.980
    34   1 H    1.013 --    10 C    0.986
    35   1 H    0.985 --    11 N    0.942
    36   1 H    1.015 --    13 C    0.986
    37   1 H    1.025 --    13 C    0.985
    38   1 H    1.014 --    13 C    0.983
    39   1 H    1.003 --    19 C    0.985
    40   1 H    1.002 --    19 C    0.972
    41   1 H    1.002 --    19 C    0.969
    42   1 H    0.963 --    21 N    0.890
 ---------------------------------------------------------------------------

           -------------------------------------------------
          | TOTAL ENERGY              -83.640415443136 Eh   |
          | GRADIENT NORM               0.000368271018 Eh/α |
          | HOMO-LUMO GAP               2.117423929740 eV   |
           -------------------------------------------------

 * finished run on 2023/06/21 at 17:03:46.444
