   * xtb version 6.5.1 (579679a) compiled by 'ehlert@majestix' on 2022-07-11
          program call               : /lustre/hpc/kemi/ree/PhD/git/ReactivityQM/dep/xtb-6.5.1/bin/xtb --gfn 1 /lustre/hpc/kemi/ree/PhD/git/ReactivityQM/calculations/R01/reac01prodE01/conf01/R01_reac01prodE01_conf01_gfn1.xyz --opt --vfukui --chrg -1 --uhf 0 --alpb DMSO

   ID    Z sym.   atoms
    1    6 C      1, 3, 4, 6, 9, 10
    2    8 O      2, 5, 11
    3    7 N      7, 8
    4    1 H      12-20

      * Solvation model:               ALPB
        Solvent                        DMSO
        Solvent mass                       7.8130E+01 g/mol
          :  Hamiltonian                  GFN1-xTB          :
 * total energy  :   -38.3312257 Eh     change       -0.3986145E-11 Eh
 * total energy  :   -38.3381682 Eh     change       -0.6942485E-02 Eh
 * total energy  :   -38.3413119 Eh     change       -0.3143689E-02 Eh
 * total energy  :   -38.3419950 Eh     change       -0.6831591E-03 Eh
 * total energy  :   -38.3423520 Eh     change       -0.3569451E-03 Eh
 * total energy  :   -38.3424810 Eh     change       -0.1289967E-03 Eh
 * total energy  :   -38.3425740 Eh     change       -0.9300011E-04 Eh
 * total energy  :   -38.3426149 Eh     change       -0.4089740E-04 Eh
 * total energy  :   -38.3426413 Eh     change       -0.2639466E-04 Eh
 * total energy  :   -38.3426670 Eh     change       -0.2572436E-04 Eh
 * total energy  :   -38.3444064 Eh     change       -0.1947934E-04 Eh
 * total energy  :   -38.3444175 Eh     change       -0.1108204E-04 Eh
 * total energy  :   -38.3444260 Eh     change       -0.8483723E-05 Eh
 * total energy  :   -38.3444397 Eh     change       -0.1371587E-04 Eh
 * total energy  :   -38.3444532 Eh     change       -0.1343781E-04 Eh
 * total energy  :   -38.3444645 Eh     change       -0.1134259E-04 Eh
 * total energy  :   -38.3444729 Eh     change       -0.8368310E-05 Eh
 * total energy  :   -38.3444779 Eh     change       -0.5025935E-05 Eh
 * total energy  :   -38.3444826 Eh     change       -0.4743346E-05 Eh
   *** GEOMETRY OPTIMIZATION CONVERGED AFTER 97 ITERATIONS ***

 final structure:
================
20
 xtb: 6.5.1 (579679a)
C           -2.27681372820655        1.99003357514367       -0.11698053276020
O           -1.95517976684236        0.81356420817376        0.58256974084342
C           -1.42403715668141       -0.29199769682667       -0.31072779403914
C           -1.55800171814273       -1.54902100723356        0.60029320815575
O           -1.97606024075726       -0.36391557343767       -1.46798276443157
C            0.11440855503951        0.06302896118403       -0.38705620498577
N            0.65308464901509        1.08284073029441       -0.97825508789864
N            2.02170876842077        0.96268384404149       -0.82916103332969
C            2.21713877312087       -0.12428872051606       -0.16253117218112
C            3.51357780754341       -0.70334722451597        0.26661088352298
O            1.06128745919405       -0.74430489109237        0.14912873861393
H           -2.80080324099516        2.65897109703388        0.57239763404509
H           -1.37497609060694        2.50729644781417       -0.48763385558667
H           -2.93467118806549        1.78612604110310       -0.97649019963623
H           -1.08425915676105       -2.39538384857965        0.10712439864617
H           -1.09235496410323       -1.38141247576466        1.56932354508216
H           -2.61707072736663       -1.75980758554569        0.73593323944767
H            3.58761228332168       -1.74171175729582       -0.05478590038724
H            4.33013379686800       -0.12976248095934       -0.16536967992834
H            3.59527488600797       -0.67959264301947        1.35359183680822

          :  Hamiltonian                  GFN1-xTB          :
         :: total energy             -38.344482641508 Eh    ::
         :: gradient norm              0.000480257066 Eh/a0 ::
         :: HOMO-LUMO gap              3.281209605116 eV    ::
         :: SCC energy               -38.654082255433 Eh    ::
         :: -> Gsolv                  -0.104531164250 Eh    ::
         :: repulsion energy           0.318138043187 Eh    ::

    * Orbital Energies and Occupations

         #    Occupation            Energy/Eh            Energy/eV
      -------------------------------------------------------------
         1        2.0000           -0.8221807             -22.3727
       ...           ...                  ...                  ...
        19        2.0000           -0.5108950             -13.9022
        20        2.0000           -0.4995945             -13.5947
        21        2.0000           -0.4792693             -13.0416
        22        2.0000           -0.4714041             -12.8276
        23        2.0000           -0.4631292             -12.6024
        24        2.0000           -0.4622424             -12.5783
        25        2.0000           -0.4463192             -12.1450
        26        2.0000           -0.4398103             -11.9678
        27        2.0000           -0.4168032             -11.3418
        28        2.0000           -0.4146791             -11.2840
        29        2.0000           -0.4049724             -11.0199
        30        2.0000           -0.3678263             -10.0091
        31        2.0000           -0.3496454              -9.5143 (HOMO)
        32                         -0.2290631              -6.2331 (LUMO)
        33                         -0.2133029              -5.8043
        34                         -0.1306331              -3.5547
        35                         -0.1003450              -2.7305
        36                         -0.0828108              -2.2534
        37                         -0.0634756              -1.7273
        38                         -0.0625602              -1.7023
        39                         -0.0374256              -1.0184
        40                         -0.0301123              -0.8194
        41                         -0.0290797              -0.7913
        42                         -0.0261162              -0.7107
       ...                                ...                  ...
        62                          0.6126487              16.6710
      -------------------------------------------------------------
                  HL-Gap            0.1205822 Eh            3.2812 eV

Wiberg/Mayer (AO) data.
largest (>0.10) Wiberg bond orders for each atom

     #   Z sym  total        # sym  WBO       # sym  WBO       # sym  WBO
 ---------------------------------------------------------------------------
     1   6 C    3.933 --    12 H    0.984    13 H    0.978    14 H    0.976
                             2 O    0.973
     2   8 O    1.945 --     1 C    0.973     3 C    0.779
     3   6 C    3.899 --     5 O    1.262     4 C    0.944     6 C    0.865
                             2 O    0.779
     4   6 C    3.994 --    16 H    0.990    15 H    0.988    17 H    0.987
                             3 C    0.944
     5   8 O    1.547 --     3 C    1.262
     6   6 C    3.803 --     7 N    1.660    11 O    1.045     3 C    0.865
     7   7 N    2.979 --     6 C    1.660     8 N    1.149
     8   7 N    2.976 --     9 C    1.656     7 N    1.149
     9   6 C    3.887 --     8 N    1.656    11 O    1.061    10 C    1.024
    10   6 C    3.993 --     9 C    1.024    19 H    0.985    18 H    0.972
                            20 H    0.968
    11   8 O    2.291 --     9 C    1.061     6 C    1.045
    12   1 H    1.023 --     1 C    0.984
    13   1 H    1.031 --     1 C    0.978
    14   1 H    1.033 --     1 C    0.976
    15   1 H    1.015 --     4 C    0.988
    16   1 H    1.013 --     4 C    0.990
    17   1 H    1.017 --     4 C    0.987
    18   1 H    1.001 --    10 C    0.972
    19   1 H    1.002 --    10 C    0.985
    20   1 H    1.002 --    10 C    0.968
 ---------------------------------------------------------------------------

           -------------------------------------------------
          | TOTAL ENERGY              -38.344482641508 Eh   |
          | GRADIENT NORM               0.000480257066 Eh/α |
          | HOMO-LUMO GAP               3.281209605116 eV   |
           -------------------------------------------------

 * finished run on 2023/06/20 at 14:52:38.023
