   * xtb version 6.5.1 (579679a) compiled by 'ehlert@majestix' on 2022-07-11
          program call               : /lustre/hpc/kemi/ree/PhD/git/ReactivityQM/dep/xtb-6.5.1/bin/xtb --gfn 1 /lustre/hpc/kemi/ree/PhD/git/ReactivityQM/calculations/R03/reac02prodN17/conf02/R03_reac02prodN17_conf02_gfn1.xyz --opt --vfukui --chrg 1 --uhf 0 --alpb DMSO

   ID    Z sym.   atoms
    1    6 C      1, 3, 5, 7-10, 12, 13, 15, 18, 19, 22, 23, 25
    2    8 O      2, 4, 14, 20, 24, 26
    3    7 N      6, 11, 16, 17, 21
    4    1 H      27-46

      * Solvation model:               ALPB
        Solvent                        DMSO
        Solvent mass                       7.8130E+01 g/mol
          :  Hamiltonian                  GFN1-xTB          :
 * total energy  :   -86.3050470 Eh     change       -0.1639933E-10 Eh
 * total energy  :   -86.3202706 Eh     change       -0.1522364E-01 Eh
 * total energy  :   -86.3261623 Eh     change       -0.5891715E-02 Eh
 * total energy  :   -86.3276050 Eh     change       -0.1442624E-02 Eh
 * total energy  :   -86.3282813 Eh     change       -0.6763456E-03 Eh
 * total energy  :   -86.3285634 Eh     change       -0.2821062E-03 Eh
 * total energy  :   -86.3288136 Eh     change       -0.2502392E-03 Eh
 * total energy  :   -86.3290918 Eh     change       -0.2781469E-03 Eh
 * total energy  :   -86.3293878 Eh     change       -0.2960549E-03 Eh
 * total energy  :   -86.3296815 Eh     change       -0.2936491E-03 Eh
 * total energy  :   -86.3339689 Eh     change       -0.5458317E-04 Eh
 * total energy  :   -86.3340127 Eh     change       -0.4380316E-04 Eh
 * total energy  :   -86.3340464 Eh     change       -0.3363204E-04 Eh
 * total energy  :   -86.3340670 Eh     change       -0.2057835E-04 Eh
 * total energy  :   -86.3340865 Eh     change       -0.1955490E-04 Eh
 * total energy  :   -86.3340939 Eh     change       -0.7377279E-05 Eh
 * total energy  :   -86.3341008 Eh     change       -0.6894087E-05 Eh
 * total energy  :   -86.3341051 Eh     change       -0.4305796E-05 Eh
 * total energy  :   -86.3341095 Eh     change       -0.4434321E-05 Eh
   *** GEOMETRY OPTIMIZATION CONVERGED AFTER 60 ITERATIONS ***

 final structure:
================
46
 xtb: 6.5.1 (579679a)
C           -3.59516969683485        4.05960384929397       -1.03920816555081
O           -3.48568926428168        2.63096731724138       -1.06813041203347
C           -2.36641423597536        2.10837137032083       -0.58877442894654
O           -1.44680286509022        2.76147987826133       -0.14916143623982
C           -2.34171657094507        0.61651696558390       -0.62931029207679
N           -1.18127663890413        0.08932402296699       -0.13042401206091
C           -0.97499717083983       -1.18513897103830       -0.04755798649540
C            0.41014708054934       -1.55777831129361        0.48643496594579
C            0.48798257639932       -2.71622630432489        1.47474445499892
C            1.34638524814199       -1.76746213135991       -0.70916149975367
N            0.86319868615320       -0.28215511930563        1.18842792070310
C            0.25147445964623       -0.05887157623519        2.52422145573676
C            2.35492384618477       -0.17180111370309        1.31498408818468
O            2.93902720115233       -0.84081575915740        2.10740233512060
C            2.85302270808494        0.82949158060679        0.40645379825098
N            2.12240881525425        1.54682344661012       -0.41224464391104
N            2.95679340079851        2.34901935985633       -1.08060942747282
C            4.16846739037753        2.08913892650154       -0.64482148243580
C            5.43113981063502        2.71289094950886       -1.07932599189612
O            4.15606009792143        1.14240959570374        0.29103704558019
N           -1.88843316803902       -2.09591462397911       -0.49399797809072
C           -1.68728880659703       -3.54633868843635       -0.47047722224524
C           -3.11121474125323       -1.67361503287896       -1.00875869922586
O           -3.96644971481415       -2.45406239213681       -1.39790179416627
C           -3.31881213830779       -0.22911264255000       -1.06833724318616
O           -4.48990626815924        0.15856668571214       -1.56878865986227
H           -4.55919262995937        4.30507173994553       -1.48044914960260
H           -2.78406396150600        4.50864918170986       -1.61690178159511
H           -3.54574676516279        4.41503059514342       -0.00751060834485
H           -0.36614514775523       -2.72287662369385        2.14831083687165
H            0.52931725870050       -3.66173008422732        0.94064616808820
H            1.40289445577103       -2.63227951920795        2.05930001945667
H            1.39141603265355       -0.86283220768128       -1.31425822561145
H            0.97113262516271       -2.58151605386763       -1.32549864204592
H            2.34682055429507       -2.02674985657832       -0.36763732195647
H            0.50461488808271        0.47917675261020        0.56851392721647
H            0.67873502524110       -0.75718236833917        3.23700881087177
H            0.47649964821612        0.96436894787445        2.81660563449561
H           -0.82109661042444       -0.19911226832246        2.42882416292609
H            5.89489120982036        3.23045100968536       -0.23847357027621
H            5.23729722572161        3.41848155988862       -1.88365865616225
H            6.12375395934786        1.94246463002892       -1.41869575701019
H           -2.44505914970950       -3.99461594866836       -1.11215421982267
H           -1.80966066559084       -3.91790871796329        0.54468247306603
H           -0.70065606851659       -3.79084180730648       -0.85116285967543
H           -5.01261392563689       -0.63135924279443       -1.80730992975250

          :  Hamiltonian                  GFN1-xTB          :
         :: total energy             -86.334109520846 Eh    ::
         :: gradient norm              0.000351164090 Eh/a0 ::
         :: HOMO-LUMO gap              1.724476669240 eV    ::
         :: SCC energy               -87.163216275752 Eh    ::
         :: -> Gsolv                  -0.107120134094 Eh    ::
         :: repulsion energy           0.860631816955 Eh    ::

    * Orbital Energies and Occupations

         #    Occupation            Energy/Eh            Energy/eV
      -------------------------------------------------------------
         1        2.0000           -0.9047466             -24.6194
       ...           ...                  ...                  ...
        58        2.0000           -0.5379798             -14.6392
        59        2.0000           -0.5312873             -14.4571
        60        2.0000           -0.5239996             -14.2588
        61        2.0000           -0.5222817             -14.2120
        62        2.0000           -0.5186937             -14.1144
        63        2.0000           -0.5059560             -13.7678
        64        2.0000           -0.4996747             -13.5968
        65        2.0000           -0.4949926             -13.4694
        66        2.0000           -0.4941209             -13.4457
        67        2.0000           -0.4917517             -13.3812
        68        2.0000           -0.4823127             -13.1244
        69        2.0000           -0.4700988             -12.7920
        70        2.0000           -0.4485952             -12.2069 (HOMO)
        71                         -0.3852219             -10.4824 (LUMO)
        72                         -0.3396958              -9.2436
        73                         -0.3099979              -8.4355
        74                         -0.2934075              -7.9840
        75                         -0.2602839              -7.0827
        76                         -0.2556270              -6.9560
        77                         -0.1757586              -4.7826
        78                         -0.1718795              -4.6771
        79                         -0.1666290              -4.5342
        80                         -0.1576199              -4.2891
        81                         -0.1498548              -4.0778
       ...                                ...                  ...
       144                          0.7214192              19.6308
      -------------------------------------------------------------
                  HL-Gap            0.0633734 Eh            1.7245 eV

Wiberg/Mayer (AO) data.
largest (>0.10) Wiberg bond orders for each atom

     #   Z sym  total        # sym  WBO       # sym  WBO       # sym  WBO
 ---------------------------------------------------------------------------
     1   6 C    3.865 --    27 H    0.986    28 H    0.979    29 H    0.979
                             2 O    0.890
     2   8 O    2.214 --     3 C    1.131     1 C    0.890     4 O    0.137
     3   6 C    3.855 --     4 O    1.652     2 O    1.131     5 C    0.994
     4   8 O    1.920 --     3 C    1.652     2 O    0.137
     5   6 C    3.955 --    25 C    1.496     6 N    1.171     3 C    0.994
     6   7 N    3.083 --     7 C    1.561     5 C    1.171
     7   6 C    3.941 --     6 N    1.561    21 N    1.192     8 C    0.974
     8   6 C    3.892 --     9 C    1.000    10 C    0.985     7 C    0.974
                            11 N    0.856
     9   6 C    3.980 --     8 C    1.000    30 H    0.981    31 H    0.974
                            32 H    0.972
    10   6 C    3.982 --     8 C    0.985    33 H    0.981    35 H    0.976
                            34 H    0.974
    11   7 N    3.592 --    12 C    0.900    13 C    0.865     8 C    0.856
                            36 H    0.831
    12   6 C    3.886 --    37 H    0.981    38 H    0.980    39 H    0.980
                            11 N    0.900
    13   6 C    3.881 --    14 O    1.788    15 C    1.084    11 N    0.865
    14   8 O    2.066 --    13 C    1.788
    15   6 C    3.889 --    16 N    1.513    13 C    1.084    20 O    1.058
    16   7 N    3.049 --    15 C    1.513    17 N    1.288
    17   7 N    2.991 --    18 C    1.510    16 N    1.288
    18   6 C    3.851 --    17 N    1.510    20 O    1.115    19 C    1.042
    19   6 C    3.977 --    18 C    1.042    41 H    0.980    42 H    0.954
                            40 H    0.951
    20   8 O    2.358 --    18 C    1.115    15 C    1.058
    21   7 N    3.513 --     7 C    1.192    23 C    1.112    22 C    0.921
                            24 O    0.132
    22   6 C    3.910 --    45 H    0.977    44 H    0.975    43 H    0.970
                            21 N    0.921
    23   6 C    3.910 --    24 O    1.584    21 N    1.112    25 C    1.064
    24   8 O    1.928 --    23 C    1.584    21 N    0.132
    25   6 C    3.923 --     5 C    1.496    26 O    1.124    23 C    1.064
    26   8 O    2.099 --    25 C    1.124    46 H    0.798
    27   1 H    1.009 --     1 C    0.986
    28   1 H    1.006 --     1 C    0.979
    29   1 H    1.005 --     1 C    0.979
    30   1 H    0.996 --     9 C    0.981
    31   1 H    0.998 --     9 C    0.974
    32   1 H    0.999 --     9 C    0.972
    33   1 H    1.002 --    10 C    0.981
    34   1 H    0.996 --    10 C    0.974
    35   1 H    0.993 --    10 C    0.976
    36   1 H    0.973 --    11 N    0.831
    37   1 H    0.996 --    12 C    0.981
    38   1 H    0.990 --    12 C    0.980
    39   1 H    0.997 --    12 C    0.980
    40   1 H    0.990 --    19 C    0.951
    41   1 H    0.994 --    19 C    0.980
    42   1 H    0.991 --    19 C    0.954
    43   1 H    1.002 --    22 C    0.970
    44   1 H    0.998 --    22 C    0.975
    45   1 H    1.001 --    22 C    0.977
    46   1 H    0.839 --    26 O    0.798
 ---------------------------------------------------------------------------

           -------------------------------------------------
          | TOTAL ENERGY              -86.334109520846 Eh   |
          | GRADIENT NORM               0.000351164090 Eh/α |
          | HOMO-LUMO GAP               1.724476669240 eV   |
           -------------------------------------------------

 * finished run on 2023/06/20 at 15:54:12.237
