   * xtb version 6.5.1 (579679a) compiled by 'ehlert@majestix' on 2022-07-11
          program call               : /lustre/hpc/kemi/ree/PhD/git/ReactivityQM/dep/xtb-6.5.1/bin/xtb --gfn 1 /lustre/hpc/kemi/ree/PhD/git/ReactivityQM/calculations/R02deprot/reac01prodE11/conf08/R02deprot_reac01prodE11_conf08_gfn1.xyz --opt --vfukui --chrg -2 --uhf 0 --alpb DMSO

   ID    Z sym.   atoms
    1    6 C      1, 3, 5, 7-10, 12, 14, 17-19, 22, 24
    2    8 O      2, 4, 13, 20, 23, 25
    3    7 N      6, 11, 15, 16, 21
    4    1 H      26-42

      * Solvation model:               ALPB
        Solvent                        DMSO
        Solvent mass                       7.8130E+01 g/mol
          :  Hamiltonian                  GFN1-xTB          :
 * total energy  :   -83.6425791 Eh     change       -0.4064304E-11 Eh
 * total energy  :   -83.6521558 Eh     change       -0.9576702E-02 Eh
 * total energy  :   -83.6546091 Eh     change       -0.2453329E-02 Eh
 * total energy  :   -83.6550162 Eh     change       -0.4070642E-03 Eh
 * total energy  :   -83.6554438 Eh     change       -0.4276186E-03 Eh
 * total energy  :   -83.6556353 Eh     change       -0.1915281E-03 Eh
 * total energy  :   -83.6557953 Eh     change       -0.1599587E-03 Eh
 * total energy  :   -83.6558940 Eh     change       -0.9871661E-04 Eh
 * total energy  :   -83.6559399 Eh     change       -0.4587078E-04 Eh
 * total energy  :   -83.6559680 Eh     change       -0.2809922E-04 Eh
 * total energy  :   -83.6562414 Eh     change       -0.6205956E-05 Eh
 * total energy  :   -83.6562472 Eh     change       -0.5776321E-05 Eh
 * total energy  :   -83.6562529 Eh     change       -0.5730506E-05 Eh
 * total energy  :   -83.6562588 Eh     change       -0.5905026E-05 Eh
 * total energy  :   -83.6562645 Eh     change       -0.5670233E-05 Eh
 * total energy  :   -83.6562700 Eh     change       -0.5469068E-05 Eh
 * total energy  :   -83.6562755 Eh     change       -0.5486986E-05 Eh
 * total energy  :   -83.6562813 Eh     change       -0.5843310E-05 Eh
 * total energy  :   -83.6562840 Eh     change       -0.2680875E-05 Eh
   *** GEOMETRY OPTIMIZATION CONVERGED AFTER 44 ITERATIONS ***

 final structure:
================
42
 xtb: 6.5.1 (579679a)
C           -5.99277998123624       -1.07381445538385        2.27737072549563
O           -4.78995058674348       -0.70932057613752        1.61175429936422
C           -4.79528567431842       -0.83405523884155        0.26700716393052
O           -5.78091135932985       -1.22508931232428       -0.32878533593348
C           -3.50187512002052       -0.46144961933875       -0.34091961626779
N           -2.54092210120452        0.02432041254960        0.50258571744084
C           -1.36614139006258        0.33013780171664       -0.01308405344563
C           -0.35056737670587        0.90964382452177        0.97051423520448
C           -0.77971745997258        2.35860137280673        1.26756139615667
C           -0.36712391156283        0.07525929766390        2.26408884141776
N            0.96574434289331        0.89218932692304        0.35053938313967
C            2.11804981770654        1.21593966131579        1.05272478735702
O            2.08229185481652        1.88240961067370        2.11361165119962
C            3.32291135694471        0.77567445099531        0.44611021864975
N            4.55425775902957        0.97564559673704        0.88614795045873
N            5.43360734847927        0.39721796418223        0.11580933222417
C            4.69638747564480       -0.27701222244523       -0.96521671362069
C            4.96082272359041       -1.79255424850253       -0.90589920897867
C            5.13026917703956        0.29311747602450       -2.32719525853937
O            3.32201146159196       -0.00572862157166       -0.73108097925952
N           -0.99845560854579        0.22446743730599       -1.28957852020501
C           -1.89896259755505       -0.23303070383937       -2.18830591746746
O           -1.67364342501880       -0.36428620545468       -3.41068625037452
C           -3.22353103666263       -0.59198612781324       -1.67749920036784
O           -4.09378738200274       -1.05189764005298       -2.60778320514788
H           -5.81728424481143       -0.94867532995519        3.34444469862113
H           -6.25013093506644       -2.11488614525113        2.06183395707399
H           -6.81868641503815       -0.43192672758531        1.95806133709635
H           -0.12480412009434        2.80958016907891        2.01202273921923
H           -0.73841614687531        2.95166920436380        0.35345965594031
H           -1.80187797299752        2.36363552464654        1.64554195661703
H            0.26624667141550        0.52983412456588        3.02479660820670
H           -0.01101490472182       -0.93484496793497        2.06116305741947
H           -1.38755694676225        0.01681073446382        2.64173403269486
H            1.07013706983564        0.22383407136793       -0.40549222517690
H            4.64682238137513       -2.17623583512954        0.06363781957326
H            4.40619280700316       -2.30648775996868       -1.68920274234169
H            6.02435616844640       -1.98294320326284       -1.03370869562323
H            4.57985522658683       -0.18865263603589       -3.13364941379491
H            4.93328606369782        1.36393777171183       -2.35061590242982
H            6.19600402960373        0.12612758744741       -2.46910597441506
H           -3.60582903838734       -1.03517484423096       -3.45810535111398

          :  Hamiltonian                  GFN1-xTB          :
         :: total energy             -83.656283998483 Eh    ::
         :: gradient norm              0.000204251162 Eh/a0 ::
         :: HOMO-LUMO gap              0.929032572121 eV    ::
         :: SCC energy               -84.387482996843 Eh    ::
         :: -> Gsolv                  -0.257795081692 Eh    ::
         :: repulsion energy           0.756429021022 Eh    ::

    * Orbital Energies and Occupations

         #    Occupation            Energy/Eh            Energy/eV
      -------------------------------------------------------------
         1        2.0000           -0.8095015             -22.0277
       ...           ...                  ...                  ...
        56        2.0000           -0.4423395             -12.0367
        57        2.0000           -0.4388212             -11.9409
        58        2.0000           -0.4258459             -11.5879
        59        2.0000           -0.4229276             -11.5084
        60        2.0000           -0.4094761             -11.1424
        61        2.0000           -0.4021335             -10.9426
        62        2.0000           -0.3928066             -10.6888
        63        2.0000           -0.3880932             -10.5606
        64        2.0000           -0.3784631             -10.2985
        65        2.0000           -0.3623268              -9.8594
        66        2.0000           -0.3609456              -9.8218
        67        2.0000           -0.3596372              -9.7862
        68        2.0000           -0.3040095              -8.2725 (HOMO)
        69                         -0.2698682              -7.3435 (LUMO)
        70                         -0.2257569              -6.1432
        71                         -0.2165624              -5.8930
        72                         -0.1819799              -4.9519
        73                         -0.1257410              -3.4216
        74                         -0.1147279              -3.1219
        75                         -0.0994979              -2.7075
        76                         -0.0965211              -2.6265
        77                         -0.0934252              -2.5422
        78                         -0.0910987              -2.4789
        79                         -0.0881216              -2.3979
       ...                                ...                  ...
       134                          0.7536388              20.5076
      -------------------------------------------------------------
                  HL-Gap            0.0341413 Eh            0.9290 eV

Wiberg/Mayer (AO) data.
largest (>0.10) Wiberg bond orders for each atom

     #   Z sym  total        # sym  WBO       # sym  WBO       # sym  WBO
 ---------------------------------------------------------------------------
     1   6 C    3.891 --    26 H    0.987    28 H    0.980    27 H    0.980
                             2 O    0.917
     2   8 O    2.175 --     3 C    1.071     1 C    0.917     4 O    0.121
     3   6 C    3.835 --     4 O    1.631     2 O    1.071     5 C    1.034
     4   8 O    1.895 --     3 C    1.631     2 O    0.121
     5   6 C    3.964 --    24 C    1.470     6 N    1.208     3 C    1.034
     6   7 N    2.994 --     7 C    1.455     5 C    1.208
     7   6 C    3.953 --     6 N    1.455    21 N    1.365     8 C    0.973
     8   6 C    3.955 --    10 C    0.984     9 C    0.980     7 C    0.973
                            11 N    0.953
     9   6 C    3.994 --    31 H    0.988    30 H    0.987    29 H    0.981
                             8 C    0.980
    10   6 C    3.994 --    33 H    0.987    34 H    0.985     8 C    0.984
                            32 H    0.984
    11   7 N    3.235 --    12 C    1.119     8 C    0.953    35 H    0.907
                            13 O    0.111
    12   6 C    3.926 --    13 O    1.434    14 C    1.204    11 N    1.119
    13   8 O    1.769 --    12 C    1.434    11 N    0.111
    14   6 C    3.843 --    15 N    1.420    12 C    1.204    20 O    0.921
                            16 N    0.167
    15   7 N    3.022 --    16 N    1.443    14 C    1.420
    16   7 N    2.857 --    15 N    1.443    17 C    0.983    14 C    0.167
    17   6 C    3.901 --    16 N    0.983    19 C    0.977    18 C    0.977
                            20 O    0.925
    18   6 C    3.994 --    38 H    0.988    37 H    0.987    36 H    0.986
                            17 C    0.977
    19   6 C    3.994 --    41 H    0.988    39 H    0.987    40 H    0.986
                            17 C    0.977
    20   8 O    2.052 --    17 C    0.925    14 C    0.921
    21   7 N    2.991 --     7 C    1.365    22 C    1.257    23 O    0.124
    22   6 C    3.931 --    23 O    1.458    21 N    1.257    24 C    1.078
    23   8 O    1.796 --    22 C    1.458    21 N    0.124
    24   6 C    3.904 --     5 C    1.470    22 C    1.078    25 O    1.065
    25   8 O    2.043 --    24 C    1.065    42 H    0.819
    26   1 H    1.014 --     1 C    0.987
    27   1 H    1.012 --     1 C    0.980
    28   1 H    1.011 --     1 C    0.980
    29   1 H    1.025 --     9 C    0.981
    30   1 H    1.011 --     9 C    0.987
    31   1 H    1.014 --     9 C    0.988
    32   1 H    1.019 --    10 C    0.984
    33   1 H    1.009 --    10 C    0.987
    34   1 H    1.024 --    10 C    0.985
    35   1 H    0.984 --    11 N    0.907
    36   1 H    1.016 --    18 C    0.986
    37   1 H    1.009 --    18 C    0.987
    38   1 H    1.012 --    18 C    0.988
    39   1 H    1.009 --    19 C    0.987
    40   1 H    1.016 --    19 C    0.986
    41   1 H    1.012 --    19 C    0.988
    42   1 H    0.880 --    25 O    0.819
 ---------------------------------------------------------------------------

           -------------------------------------------------
          | TOTAL ENERGY              -83.656283998483 Eh   |
          | GRADIENT NORM               0.000204251162 Eh/α |
          | HOMO-LUMO GAP               0.929032572121 eV   |
           -------------------------------------------------

 * finished run on 2023/06/20 at 17:55:08.893
