   * xtb version 6.5.1 (579679a) compiled by 'ehlert@majestix' on 2022-07-11
          program call               : /lustre/hpc/kemi/ree/PhD/git/ReactivityQM/dep/xtb-6.5.1/bin/xtb --gfn 1 /lustre/hpc/kemi/ree/PhD/git/ReactivityQM/calculations/R02oxygendeprot/reac01prodN04/conf09/R02oxygendeprot_reac01prodN04_conf09_gfn1.xyz --opt --vfukui --chrg 0 --uhf 0 --alpb DMSO

   ID    Z sym.   atoms
    1    6 C      1, 3, 5, 6, 8-11, 13, 15, 18, 19, 22, 24
    2    8 O      2, 4, 14, 20, 23, 25
    3    7 N      7, 12, 16, 17, 21
    4    1 H      26-42

      * Solvation model:               ALPB
        Solvent                        DMSO
        Solvent mass                       7.8130E+01 g/mol
          :  Hamiltonian                  GFN1-xTB          :
 * total energy  :   -82.9632709 Eh     change       -0.1043077E-10 Eh
 * total energy  :   -82.9796720 Eh     change       -0.1640108E-01 Eh
 * total energy  :   -82.9853124 Eh     change       -0.5640488E-02 Eh
 * total energy  :   -82.9864898 Eh     change       -0.1177376E-02 Eh
 * total energy  :   -82.9872213 Eh     change       -0.7314906E-03 Eh
 * total energy  :   -82.9876384 Eh     change       -0.4170469E-03 Eh
 * total energy  :   -82.9880635 Eh     change       -0.4251673E-03 Eh
 * total energy  :   -82.9884008 Eh     change       -0.3372595E-03 Eh
 * total energy  :   -82.9886423 Eh     change       -0.2414965E-03 Eh
 * total energy  :   -82.9888088 Eh     change       -0.1664744E-03 Eh
 * total energy  :   -82.9898125 Eh     change       -0.2857266E-04 Eh
 * total energy  :   -82.9898412 Eh     change       -0.2870466E-04 Eh
 * total energy  :   -82.9898588 Eh     change       -0.1765592E-04 Eh
 * total energy  :   -82.9898732 Eh     change       -0.1435403E-04 Eh
 * total energy  :   -82.9898828 Eh     change       -0.9580829E-05 Eh
 * total energy  :   -82.9898878 Eh     change       -0.5041136E-05 Eh
 * total energy  :   -82.9898933 Eh     change       -0.5552080E-05 Eh
 * total energy  :   -82.9898985 Eh     change       -0.5129494E-05 Eh
 * total energy  :   -82.9899026 Eh     change       -0.4168861E-05 Eh
   *** GEOMETRY OPTIMIZATION CONVERGED AFTER 44 ITERATIONS ***

 final structure:
================
42
 xtb: 6.5.1 (579679a)
C           -5.24689190394503        0.88134807921223        1.93805885726556
O           -5.06566769684616        0.50869268307922        0.56799686106615
C           -3.93425347211227        0.13992047500247        0.01019111844710
O           -3.91416841598976        0.28347507068271       -1.30335773765598
C           -5.04194590062982        0.86021777177504       -1.96596138982721
C           -2.76500494874477       -0.35723845995596        0.60918779743758
N           -1.68172062365420       -0.38427888919042       -0.26972243261959
C           -0.53781070091194       -0.79977603962987        0.11426822401239
C            0.61715261624192       -0.86828497760100       -0.86190360431932
C            0.86786543465108       -2.34374521013297       -1.20839137619539
C            0.29296910305688       -0.05311986996179       -2.11709776134200
N            1.79259709672424       -0.30165975510455       -0.18905604316256
C            3.01654994879965       -0.24723998187724       -0.76016288003990
O            3.32714421169965       -0.74583108278790       -1.82650053455367
C            3.96692128769795        0.50373487867985        0.10047491324106
N            3.68547540252357        1.09348870097285        1.22342351132356
N            4.84057844588999        1.66254114814162        1.66856737213730
C            5.75301387042948        1.38530414422025        0.78661882094588
C            7.17753875232742        1.78437649607479        0.80415075749965
O            5.26264956352302        0.65730166551696       -0.22717030076638
N           -0.29900405385158       -1.24603198239741        1.39735152008345
C           -1.26198066446803       -1.31714866007296        2.36828090792587
O           -0.98935736073249       -1.68195278075862        3.49678164507650
C           -2.66218563937653       -0.91946956067569        1.92720581776899
O           -3.60427752986518       -1.14121551209312        2.68618992683098
H           -4.32228892158607        1.27568351301117        2.35936888004518
H           -6.01602340985863        1.65443099148031        1.93484690819314
H           -5.58976153023191        0.02137416772855        2.51539849954479
H           -5.92101333242996        0.22496615621995       -1.83985916612453
H           -5.24876316412829        1.85408538968153       -1.56465621142110
H           -4.77229291504371        0.92616447963581       -3.01819719644406
H           -0.04881849754240       -2.77926584595860       -1.60320116706970
H            1.16552472540182       -2.89182091980715       -0.31630658933025
H            1.65195409648413       -2.42968850985861       -1.95779587427662
H            0.11758191226596        0.98753764895679       -1.84933063136244
H           -0.60693552569562       -0.45181378098148       -2.58252579750529
H            1.11861935032627       -0.10942375242026       -2.82371818517334
H            1.64411577763522        0.24815683151664        0.64386275154227
H            7.41819877575933        2.23952387714296        1.76158380549488
H            7.81112506626137        0.91394649701242        0.63867634426220
H            7.37237664699791        2.50073851173988        0.00566442356598
H            0.63021512294900       -1.53800460621396        1.65833021548151

          :  Hamiltonian                  GFN1-xTB          :
         :: total energy             -82.989902645212 Eh    ::
         :: gradient norm              0.000413401458 Eh/a0 ::
         :: HOMO-LUMO gap              2.338456567965 eV    ::
         :: SCC energy               -83.769542222183 Eh    ::
         :: -> Gsolv                  -0.055176227078 Eh    ::
         :: repulsion energy           0.804887324628 Eh    ::

    * Orbital Energies and Occupations

         #    Occupation            Energy/Eh            Energy/eV
      -------------------------------------------------------------
         1        2.0000           -0.8636388             -23.5008
       ...           ...                  ...                  ...
        55        2.0000           -0.5056752             -13.7601
        56        2.0000           -0.5041981             -13.7199
        57        2.0000           -0.5000143             -13.6061
        58        2.0000           -0.4932247             -13.4213
        59        2.0000           -0.4825497             -13.1308
        60        2.0000           -0.4770580             -12.9814
        61        2.0000           -0.4656870             -12.6720
        62        2.0000           -0.4609708             -12.5437
        63        2.0000           -0.4532584             -12.3338
        64        2.0000           -0.4501169             -12.2483
        65        2.0000           -0.4471413             -12.1673
        66        2.0000           -0.4240350             -11.5386
        67        2.0000           -0.4155111             -11.3066 (HOMO)
        68                         -0.3295744              -8.9682 (LUMO)
        69                         -0.3110784              -8.4649
        70                         -0.2737031              -7.4478
        71                         -0.2568868              -6.9902
        72                         -0.2521110              -6.8603
        73                         -0.1991645              -5.4195
        74                         -0.1601836              -4.3588
        75                         -0.1478086              -4.0221
        76                         -0.1420200              -3.8646
        77                         -0.1377574              -3.7486
        78                         -0.1261566              -3.4329
       ...                                ...                  ...
       134                          0.7503688              20.4186
      -------------------------------------------------------------
                  HL-Gap            0.0859367 Eh            2.3385 eV

Wiberg/Mayer (AO) data.
largest (>0.10) Wiberg bond orders for each atom

     #   Z sym  total        # sym  WBO       # sym  WBO       # sym  WBO
 ---------------------------------------------------------------------------
     1   6 C    3.843 --    26 H    0.982    27 H    0.980    28 H    0.970
                             2 O    0.871
     2   8 O    2.227 --     3 C    1.149     1 C    0.871
     3   6 C    3.830 --     6 C    1.314     2 O    1.149     4 O    1.146
     4   8 O    2.228 --     3 C    1.146     5 C    0.888
     5   6 C    3.861 --    31 H    0.984    29 H    0.978    30 H    0.978
                             4 O    0.888
     6   6 C    3.923 --     3 C    1.314    24 C    1.184     7 N    1.105
     7   7 N    3.027 --     8 C    1.669     6 C    1.105
     8   6 C    3.932 --     7 N    1.669    21 N    1.098     9 C    0.979
     9   6 C    3.933 --    11 C    0.992     8 C    0.979    10 C    0.979
                            12 N    0.919
    10   6 C    3.987 --    32 H    0.986    33 H    0.985     9 C    0.979
                            34 H    0.978
    11   6 C    3.990 --     9 C    0.992    35 H    0.985    36 H    0.984
                            37 H    0.983
    12   7 N    3.335 --    13 C    1.245     9 C    0.919    38 H    0.895
                            14 O    0.175
    13   6 C    3.916 --    14 O    1.599    12 N    1.245    15 C    0.989
    14   8 O    1.915 --    13 C    1.599    12 N    0.175
    15   6 C    3.875 --    16 N    1.610    20 O    1.064    13 C    0.989
    16   7 N    3.017 --    15 C    1.610    17 N    1.200
    17   7 N    2.981 --    18 C    1.604    16 N    1.200
    18   6 C    3.871 --    17 N    1.604    20 O    1.083    19 C    1.031
    19   6 C    3.986 --    18 C    1.031    39 H    0.982    40 H    0.967
                            41 H    0.960
    20   8 O    2.331 --    18 C    1.083    15 C    1.064
    21   7 N    3.432 --    22 C    1.162     8 C    1.098    42 H    0.887
                            23 O    0.139
    22   6 C    3.885 --    23 O    1.636    21 N    1.162    24 C    0.942
    23   8 O    1.912 --    22 C    1.636    21 N    0.139
    24   6 C    3.920 --    25 O    1.601     6 C    1.184    22 C    0.942
    25   8 O    1.924 --    24 C    1.601
    26   1 H    1.007 --     1 C    0.982
    27   1 H    1.009 --     1 C    0.980
    28   1 H    1.022 --     1 C    0.970
    29   1 H    1.005 --     5 C    0.978
    30   1 H    1.004 --     5 C    0.978
    31   1 H    1.009 --     5 C    0.984
    32   1 H    1.002 --    10 C    0.986
    33   1 H    1.001 --    10 C    0.985
    34   1 H    1.010 --    10 C    0.978
    35   1 H    1.006 --    11 C    0.985
    36   1 H    1.010 --    11 C    0.984
    37   1 H    1.007 --    11 C    0.983
    38   1 H    0.952 --    12 N    0.895
    39   1 H    0.998 --    19 C    0.982
    40   1 H    0.997 --    19 C    0.967
    41   1 H    0.997 --    19 C    0.960
    42   1 H    0.933 --    21 N    0.887
 ---------------------------------------------------------------------------

           -------------------------------------------------
          | TOTAL ENERGY              -82.989902645212 Eh   |
          | GRADIENT NORM               0.000413401458 Eh/α |
          | HOMO-LUMO GAP               2.338456567965 eV   |
           -------------------------------------------------

 * finished run on 2023/06/21 at 17:20:14.531
