   * xtb version 6.5.1 (579679a) compiled by 'ehlert@majestix' on 2022-07-11
          program call               : /lustre/hpc/kemi/ree/PhD/git/ReactivityQM/dep/xtb-6.5.1/bin/xtb --gfn 1 /lustre/hpc/kemi/ree/PhD/git/ReactivityQM/calculations/R02deprot/reac01prodE05/conf04/R02deprot_reac01prodE05_conf04_gfn1.xyz --opt --vfukui --chrg -2 --uhf 0 --alpb DMSO

   ID    Z sym.   atoms
    1    6 C      1, 3, 5, 6, 8, 11-14, 16, 18, 21, 22, 25
    2    8 O      2, 4, 7, 9, 17, 23
    3    7 N      10, 15, 19, 20, 24
    4    1 H      26-42

      * Solvation model:               ALPB
        Solvent                        DMSO
        Solvent mass                       7.8130E+01 g/mol
          :  Hamiltonian                  GFN1-xTB          :
 * total energy  :   -83.5593299 Eh     change       -0.2629577E-09 Eh
 * total energy  :   -83.5741156 Eh     change       -0.1478575E-01 Eh
 * total energy  :   -83.5795774 Eh     change       -0.5461770E-02 Eh
 * total energy  :   -83.5805859 Eh     change       -0.1008541E-02 Eh
 * total energy  :   -83.5815476 Eh     change       -0.9616497E-03 Eh
 * total energy  :   -83.5819715 Eh     change       -0.4239707E-03 Eh
 * total energy  :   -83.5823345 Eh     change       -0.3629215E-03 Eh
 * total energy  :   -83.5825620 Eh     change       -0.2275266E-03 Eh
 * total energy  :   -83.5826922 Eh     change       -0.1302370E-03 Eh
 * total energy  :   -83.5827809 Eh     change       -0.8867014E-04 Eh
 * total energy  :   -83.5831577 Eh     change       -0.8445054E-05 Eh
 * total energy  :   -83.5831668 Eh     change       -0.9166259E-05 Eh
 * total energy  :   -83.5831793 Eh     change       -0.1240981E-04 Eh
 * total energy  :   -83.5831913 Eh     change       -0.1201206E-04 Eh
 * total energy  :   -83.5832007 Eh     change       -0.9420354E-05 Eh
 * total energy  :   -83.5832079 Eh     change       -0.7205921E-05 Eh
 * total energy  :   -83.5832141 Eh     change       -0.6247410E-05 Eh
 * total energy  :   -83.5832198 Eh     change       -0.5658250E-05 Eh
 * total energy  :   -83.5832225 Eh     change       -0.2734885E-05 Eh
   *** GEOMETRY OPTIMIZATION CONVERGED AFTER 33 ITERATIONS ***

 final structure:
================
42
 xtb: 6.5.1 (579679a)
C            5.73468926823592       -1.19549990576512       -1.70843627067157
O            4.76633931154555       -1.27765978077965       -0.67928957782267
C            3.59293620515956       -0.52592030334359       -0.92510237342775
O            3.54201601666139        0.13598262451887       -1.99141597973554
C            2.61606616904159       -0.63801927763992        0.07646208369041
C            2.73530032823272       -1.28155972713113        1.34770356766180
O            3.76643886573366       -2.16952646990471        1.62341028194210
C            1.82841829814174       -1.04367447350750        2.39831648554271
O            1.86166644630370       -1.59322051794338        3.53462343831095
N            0.82586649241221       -0.07368166800148        2.14680462368942
C            0.60807302601799        0.38785343346714        0.96328904603711
C           -0.53688363951837        1.41132229050365        0.84888692425821
C           -0.01468577928272        2.70098428293617        0.19530989134190
C           -1.04572910188165        1.73882258824147        2.26532219689706
N           -1.62217048850925        0.81382591856740        0.06176044594986
C           -2.82300902138763        1.52055022494904       -0.15121253244217
O           -2.90797035425598        2.76673895952158       -0.03436072424432
C           -3.89901495649448        0.69447486293275       -0.57963390970659
N           -5.15370188281826        1.06425396143220       -0.87900481351767
N           -5.82566639421094       -0.08060175961414       -1.20913443045215
C           -4.99692100947095       -1.06661147326382       -1.10515973107294
C           -5.27472040802390       -2.50178235329831       -1.36546801268404
O           -3.75484639143186       -0.68088095572143       -0.71275049011673
N            1.37693721992860        0.07317939231594       -0.12034162589919
C            0.88747902038807        0.18544457626824       -1.49295492775144
H            6.08895079414049       -0.16561761350414       -1.83940508073767
H            5.32826646498357       -1.54774160950789       -2.66415144885665
H            6.57298590003497       -1.82975495315302       -1.41924605585487
H            4.39367912457219       -2.19785360142468        0.88464310211152
H           -0.68776131919193        3.53243294747116        0.39875355937474
H            0.96675937525202        2.94315909904415        0.60364111330552
H            0.07007002827706        2.59186617101112       -0.88353827920253
H           -1.84713131943292        2.47452405858572        2.21265062455657
H           -1.41979623170511        0.83755026624150        2.75032366290917
H           -0.23197225715235        2.14371679324641        2.86627256140759
H           -1.77815184242394       -0.16232545440396        0.28257515504209
H           -4.62744993142459       -2.87809699790229       -2.15915375328238
H           -6.31389154052416       -2.61997789185901       -1.66446912533487
H           -5.08905752270755       -3.09609065137395       -0.46933514622341
H            1.16201598453199       -0.71595269641463       -2.04370075587438
H           -0.19794656066648        0.27663023425780       -1.49974456200312
H            1.32352361292793        1.04873944992282       -2.00065715710736

          :  Hamiltonian                  GFN1-xTB          :
         :: total energy             -83.583222534947 Eh    ::
         :: gradient norm              0.000837412250 Eh/a0 ::
         :: HOMO-LUMO gap              0.025248755594 eV    ::
         :: SCC energy               -84.305148566582 Eh    ::
         :: -> Gsolv                  -0.260037387206 Eh    ::
         :: repulsion energy           0.748536545983 Eh    ::

    * Orbital Energies and Occupations

         #    Occupation            Energy/Eh            Energy/eV
      -------------------------------------------------------------
         1        2.0000           -0.7963184             -21.6689
       ...           ...                  ...                  ...
        56        2.0000           -0.4360418             -11.8653
        57        2.0000           -0.4349722             -11.8362
        58        2.0000           -0.4228185             -11.5055
        59        2.0000           -0.4039745             -10.9927
        60        2.0000           -0.4006868             -10.9032
        61        2.0000           -0.3978434             -10.8259
        62        2.0000           -0.3931259             -10.6975
        63        2.0000           -0.3917427             -10.6599
        64        2.0000           -0.3904297             -10.6241
        65        2.0000           -0.3822622             -10.4019
        66        2.0000           -0.3517212              -9.5708
        67        2.0000           -0.3467033              -9.4343
        68        1.2394           -0.2643114              -7.1923 (HOMO)
        69        0.7606           -0.2633835              -7.1670 (LUMO)
        70                         -0.2162785              -5.8852
        71                         -0.2055653              -5.5937
        72                         -0.1546665              -4.2087
        73                         -0.1355293              -3.6879
        74                         -0.1221006              -3.3225
        75                         -0.1063521              -2.8940
        76                         -0.0997151              -2.7134
        77                         -0.0939705              -2.5571
        78                         -0.0869718              -2.3666
        79                         -0.0783479              -2.1320
       ...                                ...                  ...
       134                          0.7030568              19.1312
      -------------------------------------------------------------
                  HL-Gap            0.0009279 Eh            0.0252 eV

Wiberg/Mayer (AO) data.
largest (>0.10) Wiberg bond orders for each atom

     #   Z sym  total        # sym  WBO       # sym  WBO       # sym  WBO
 ---------------------------------------------------------------------------
     1   6 C    3.911 --    28 H    0.987    26 H    0.981    27 H    0.981
                             2 O    0.939
     2   8 O    2.067 --     1 C    0.939     3 C    0.917
     3   6 C    3.730 --     4 O    1.407     5 C    1.313     2 O    0.917
     4   8 O    1.682 --     3 C    1.407
     5   6 C    3.741 --     3 C    1.313     6 C    1.217    24 N    0.967
     6   6 C    3.699 --     8 C    1.286     5 C    1.217     7 O    0.996
     7   8 O    1.943 --     6 C    0.996    29 H    0.835
     8   6 C    3.833 --     9 O    1.407     6 C    1.286    10 N    1.032
     9   8 O    1.625 --     8 C    1.407
    10   7 N    2.966 --    11 C    1.602     8 C    1.032    24 N    0.132
    11   6 C    3.931 --    10 N    1.602    24 N    1.198    12 C    0.962
    12   6 C    3.950 --    13 C    0.992    14 C    0.991    11 C    0.962
                            15 N    0.942
    13   6 C    3.994 --    12 C    0.992    31 H    0.988    32 H    0.982
                            30 H    0.981
    14   6 C    3.993 --    12 C    0.991    35 H    0.987    34 H    0.985
                            33 H    0.984
    15   7 N    3.147 --    16 C    1.061    12 C    0.942    36 H    0.921
                            17 O    0.101
    16   6 C    3.738 --    17 O    1.427    18 C    1.179    15 N    1.061
    17   8 O    1.666 --    16 C    1.427    15 N    0.101
    18   6 C    3.685 --    19 N    1.377    16 C    1.179    23 O    0.960
    19   7 N    2.703 --    18 C    1.377    20 N    1.189
    20   7 N    2.981 --    21 C    1.629    19 N    1.189
    21   6 C    3.808 --    20 N    1.629    23 O    1.037    22 C    1.023
    22   6 C    3.994 --    21 C    1.023    38 H    0.986    39 H    0.972
                            37 H    0.971
    23   8 O    2.166 --    21 C    1.037    18 C    0.960
    24   7 N    3.342 --    11 C    1.198     5 C    0.967    25 C    0.946
                            10 N    0.132
    25   6 C    3.952 --    40 H    0.982    42 H    0.978    41 H    0.976
                            24 N    0.946
    26   1 H    1.020 --     1 C    0.981
    27   1 H    1.020 --     1 C    0.981
    28   1 H    1.018 --     1 C    0.987
    29   1 H    0.895 --     7 O    0.835
    30   1 H    1.025 --    13 C    0.981
    31   1 H    1.008 --    13 C    0.988
    32   1 H    1.009 --    13 C    0.982
    33   1 H    1.016 --    14 C    0.984
    34   1 H    1.022 --    14 C    0.985
    35   1 H    1.018 --    14 C    0.987
    36   1 H    0.967 --    15 N    0.921
    37   1 H    1.001 --    22 C    0.971
    38   1 H    1.005 --    22 C    0.986
    39   1 H    1.001 --    22 C    0.972
    40   1 H    1.016 --    25 C    0.982
    41   1 H    1.022 --    25 C    0.976
    42   1 H    1.031 --    25 C    0.978
 ---------------------------------------------------------------------------

           -------------------------------------------------
          | TOTAL ENERGY              -83.583222534947 Eh   |
          | GRADIENT NORM               0.000837412250 Eh/α |
          | HOMO-LUMO GAP               0.025248755594 eV   |
           -------------------------------------------------

 * finished run on 2023/06/20 at 17:41:24.094
