   * xtb version 6.5.1 (579679a) compiled by 'ehlert@majestix' on 2022-07-11
          program call               : /lustre/hpc/kemi/ree/PhD/git/ReactivityQM/dep/xtb-6.5.1/bin/xtb --gfn 1 /lustre/hpc/kemi/ree/PhD/git/ReactivityQM/calculations/RaltegravirCLI/reac02prodN10/conf15/RaltegravirCLI_reac02prodN10_conf15_gfn1.xyz --opt --vfukui --chrg 1 --uhf 0 --alpb DMSO

   ID    Z sym.   atoms
    1    6 C      1-5, 7, 9, 11-14, 17, 18, 20, 22-24
    2    7 N      6, 10, 15, 16
    3    8 O      8, 19, 21
    4    9 F      25
    5    1 H      26-47

      * Solvation model:               ALPB
        Solvent                        DMSO
        Solvent mass                       7.8130E+01 g/mol
          :  Hamiltonian                  GFN1-xTB          :
 * total energy  :   -79.4676550 Eh     change       -0.2191314E-10 Eh
 * total energy  :   -79.4765999 Eh     change       -0.8944929E-02 Eh
 * total energy  :   -79.4786867 Eh     change       -0.2086750E-02 Eh
 * total energy  :   -79.4790185 Eh     change       -0.3318083E-03 Eh
 * total energy  :   -79.4792887 Eh     change       -0.2702250E-03 Eh
 * total energy  :   -79.4793948 Eh     change       -0.1060942E-03 Eh
 * total energy  :   -79.4794780 Eh     change       -0.8317009E-04 Eh
 * total energy  :   -79.4795251 Eh     change       -0.4711879E-04 Eh
 * total energy  :   -79.4795677 Eh     change       -0.4265358E-04 Eh
 * total energy  :   -79.4796170 Eh     change       -0.4925742E-04 Eh
 * total energy  :   -79.4849132 Eh     change       -0.3551916E-04 Eh
 * total energy  :   -79.4849624 Eh     change       -0.4919949E-04 Eh
 * total energy  :   -79.4850117 Eh     change       -0.4930482E-04 Eh
 * total energy  :   -79.4850509 Eh     change       -0.3913608E-04 Eh
 * total energy  :   -79.4850606 Eh     change       -0.9715531E-05 Eh
 * total energy  :   -79.4850756 Eh     change       -0.1500009E-04 Eh
 * total energy  :   -79.4850834 Eh     change       -0.7773561E-05 Eh
 * total energy  :   -79.4850916 Eh     change       -0.8214809E-05 Eh
 * total energy  :   -79.4850958 Eh     change       -0.4191407E-05 Eh
   *** GEOMETRY OPTIMIZATION CONVERGED AFTER 89 ITERATIONS ***

 final structure:
================
47
 xtb: 6.5.1 (579679a)
C            6.61612729592099        0.48904760621360       -2.23644349297411
C            5.91061440422018        0.50660965406432       -0.85412104601078
C            4.73079067416150        1.39057707313162       -0.81163620412190
C            3.52906602031268        0.99784561580073       -0.28635402352063
C            2.36483922156707        1.96955141066214       -0.26937985911978
N            1.17849576952530        1.38997205458592        0.31444220423669
C            0.19565934792937        0.88635311754432       -0.47584883079155
O            0.20902193224663        0.99571706531027       -1.69021380517712
C           -0.90661715185964        0.20048278253351        0.27218841757280
N           -2.12670574644961        0.20943406322474       -0.33454959354739
C           -3.15808882423200       -0.35902046923585        0.21148886386090
C           -4.46601002277004       -0.22970264880066       -0.55990725111386
C           -5.23709188075371        0.98382323519922       -0.02024811841627
C           -4.14932842380443       -0.01230657717562       -2.05069968451894
N           -5.27854921523832       -1.42728222150771       -0.41255822840155
N           -3.08070628237112       -0.98675588063973        1.42796707200300
C           -4.23264987779121       -1.59507931210887        2.10028791360907
C           -1.87222899855578       -1.11354065079825        2.09155134563591
O           -1.75396728434131       -1.71189842121054        3.15775589481531
C           -0.74657149971076       -0.46602080814257        1.44991885499459
O            0.44019541845698       -0.58522955930550        2.08861156921235
C            3.39108582247093       -0.31174716491808        0.22114285563101
C            4.44251728584108       -1.22596273692377        0.20287413013147
C            5.64352258599257       -0.83865401230563       -0.32925450692615
F            6.64221216750832       -1.68315040427576       -0.37335996932580
H            5.93950328652857        0.08049207218804       -2.98387773533519
H            7.50973742563112       -0.12814098965106       -2.17463966585006
H            6.89240993409536        1.50421993616950       -2.51176587236400
H            6.65559673264508        0.95812011303274       -0.17156221278424
H            4.86240271151027        2.38919060621107       -1.21252253292290
H            2.64867120029245        2.86016767358184        0.29710754486670
H            2.12932415200397        2.26734528915815       -1.29738675542592
H            1.15944019062393        1.27104625241168        1.31260368255419
H           -4.61452771883260        1.87531653724872       -0.08733198766653
H           -6.13833522528114        1.13682685047951       -0.61249966867306
H           -5.52432554593453        0.83362432859988        1.01906505768125
H           -5.08019729482460        0.03748787404055       -2.61238916866858
H           -3.59685781134763        0.91612632669429       -2.18785657773251
H           -3.54908207989999       -0.83814635045007       -2.42952980960771
H           -4.88146240665260       -2.19343857829926       -0.93811767797446
H           -6.21724649486782       -1.25763194684932       -0.74290529470514
H           -4.44026594562876       -2.56948290833283        1.66099731000865
H           -3.98340165651592       -1.71345367899672        3.15475292149629
H           -5.10478370715554       -0.95730441294948        1.99749906680929
H            0.29708079583357       -1.09695438409956        2.90839305272009
H            2.43648369344740       -0.61877094235766        0.63660050113144
H            4.31420802605257       -2.22970247876028        0.58882531469647

          :  Hamiltonian                  GFN1-xTB          :
         :: total energy             -79.485095759390 Eh    ::
         :: gradient norm              0.000885755511 Eh/a0 ::
         :: HOMO-LUMO gap              0.163456725110 eV    ::
         :: SCC energy               -80.367686794225 Eh    ::
         :: -> Gsolv                  -0.106750920516 Eh    ::
         :: repulsion energy           0.912417039584 Eh    ::

    * Orbital Energies and Occupations

         #    Occupation            Energy/Eh            Energy/eV
      -------------------------------------------------------------
         1        2.0000           -0.9433908             -25.6710
       ...           ...                  ...                  ...
        55        2.0000           -0.5196083             -14.1393
        56        2.0000           -0.5152272             -14.0200
        57        2.0000           -0.5090473             -13.8519
        58        2.0000           -0.5009597             -13.6318
        59        2.0000           -0.4994633             -13.5911
        60        2.0000           -0.4929365             -13.4135
        61        2.0000           -0.4780624             -13.0087
        62        2.0000           -0.4731099             -12.8740
        63        2.0000           -0.4604597             -12.5297
        64        2.0000           -0.4563269             -12.4173
        65        2.0000           -0.4436090             -12.0712
        66        1.9999           -0.4290799             -11.6759
        67        1.9187           -0.4220336             -11.4841 (HOMO)
        68        0.0813           -0.4160267             -11.3207 (LUMO)
        69                         -0.3265960              -8.8871
        70                         -0.3185149              -8.6672
        71                         -0.2821292              -7.6771
        72                         -0.2457872              -6.6882
        73                         -0.2419042              -6.5825
        74                         -0.1622082              -4.4139
        75                         -0.1585330              -4.3139
        76                         -0.1507422              -4.1019
        77                         -0.1503403              -4.0910
        78                         -0.1363227              -3.7095
       ...                                ...                  ...
       144                          0.7082906              19.2736
      -------------------------------------------------------------
                  HL-Gap            0.0060069 Eh            0.1635 eV

Wiberg/Mayer (AO) data.
largest (>0.10) Wiberg bond orders for each atom

     #   Z sym  total        # sym  WBO       # sym  WBO       # sym  WBO
 ---------------------------------------------------------------------------
     1   6 C    3.958 --    26 H    0.984    28 H    0.983    27 H    0.981
                             2 C    0.914
     2   6 C    3.985 --     3 C    1.081    24 C    1.066     1 C    0.914
                            29 H    0.842
     3   6 C    3.923 --     4 C    1.566     2 C    1.081    30 H    0.964
     4   6 C    3.981 --     3 C    1.566    22 C    1.304     5 C    0.994
     5   6 C    3.952 --     4 C    0.994     6 N    0.970    31 H    0.959
                            32 H    0.953
     6   7 N    3.324 --     7 C    1.226     5 C    0.970    33 H    0.889
                             8 O    0.165
     7   6 C    3.899 --     8 O    1.607     6 N    1.226     9 C    0.985
     8   8 O    1.897 --     7 C    1.607     6 N    0.165
     9   6 C    3.966 --    20 C    1.510    10 N    1.205     7 C    0.985
    10   7 N    3.027 --    11 C    1.553     9 C    1.205
    11   6 C    3.920 --    10 N    1.553    16 N    1.182    12 C    0.975
    12   6 C    3.956 --    15 N    0.985    14 C    0.981    13 C    0.981
                            11 C    0.975
    13   6 C    3.992 --    34 H    0.985    35 H    0.982    12 C    0.981
                            36 H    0.980
    14   6 C    3.980 --    37 H    0.986    39 H    0.985    38 H    0.981
                            12 C    0.981
    15   7 N    2.948 --    12 C    0.985    40 H    0.933    41 H    0.930
    16   7 N    3.516 --    11 C    1.182    18 C    1.130    17 C    0.925
                            19 O    0.132
    17   6 C    3.917 --    44 H    0.978    43 H    0.975    42 H    0.975
                            16 N    0.925
    18   6 C    3.917 --    19 O    1.545    16 N    1.130    20 C    1.093
    19   8 O    1.892 --    18 C    1.545    16 N    0.132
    20   6 C    3.913 --     9 C    1.510    18 C    1.093    21 O    1.062
    21   8 O    2.058 --    20 C    1.062    45 H    0.799
    22   6 C    3.896 --    23 C    1.399     4 C    1.304    46 H    0.957
    23   6 C    3.982 --    24 C    1.473    22 C    1.399    47 H    0.956
    24   6 C    3.807 --    23 C    1.473     2 C    1.066    25 F    1.026
    25   9 F    1.188 --    24 C    1.026
    26   1 H    0.994 --     1 C    0.984
    27   1 H    0.996 --     1 C    0.981
    28   1 H    0.993 --     1 C    0.983
    29   1 H    0.969 --     2 C    0.842
    30   1 H    0.988 --     3 C    0.964
    31   1 H    0.998 --     5 C    0.959
    32   1 H    1.006 --     5 C    0.953
    33   1 H    0.937 --     6 N    0.889
    34   1 H    1.003 --    13 C    0.985
    35   1 H    0.999 --    13 C    0.982
    36   1 H    1.003 --    13 C    0.980
    37   1 H    1.002 --    14 C    0.986
    38   1 H    1.012 --    14 C    0.981
    39   1 H    1.006 --    14 C    0.985
    40   1 H    0.950 --    15 N    0.933
    41   1 H    0.946 --    15 N    0.930
    42   1 H    1.014 --    17 C    0.975
    43   1 H    1.007 --    17 C    0.975
    44   1 H    1.018 --    17 C    0.978
    45   1 H    0.841 --    21 O    0.799
    46   1 H    1.009 --    22 C    0.957
    47   1 H    0.985 --    23 C    0.956
 ---------------------------------------------------------------------------

           -------------------------------------------------
          | TOTAL ENERGY              -79.485095759390 Eh   |
          | GRADIENT NORM               0.000885755511 Eh/α |
          | HOMO-LUMO GAP               0.163456725110 eV   |
           -------------------------------------------------

 * finished run on 2023/06/20 at 15:30:05.798
