   * xtb version 6.5.1 (579679a) compiled by 'ehlert@majestix' on 2022-07-11
          program call               : /lustre/hpc/kemi/ree/PhD/git/ReactivityQM/dep/xtb-6.5.1/bin/xtb --gfn 1 /lustre/hpc/kemi/ree/PhD/git/ReactivityQM/calculations/RaltegravirCLI/reac02prodN12/conf06/RaltegravirCLI_reac02prodN12_conf06_gfn1.xyz --opt --vfukui --chrg 1 --uhf 0 --alpb DMSO

   ID    Z sym.   atoms
    1    6 C      1, 3, 5, 6, 8, 9, 12-16, 18, 19, 21-24
    2    7 N      2, 11, 20, 25
    3    8 O      4, 7, 10
    4    9 F      17
    5    1 H      26-47

      * Solvation model:               ALPB
        Solvent                        DMSO
        Solvent mass                       7.8130E+01 g/mol
          :  Hamiltonian                  GFN1-xTB          :
 * total energy  :   -79.4715936 Eh     change       -0.7531753E-11 Eh
 * total energy  :   -79.4823612 Eh     change       -0.1076761E-01 Eh
 * total energy  :   -79.4870533 Eh     change       -0.4692131E-02 Eh
 * total energy  :   -79.4879918 Eh     change       -0.9385112E-03 Eh
 * total energy  :   -79.4888749 Eh     change       -0.8831049E-03 Eh
 * total energy  :   -79.4893811 Eh     change       -0.5061491E-03 Eh
 * total energy  :   -79.4899297 Eh     change       -0.5486292E-03 Eh
 * total energy  :   -79.4905304 Eh     change       -0.6006892E-03 Eh
 * total energy  :   -79.4910255 Eh     change       -0.4950725E-03 Eh
 * total energy  :   -79.4914059 Eh     change       -0.3804360E-03 Eh
 * total energy  :   -79.4933807 Eh     change       -0.2346988E-04 Eh
 * total energy  :   -79.4933984 Eh     change       -0.1773296E-04 Eh
 * total energy  :   -79.4934066 Eh     change       -0.8190386E-05 Eh
 * total energy  :   -79.4934157 Eh     change       -0.9112737E-05 Eh
 * total energy  :   -79.4934234 Eh     change       -0.7728480E-05 Eh
 * total energy  :   -79.4934288 Eh     change       -0.5365264E-05 Eh
 * total energy  :   -79.4934343 Eh     change       -0.5513902E-05 Eh
 * total energy  :   -79.4934396 Eh     change       -0.5284375E-05 Eh
 * total energy  :   -79.4934445 Eh     change       -0.4846855E-05 Eh
   *** GEOMETRY OPTIMIZATION CONVERGED AFTER 50 ITERATIONS ***

 final structure:
================
47
 xtb: 6.5.1 (579679a)
C           -3.64669225262434        1.36606771017217       -1.93140785921370
N           -2.46171302315567        0.62639702611464       -1.48513623402470
C           -1.71842265612765        0.04611054026686       -2.58676833364621
O           -2.01686136398999        0.32302861554132       -3.70635748447230
C           -0.69975986435827       -0.99247262544180       -2.17241166480147
C           -1.51658945987974       -2.32129927903548       -2.02978071438783
O            0.25614942087812       -1.11447834275508       -3.16570017482424
C           -0.16964709776511       -0.70851257014475       -0.80339019309824
C            1.14086076835691       -1.30973206236558       -0.37358837514712
O            1.81989390376594       -1.97629220465272       -1.14374377309309
N            1.44316947997844       -1.06609993960174        0.90199646460062
C            2.65680714478720       -1.59627966539446        1.51938699163212
C            3.77495382566713       -0.58109252274435        1.41765986232667
C            4.08258625442074        0.23612946626144        2.50179493689832
C            5.09527883526057        1.18052212729372        2.40484081039715
C            5.77905204561782        1.28778382916433        1.20710183292166
F            6.75493603770137        2.20079564796931        1.10324789899221
C            5.49489292492957        0.49281484462653        0.11052093171575
C            4.48149775076026       -0.44751632254756        0.22421270617626
N           -0.87331625348723       -0.07312155878823        0.07195885673105
C           -2.06287812056638        0.51801906541087       -0.23226309546433
C           -2.84544109538864        0.99664067714022        0.97021770457884
C           -1.98369861315986        0.92345324384680        2.23828008544988
C           -4.05869588016026        0.05831888251784        1.11395226465079
N           -3.31308346237774        2.35655828138528        0.75802131994224
H           -4.39961674745035        0.64432503870967       -2.24631554918683
H           -3.35935772845745        1.98570248533288       -2.78068786291843
H           -4.01616997801688        1.98306500947855       -1.11728423372867
H           -1.94745559973427       -2.55417289112307       -3.00150857856723
H           -0.82769280220608       -3.11003667563889       -1.73672492743102
H           -2.29983571231611       -2.21681006225919       -1.28445538945672
H            1.01431868994821       -1.63628055937837       -2.83119597384983
H            0.82310333647260       -0.49536946040419        1.45493185920308
H            2.42347643957743       -1.81980339232941        2.56163885807980
H            2.91881842791513       -2.51747753454317        0.99127487391608
H            3.52968077912133        0.13607151845992        3.42766235603214
H            5.34595884800814        1.82218715952820        3.23920610550313
H            6.05320130241659        0.60951904584617       -0.80951833016451
H            4.23512936645151       -1.08157613864882       -0.61927045827837
H           -2.56037204422818        1.30438381914567        3.07913800845819
H           -1.69110606588308       -0.10467901529996        2.44248313014753
H           -1.08845830769743        1.53023972584712        2.11907410492055
H           -3.72632893652695       -0.97416922610369        1.20537422072210
H           -4.60647538055424        0.33631562102193        2.01269393200470
H           -4.71984016405818        0.14741777075618        0.25468974096998
H           -2.53406314099212        2.99635432169131        0.82488309203918
H           -3.98019783087729        2.58905157566942        1.48011325674121

          :  Hamiltonian                  GFN1-xTB          :
         :: total energy             -79.493444457165 Eh    ::
         :: gradient norm              0.000585028712 Eh/a0 ::
         :: HOMO-LUMO gap              0.714201008687 eV    ::
         :: SCC energy               -80.384339213363 Eh    ::
         :: -> Gsolv                  -0.109498462222 Eh    ::
         :: repulsion energy           0.922031177822 Eh    ::

    * Orbital Energies and Occupations

         #    Occupation            Energy/Eh            Energy/eV
      -------------------------------------------------------------
         1        2.0000           -0.8864696             -24.1221
       ...           ...                  ...                  ...
        55        2.0000           -0.5218696             -14.2008
        56        2.0000           -0.5207304             -14.1698
        57        2.0000           -0.5183415             -14.1048
        58        2.0000           -0.5157315             -14.0338
        59        2.0000           -0.5135171             -13.9735
        60        2.0000           -0.5109716             -13.9042
        61        2.0000           -0.4939417             -13.4408
        62        2.0000           -0.4810133             -13.0890
        63        2.0000           -0.4743702             -12.9083
        64        2.0000           -0.4714639             -12.8292
        65        2.0000           -0.4592445             -12.4967
        66        2.0000           -0.4464077             -12.1474
        67        2.0000           -0.4419374             -12.0257 (HOMO)
        68        0.0000           -0.4156910             -11.3115 (LUMO)
        69                         -0.3442222              -9.3668
        70                         -0.3012958              -8.1987
        71                         -0.2811142              -7.6495
        72                         -0.2763472              -7.5198
        73                         -0.2446922              -6.6584
        74                         -0.1619502              -4.4069
        75                         -0.1547974              -4.2123
        76                         -0.1537497              -4.1837
        77                         -0.1452597              -3.9527
        78                         -0.1415299              -3.8512
       ...                                ...                  ...
       144                          0.6949651              18.9110
      -------------------------------------------------------------
                  HL-Gap            0.0262464 Eh            0.7142 eV

Wiberg/Mayer (AO) data.
largest (>0.10) Wiberg bond orders for each atom

     #   Z sym  total        # sym  WBO       # sym  WBO       # sym  WBO
 ---------------------------------------------------------------------------
     1   6 C    3.880 --    27 H    0.967    26 H    0.964    28 H    0.957
                             2 N    0.906
     2   7 N    3.567 --    21 C    1.441     3 C    0.958     1 C    0.906
     3   6 C    3.853 --     4 O    1.801     2 N    0.958     5 C    0.952
     4   8 O    2.047 --     3 C    1.801
     5   6 C    3.944 --     7 O    1.006     8 C    0.997     3 C    0.952
                             6 C    0.868
     6   6 C    3.967 --    31 H    0.986    30 H    0.976    29 H    0.974
                             5 C    0.868
     7   8 O    1.917 --     5 C    1.006    32 H    0.797
     8   6 C    3.904 --    20 N    1.623     5 C    0.997     9 C    0.974
     9   6 C    3.921 --    10 O    1.555    11 N    1.317     8 C    0.974
    10   8 O    1.935 --     9 C    1.555    11 N    0.201
    11   7 N    3.433 --     9 C    1.317    12 C    0.924    33 H    0.888
                            10 O    0.201
    12   6 C    3.923 --    13 C    0.985    34 H    0.972    35 H    0.967
                            11 N    0.924
    13   6 C    3.983 --    14 C    1.422    19 C    1.415    12 C    0.985
    14   6 C    3.992 --    15 C    1.441    13 C    1.422    36 H    0.970
                            18 C    0.110
    15   6 C    3.990 --    14 C    1.441    16 C    1.401    37 H    0.968
                            19 C    0.111
    16   6 C    3.862 --    15 C    1.401    18 C    1.397    17 F    0.931
    17   9 F    1.060 --    16 C    0.931
    18   6 C    3.991 --    19 C    1.447    16 C    1.397    38 H    0.969
                            14 C    0.110
    19   6 C    3.992 --    18 C    1.447    13 C    1.415    39 H    0.969
                            15 C    0.111
    20   7 N    3.073 --     8 C    1.623    21 C    1.195
    21   6 C    3.872 --     2 N    1.441    20 N    1.195    22 C    0.990
    22   6 C    3.955 --    21 C    0.990    23 C    0.986    25 N    0.986
                            24 C    0.949
    23   6 C    3.988 --    22 C    0.986    42 H    0.983    40 H    0.982
                            41 H    0.982
    24   6 C    3.985 --    43 H    0.984    45 H    0.983    44 H    0.975
                            22 C    0.949
    25   7 N    3.007 --    22 C    0.986    46 H    0.929    47 H    0.925
    26   1 H    0.994 --     1 C    0.964
    27   1 H    0.998 --     1 C    0.967
    28   1 H    1.020 --     1 C    0.957
    29   1 H    0.995 --     6 C    0.974
    30   1 H    0.995 --     6 C    0.976
    31   1 H    0.995 --     6 C    0.986
    32   1 H    0.856 --     7 O    0.797
    33   1 H    0.944 --    11 N    0.888
    34   1 H    0.998 --    12 C    0.972
    35   1 H    1.002 --    12 C    0.967
    36   1 H    0.998 --    14 C    0.970
    37   1 H    0.996 --    15 C    0.968
    38   1 H    0.997 --    18 C    0.969
    39   1 H    1.005 --    19 C    0.969
    40   1 H    0.998 --    23 C    0.982
    41   1 H    1.005 --    23 C    0.982
    42   1 H    1.003 --    23 C    0.983
    43   1 H    0.998 --    24 C    0.984
    44   1 H    0.993 --    24 C    0.975
    45   1 H    0.998 --    24 C    0.983
    46   1 H    0.944 --    25 N    0.929
    47   1 H    0.940 --    25 N    0.925
 ---------------------------------------------------------------------------

           -------------------------------------------------
          | TOTAL ENERGY              -79.493444457165 Eh   |
          | GRADIENT NORM               0.000585028712 Eh/α |
          | HOMO-LUMO GAP               0.714201008687 eV   |
           -------------------------------------------------

 * finished run on 2023/06/20 at 15:33:27.954
