   * xtb version 6.5.1 (579679a) compiled by 'ehlert@majestix' on 2022-07-11
          program call               : /lustre/hpc/kemi/ree/PhD/git/ReactivityQM/dep/xtb-6.5.1/bin/xtb --gfn 1 /lustre/hpc/kemi/ree/PhD/git/ReactivityQM/calculations/R02oxygendeprot/reac01prodN19/conf02/R02oxygendeprot_reac01prodN19_conf02_gfn1.xyz --opt --vfukui --chrg 0 --uhf 0 --alpb DMSO

   ID    Z sym.   atoms
    1    6 C      1, 3, 5, 7-10, 12, 14, 17, 18, 21, 23, 24
    2    8 O      2, 4, 13, 19, 22, 25
    3    7 N      6, 11, 15, 16, 20
    4    1 H      26-42

      * Solvation model:               ALPB
        Solvent                        DMSO
        Solvent mass                       7.8130E+01 g/mol
          :  Hamiltonian                  GFN1-xTB          :
 * total energy  :   -82.9758427 Eh     change       -0.2104628E-10 Eh
 * total energy  :   -82.9905935 Eh     change       -0.1475080E-01 Eh
 * total energy  :   -82.9962678 Eh     change       -0.5674363E-02 Eh
 * total energy  :   -82.9980317 Eh     change       -0.1763893E-02 Eh
 * total energy  :   -82.9991989 Eh     change       -0.1167156E-02 Eh
 * total energy  :   -82.9997308 Eh     change       -0.5319059E-03 Eh
 * total energy  :   -83.0000583 Eh     change       -0.3275611E-03 Eh
 * total energy  :   -83.0002762 Eh     change       -0.2178518E-03 Eh
 * total energy  :   -83.0003938 Eh     change       -0.1175813E-03 Eh
 * total energy  :   -83.0004588 Eh     change       -0.6505281E-04 Eh
 * total energy  :   -83.0010800 Eh     change       -0.8292343E-05 Eh
 * total energy  :   -83.0010899 Eh     change       -0.9922885E-05 Eh
 * total energy  :   -83.0010978 Eh     change       -0.7941306E-05 Eh
 * total energy  :   -83.0011077 Eh     change       -0.9920960E-05 Eh
 * total energy  :   -83.0011147 Eh     change       -0.6999656E-05 Eh
 * total energy  :   -83.0011152 Eh     change       -0.4657226E-06 Eh
 * total energy  :   -83.0011217 Eh     change       -0.6463017E-05 Eh
 * total energy  :   -83.0011281 Eh     change       -0.6445197E-05 Eh
 * total energy  :   -83.0011323 Eh     change       -0.4155100E-05 Eh
   *** GEOMETRY OPTIMIZATION CONVERGED AFTER 36 ITERATIONS ***

 final structure:
================
42
 xtb: 6.5.1 (579679a)
C            5.43326799216596       -1.82274533828790       -1.73397332766213
O            4.23410854292130       -1.33470284402381       -1.13311412192924
C            4.22947333121382       -0.02888626679173       -0.80383053923760
O            5.18608368003197        0.68752230951174       -1.00379664854589
C            2.94924062452281        0.38246603500671       -0.18594301244122
N            2.02565152663351       -0.59605600405739       -0.05103804376258
C            0.87133644434814       -0.36362057405591        0.48670955163872
C           -0.13513849417777       -1.48477794265570        0.66275652813738
C           -0.36432918669832       -1.77078272454096        2.15336443132820
C            0.39145776198786       -2.73816242266772       -0.03830550036751
N           -1.41009749718996       -1.13587228775201        0.01343852357098
C           -2.29714244615466       -0.22831822501949        0.45984023601615
O           -2.12046527408958        0.54414983054658        1.39321369869649
C           -3.53897665828315       -0.24725656088324       -0.34694137380641
N           -3.76325509581549       -0.98381285213580       -1.39368329182237
N           -5.02056914737344       -0.68616676460514       -1.82041936399030
C           -5.48578868880023        0.21275529438727       -1.00517341693003
C           -6.81629732148386        0.85787878132545       -1.03373888238590
O           -4.59505954588255        0.53252623254964       -0.05582104266878
N            0.56684645188109        0.89227176022527        0.94285352912461
C            1.39925794642841        1.91924665224045        0.83492259436892
O            0.90791659573711        3.05238748824544        1.31143361680149
C            1.64675966181208        4.27993053374317        1.28626408228470
C            2.72714003343381        1.73311570746355        0.23392181732898
O            3.52531746134256        2.67536971618045        0.12612643116213
H            6.28345902086803       -1.67153362351025       -1.06305245783914
H            5.62324962582170       -1.30325929104973       -2.67723411993190
H            5.28332480211296       -2.88526496342144       -1.91531802204452
H           -0.72006181443299       -0.88437307463387        2.67330370893550
H            0.57308213855859       -2.09135262308390        2.60511452025228
H           -1.10164250773894       -2.56406297112171        2.26229178153520
H           -0.32175613160301       -3.55262769561707        0.07065170514303
H            0.55329935003978       -2.53886717343843       -1.09667108168809
H            1.33996666238258       -3.03371506210545        0.40735171196220
H           -1.70016196115670       -1.72256044942257       -0.75589614422705
H           -7.35119516614623        0.64539654352532       -0.10819477050386
H           -6.70490519677958        1.93851339171772       -1.11742529746765
H           -7.38758312480469        0.48234558264750       -1.87873075091059
H           -0.35501337130224        1.05393339989753        1.35924048610951
H            1.88929444242485        4.56426033860835        0.26061426028762
H            2.56284280600789        4.19124971987385        1.87309926949047
H            0.98706472725173        5.02345641719270        1.73332872598898

          :  Hamiltonian                  GFN1-xTB          :
         :: total energy             -83.001132272773 Eh    ::
         :: gradient norm              0.000642881986 Eh/a0 ::
         :: HOMO-LUMO gap              2.262876279231 eV    ::
         :: SCC energy               -83.776761523504 Eh    ::
         :: -> Gsolv                  -0.055599173380 Eh    ::
         :: repulsion energy           0.800658123630 Eh    ::

    * Orbital Energies and Occupations

         #    Occupation            Energy/Eh            Energy/eV
      -------------------------------------------------------------
         1        2.0000           -0.8683462             -23.6289
       ...           ...                  ...                  ...
        55        2.0000           -0.5064953             -13.7824
        56        2.0000           -0.5053645             -13.7517
        57        2.0000           -0.4908789             -13.3575
        58        2.0000           -0.4878920             -13.2762
        59        2.0000           -0.4863021             -13.2330
        60        2.0000           -0.4739740             -12.8975
        61        2.0000           -0.4725657             -12.8592
        62        2.0000           -0.4686294             -12.7521
        63        2.0000           -0.4646323             -12.6433
        64        2.0000           -0.4581031             -12.4656
        65        2.0000           -0.4531789             -12.3316
        66        2.0000           -0.4195924             -11.4177
        67        2.0000           -0.4115725             -11.1995 (HOMO)
        68                         -0.3284133              -8.9366 (LUMO)
        69                         -0.3189017              -8.6778
        70                         -0.2811319              -7.6500
        71                         -0.2609219              -7.1000
        72                         -0.2391707              -6.5082
        73                         -0.2069152              -5.6305
        74                         -0.1517007              -4.1280
        75                         -0.1440086              -3.9187
        76                         -0.1373946              -3.7387
        77                         -0.1334927              -3.6325
        78                         -0.1323952              -3.6027
       ...                                ...                  ...
       134                          0.7289630              19.8361
      -------------------------------------------------------------
                  HL-Gap            0.0831592 Eh            2.2629 eV

Wiberg/Mayer (AO) data.
largest (>0.10) Wiberg bond orders for each atom

     #   Z sym  total        # sym  WBO       # sym  WBO       # sym  WBO
 ---------------------------------------------------------------------------
     1   6 C    3.881 --    28 H    0.986    27 H    0.980    26 H    0.980
                             2 O    0.907
     2   8 O    2.176 --     3 C    1.079     1 C    0.907     4 O    0.126
     3   6 C    3.853 --     4 O    1.645     2 O    1.079     5 C    1.037
     4   8 O    1.913 --     3 C    1.645     2 O    0.126
     5   6 C    3.947 --     6 N    1.279    24 C    1.216     3 C    1.037
                            25 O    0.128
     6   7 N    3.043 --     7 C    1.541     5 C    1.279
     7   6 C    3.919 --     6 N    1.541    20 N    1.134     8 C    0.975
     8   6 C    3.932 --    10 C    1.001     9 C    0.982     7 C    0.975
                            11 N    0.914
     9   6 C    3.987 --    30 H    0.984    31 H    0.983     8 C    0.982
                            29 H    0.979
    10   6 C    3.990 --     8 C    1.001    32 H    0.985    33 H    0.983
                            34 H    0.982
    11   7 N    3.350 --    12 C    1.273     8 C    0.914    35 H    0.891
                            13 O    0.174
    12   6 C    3.915 --    13 O    1.556    11 N    1.273    14 C    0.998
    13   8 O    1.924 --    12 C    1.556    11 N    0.174
    14   6 C    3.878 --    15 N    1.605    19 O    1.065    12 C    0.998
    15   7 N    3.018 --    14 C    1.605    16 N    1.205
    16   7 N    2.981 --    17 C    1.599    15 N    1.205
    17   6 C    3.869 --    16 N    1.599    19 O    1.085    18 C    1.032
    18   6 C    3.986 --    17 C    1.032    38 H    0.982    37 H    0.963
                            36 H    0.962
    19   8 O    2.333 --    17 C    1.085    14 C    1.065
    20   7 N    3.535 --    21 C    1.341     7 C    1.134    39 H    0.830
    21   6 C    3.860 --    20 N    1.341    22 O    1.137    24 C    1.067
    22   8 O    2.223 --    21 C    1.137    23 C    0.880
    23   6 C    3.851 --    42 H    0.984    40 H    0.978    41 H    0.977
                            22 O    0.880
    24   6 C    3.950 --    25 O    1.511     5 C    1.216    21 C    1.067
    25   8 O    1.859 --    24 C    1.511     5 C    0.128
    26   1 H    1.009 --     1 C    0.980
    27   1 H    1.009 --     1 C    0.980
    28   1 H    1.013 --     1 C    0.986
    29   1 H    1.007 --     9 C    0.979
    30   1 H    1.001 --     9 C    0.984
    31   1 H    0.999 --     9 C    0.983
    32   1 H    0.998 --    10 C    0.985
    33   1 H    1.004 --    10 C    0.983
    34   1 H    1.008 --    10 C    0.982
    35   1 H    0.947 --    11 N    0.891
    36   1 H    0.996 --    18 C    0.962
    37   1 H    0.996 --    18 C    0.963
    38   1 H    0.998 --    18 C    0.982
    39   1 H    0.925 --    20 N    0.830
    40   1 H    1.016 --    23 C    0.978
    41   1 H    1.016 --    23 C    0.977
    42   1 H    1.010 --    23 C    0.984
 ---------------------------------------------------------------------------

           -------------------------------------------------
          | TOTAL ENERGY              -83.001132272773 Eh   |
          | GRADIENT NORM               0.000642881986 Eh/α |
          | HOMO-LUMO GAP               2.262876279231 eV   |
           -------------------------------------------------

 * finished run on 2023/06/21 at 17:40:09.238
