                         Program Version 5.0.1 -  RELEASE  -
|  1> # ORCA input file
|  2> ! SP r2SCAN-3c CPCM
|  3>
|  4> %maxcore 1875.0
|  5> %pal nprocs 4 end
|  6> %cpcm smd true SMDsolvent "DMSO" end
|  7>
|  8> *xyz -1 1
|  9> C      -0.296362   -1.853642    0.583405
| 10> C      -0.547823   -0.735099   -0.476860
| 11> C      -1.995358   -0.285266   -0.440680
| 12> C      -2.321594    0.897757    0.137772
| 13> F      -3.662573    1.201445    0.238437
| 14> C      -1.423114    1.873034    0.582255
| 15> C      -0.060137    1.617514    0.297589
| 16> C       0.381292    0.452974   -0.257972
| 17> C       1.827256    0.268645   -0.645044
| 18> N       2.586900   -0.505937    0.369167
| 19> H       0.746635   -2.174735    0.558416
| 20> H      -0.522801   -1.480285    1.583662
| 21> H      -0.936348   -2.714564    0.379728
| 22> H      -0.329240   -1.199795   -1.460390
| 23> H      -2.756037   -0.960792   -0.815395
| 24> H      -1.760024    2.809451    1.004670
| 25> H       0.658584    2.414744    0.490831
| 26> H       2.313431    1.247566   -0.797306
| 27> H       1.902655   -0.289567   -1.589797
| 28> H       3.522398   -0.646543    0.016317
| 29> H       2.672263    0.063095    1.202821
| 30> **                         ****END OF INPUT****

CARTESIAN COORDINATES (ANGSTROEM)
---------------------------------
  C     -0.296362   -1.853642    0.583405
  C     -0.547823   -0.735099   -0.476860
  C     -1.995358   -0.285266   -0.440680
  C     -2.321594    0.897757    0.137772
  F     -3.662573    1.201445    0.238437
  C     -1.423114    1.873034    0.582255
  C     -0.060137    1.617514    0.297589
  C      0.381292    0.452974   -0.257972
  C      1.827256    0.268645   -0.645044
  N      2.586900   -0.505937    0.369167
  H      0.746635   -2.174735    0.558416
  H     -0.522801   -1.480285    1.583662
  H     -0.936348   -2.714564    0.379728
  H     -0.329240   -1.199795   -1.460390
  H     -2.756037   -0.960792   -0.815395
  H     -1.760024    2.809451    1.004670
  H      0.658584    2.414744    0.490831
  H      2.313431    1.247566   -0.797306
  H      1.902655   -0.289567   -1.589797
  H      3.522398   -0.646543    0.016317
  H      2.672263    0.063095    1.202821

 Total Charge           Charge          ....   -1
 Multiplicity           Mult            ....    1
 Number of Electrons    NEL             ....   76
 Basis Dimension        Dim             ....  255

ORBITAL ENERGIES
----------------

  NO   OCC          E(Eh)            E(eV)
   0   2.0000     -24.465500      -665.7401
   1   2.0000     -14.117692      -384.1619
   2   2.0000     -10.072310      -274.0815
   3   2.0000     -10.032218      -272.9905
   4   2.0000     -10.017033      -272.5773
   5   2.0000      -9.999544      -272.1014
   6   2.0000      -9.988688      -271.8060
   7   2.0000      -9.983996      -271.6783
   8   2.0000      -9.976252      -271.4676
   9   2.0000      -9.969765      -271.2911
  10   2.0000      -1.147586       -31.2274
  11   2.0000      -0.826410       -22.4878
  12   2.0000      -0.773298       -21.0425
  13   2.0000      -0.697293       -18.9743
  14   2.0000      -0.682434       -18.5700
  15   2.0000      -0.624594       -16.9961
  16   2.0000      -0.584561       -15.9067
  17   2.0000      -0.541523       -14.7356
  18   2.0000      -0.513069       -13.9613
  19   2.0000      -0.468653       -12.7527
  20   2.0000      -0.439588       -11.9618
  21   2.0000      -0.419973       -11.4281
  22   2.0000      -0.397806       -10.8249
  23   2.0000      -0.395649       -10.7662
  24   2.0000      -0.385175       -10.4811
  25   2.0000      -0.376672       -10.2498
  26   2.0000      -0.362488        -9.8638
  27   2.0000      -0.347155        -9.4466
  28   2.0000      -0.338906        -9.2221
  29   2.0000      -0.324640        -8.8339
  30   2.0000      -0.309424        -8.4198
  31   2.0000      -0.298460        -8.1215
  32   2.0000      -0.276730        -7.5302
  33   2.0000      -0.262101        -7.1321
  34   2.0000      -0.257165        -6.9978
  35   2.0000      -0.193432        -5.2636
  36   2.0000      -0.190762        -5.1909
  37   2.0000      -0.098823        -2.6891
  38   0.0000       0.012726         0.3463
  39   0.0000       0.079376         2.1599
  40   0.0000       0.093624         2.5476
  41   0.0000       0.097850         2.6626
  42   0.0000       0.108079         2.9410

MULLIKEN ATOMIC CHARGES
-----------------------
   0 C :   -0.567617
   1 C :    0.066701
   2 C :   -0.634646
   3 C :    0.424716
   4 F :   -0.294809
   5 C :   -0.664820
   6 C :   -0.210689
   7 C :   -0.074504
   8 C :   -0.364387
   9 N :   -0.599936
  10 H :    0.166526
  11 H :    0.151633
  12 H :    0.140621
  13 H :    0.131131
  14 H :    0.172767
  15 H :    0.171527
  16 H :    0.159450
  17 H :    0.128983
  18 H :    0.154635
  19 H :    0.268244
  20 H :    0.274473
Sum of atomic charges:   -1.0000000

LOEWDIN ATOMIC CHARGES
----------------------
   0 C :   -0.451603
   1 C :   -0.199248
   2 C :   -0.366003
   3 C :    0.167214
   4 F :   -0.358991
   5 C :   -0.437794
   6 C :   -0.207388
   7 C :   -0.203974
   8 C :   -0.075075
   9 N :   -0.769460
  10 H :    0.159223
  11 H :    0.149588
  12 H :    0.144045
  13 H :    0.146836
  14 H :    0.168019
  15 H :    0.167350
  16 H :    0.166817
  17 H :    0.156600
  18 H :    0.170362
  19 H :    0.235677
  20 H :    0.237807

  Mayer bond orders larger than 0.100000
B(  0-C ,  1-C ) :   0.8410 B(  0-C , 10-H ) :   0.9686 B(  0-C , 11-H ) :   0.9932
B(  0-C , 12-H ) :   0.9790 B(  1-C ,  2-C ) :   0.8765 B(  1-C ,  7-C ) :   0.9097
B(  1-C , 13-H ) :   1.0038 B(  2-C ,  3-C ) :   1.5729 B(  2-C , 14-H ) :   0.9723
B(  3-C ,  4-F ) :   0.8239 B(  3-C ,  5-C ) :   1.2705 B(  5-C ,  6-C ) :   1.1836
B(  5-C , 15-H ) :   0.9868 B(  6-C ,  7-C ) :   1.5905 B(  6-C , 16-H ) :   0.9617
B(  7-C ,  8-C ) :   0.9630 B(  7-C ,  9-N ) :  -0.1195 B(  8-C ,  9-N ) :   0.8998
B(  8-C , 17-H ) :   1.0075 B(  8-C , 18-H ) :   1.0074 B(  9-N , 19-H ) :   0.9012
B(  9-N , 20-H ) :   0.9088

Dispersion correction           -0.007399100
FINAL SINGLE POINT ENERGY      -466.025627097167

DIPOLE MOMENT
-------------
                                X             Y             Z
Electronic contribution:    -11.92682       6.12302      -0.01780
Nuclear contribution   :     14.01414      -6.52390      -0.19318
                        -----------------------------------------
Total Dipole Moment    :      2.08732      -0.40088      -0.21098
                        -----------------------------------------
Magnitude (a.u.)       :      2.13592
Magnitude (Debye)      :      5.42907

Rotational constants in cm-1:     0.088995     0.028408     0.023549
Rotational constants in MHz :  2668.006302   851.651043   705.991585

                             ****ORCA TERMINATED NORMALLY****
TOTAL RUN TIME: 0 days 0 hours 0 minutes 23 seconds 107 msec
