   * xtb version 6.5.1 (579679a) compiled by 'ehlert@majestix' on 2022-07-11
          program call               : /lustre/hpc/kemi/ree/PhD/git/ReactivityQM/dep/xtb-6.5.1/bin/xtb --gfn 1 /lustre/hpc/kemi/ree/PhD/git/ReactivityQM/calculations/R03/reac01prodE02/conf04/R03_reac01prodE02_conf04_gfn1.xyz --opt --vfukui --chrg -1 --uhf 0 --alpb DMSO

   ID    Z sym.   atoms
    1    6 C      1-4, 6-9
    2    9 F      5
    3    7 N      10
    4    1 H      11-21

      * Solvation model:               ALPB
        Solvent                        DMSO
        Solvent mass                       7.8130E+01 g/mol
          :  Hamiltonian                  GFN1-xTB          :
 * total energy  :   -31.4566530 Eh     change       -0.4561684E-11 Eh
 * total energy  :   -31.4619479 Eh     change       -0.5294844E-02 Eh
 * total energy  :   -31.4631174 Eh     change       -0.1169538E-02 Eh
 * total energy  :   -31.4633360 Eh     change       -0.2186431E-03 Eh
 * total energy  :   -31.4635563 Eh     change       -0.2202476E-03 Eh
 * total energy  :   -31.4637109 Eh     change       -0.1546144E-03 Eh
 * total energy  :   -31.4638532 Eh     change       -0.1422886E-03 Eh
 * total energy  :   -31.4639996 Eh     change       -0.1464323E-03 Eh
 * total energy  :   -31.4641343 Eh     change       -0.1346539E-03 Eh
 * total energy  :   -31.4642559 Eh     change       -0.1215945E-03 Eh
 * total energy  :   -31.4653146 Eh     change       -0.6073729E-04 Eh
 * total energy  :   -31.4653522 Eh     change       -0.3758081E-04 Eh
 * total energy  :   -31.4653796 Eh     change       -0.2744463E-04 Eh
 * total energy  :   -31.4653935 Eh     change       -0.1384377E-04 Eh
 * total energy  :   -31.4654076 Eh     change       -0.1413294E-04 Eh
 * total energy  :   -31.4654231 Eh     change       -0.1546495E-04 Eh
 * total energy  :   -31.4654352 Eh     change       -0.1213436E-04 Eh
 * total energy  :   -31.4654430 Eh     change       -0.7826425E-05 Eh
 * total energy  :   -31.4654456 Eh     change       -0.2618583E-05 Eh
   *** GEOMETRY OPTIMIZATION CONVERGED AFTER 26 ITERATIONS ***

 final structure:
================
21
 xtb: 6.5.1 (579679a)
C           -0.29636230394057       -1.85364240710219        0.58340469505929
C           -0.54782253054854       -0.73509922110263       -0.47685963953863
C           -1.99535793413578       -0.28526612511841       -0.44068012004081
C           -2.32159444923011        0.89775695884908        0.13777222224428
F           -3.66257337569350        1.20144482962175        0.23843728707199
C           -1.42311376193063        1.87303418542349        0.58225472010030
C           -0.06013678420470        1.61751397612031        0.29758883718203
C            0.38129222964827        0.45297439577552       -0.25797153093509
C            1.82725633254542        0.26864493977893       -0.64504425087561
N            2.58690007922820       -0.50593702032072        0.36916726897444
H            0.74663538996726       -2.17473452427009        0.55841633881336
H           -0.52280066426524       -1.48028487131917        1.58366159221324
H           -0.93634845615830       -2.71456383174914        0.37972763250071
H           -0.32924020163749       -1.19979481285076       -1.46038980162981
H           -2.75603749832565       -0.96079169352675       -0.81539461497527
H           -1.76002393368071        2.80945095504290        1.00466981755200
H            0.65858354269662        2.41474370320566        0.49083148929224
H            2.31343117674379        1.24756562271483       -0.79730616616737
H            1.90265465972745       -0.28956695482673       -1.58979742962472
H            3.52239828674189       -0.64654334849547        0.01631668435017
H            2.67226319645236        0.06309524414961        1.20282096843303

          :  Hamiltonian                  GFN1-xTB          :
         :: total energy             -31.465445644817 Eh    ::
         :: gradient norm              0.000321188425 Eh/a0 ::
         :: HOMO-LUMO gap              2.685370899326 eV    ::
         :: SCC energy               -31.836901273707 Eh    ::
         :: -> Gsolv                  -0.083059293818 Eh    ::
         :: repulsion energy           0.381779295831 Eh    ::

    * Orbital Energies and Occupations

         #    Occupation            Energy/Eh            Energy/eV
      -------------------------------------------------------------
         1        2.0000           -0.7893593             -21.4796
       ...           ...                  ...                  ...
        16        2.0000           -0.4858739             -13.2213
        17        2.0000           -0.4782669             -13.0143
        18        2.0000           -0.4696166             -12.7789
        19        2.0000           -0.4644214             -12.6375
        20        2.0000           -0.4533094             -12.3352
        21        2.0000           -0.4435366             -12.0692
        22        2.0000           -0.4334869             -11.7958
        23        2.0000           -0.4138577             -11.2616
        24        2.0000           -0.4043103             -11.0018
        25        2.0000           -0.4008339             -10.9072
        26        2.0000           -0.3732065             -10.1555
        27        2.0000           -0.3605527              -9.8111
        28        2.0000           -0.2775438              -7.5524 (HOMO)
        29                         -0.1788582              -4.8670 (LUMO)
        30                         -0.1068207              -2.9067
        31                         -0.0840883              -2.2882
        32                         -0.0759180              -2.0658
        33                         -0.0729057              -1.9839
        34                         -0.0588247              -1.6007
        35                         -0.0454911              -1.2379
        36                         -0.0383753              -1.0442
        37                         -0.0290779              -0.7913
        38                         -0.0228456              -0.6217
        39                         -0.0136287              -0.3709
       ...                                ...                  ...
        62                          0.6589545              17.9311
      -------------------------------------------------------------
                  HL-Gap            0.0986856 Eh            2.6854 eV

Wiberg/Mayer (AO) data.
largest (>0.10) Wiberg bond orders for each atom

     #   Z sym  total        # sym  WBO       # sym  WBO       # sym  WBO
 ---------------------------------------------------------------------------
     1   6 C    3.992 --    12 H    0.989    13 H    0.988    11 H    0.984
                             2 C    0.967
     2   6 C    3.992 --     3 C    1.005     8 C    0.997    14 H    0.969
                             1 C    0.967
     3   6 C    3.899 --     4 C    1.583     2 C    1.005    15 H    0.975
                             6 C    0.111
     4   6 C    3.824 --     3 C    1.583     6 C    1.302     5 F    0.851
     5   9 F    0.959 --     4 C    0.851
     6   6 C    3.872 --     4 C    1.302     7 C    1.285    16 H    0.977
                             3 C    0.111     8 C    0.106
     7   6 C    3.994 --     8 C    1.626     6 C    1.285    17 H    0.971
     8   6 C    3.932 --     7 C    1.626     9 C    1.011     2 C    0.997
                             6 C    0.106
     9   6 C    3.969 --     8 C    1.011    19 H    0.978    18 H    0.976
                            10 N    0.964
    10   7 N    2.956 --     9 C    0.964    21 H    0.959    20 H    0.957
    11   1 H    1.033 --     1 C    0.984
    12   1 H    1.023 --     1 C    0.989
    13   1 H    1.016 --     1 C    0.988
    14   1 H    1.020 --     2 C    0.969
    15   1 H    1.004 --     3 C    0.975
    16   1 H    1.005 --     6 C    0.977
    17   1 H    1.007 --     7 C    0.971
    18   1 H    1.009 --     9 C    0.976
    19   1 H    1.018 --     9 C    0.978
    20   1 H    0.972 --    10 N    0.957
    21   1 H    0.980 --    10 N    0.959
 ---------------------------------------------------------------------------

           -------------------------------------------------
          | TOTAL ENERGY              -31.465445644817 Eh   |
          | GRADIENT NORM               0.000321188425 Eh/α |
          | HOMO-LUMO GAP               2.685370899326 eV   |
           -------------------------------------------------

 * finished run on 2023/06/20 at 15:12:58.176
