   * xtb version 6.5.1 (579679a) compiled by 'ehlert@majestix' on 2022-07-11
          program call               : /lustre/hpc/kemi/ree/PhD/git/ReactivityQM/dep/xtb-6.5.1/bin/xtb --gfn 1 /lustre/hpc/kemi/ree/PhD/git/ReactivityQM/calculations/R01/reac02prodN06/conf09/R01_reac02prodN06_conf09_gfn1.xyz --opt --vfukui --chrg 1 --uhf 0 --alpb DMSO

   ID    Z sym.   atoms
    1    6 C      1, 3, 5, 6, 8-11, 14, 16
    2    8 O      2, 4, 15, 17
    3    7 N      7, 12, 13
    4    1 H      18-33

      * Solvation model:               ALPB
        Solvent                        DMSO
        Solvent mass                       7.8130E+01 g/mol
          :  Hamiltonian                  GFN1-xTB          :
 * total energy  :   -57.7938133 Eh     change       -0.6700418E-11 Eh
 * total energy  :   -57.8099991 Eh     change       -0.1618586E-01 Eh
 * total energy  :   -57.8162505 Eh     change       -0.6251402E-02 Eh
 * total energy  :   -57.8178080 Eh     change       -0.1557405E-02 Eh
 * total energy  :   -57.8190133 Eh     change       -0.1205359E-02 Eh
 * total energy  :   -57.8194239 Eh     change       -0.4105933E-03 Eh
 * total energy  :   -57.8197418 Eh     change       -0.3179195E-03 Eh
 * total energy  :   -57.8199139 Eh     change       -0.1720707E-03 Eh
 * total energy  :   -57.8200325 Eh     change       -0.1185944E-03 Eh
 * total energy  :   -57.8201384 Eh     change       -0.1059514E-03 Eh
 * total energy  :   -57.8204984 Eh     change       -0.3857191E-04 Eh
 * total energy  :   -57.8205306 Eh     change       -0.3228285E-04 Eh
 * total energy  :   -57.8205594 Eh     change       -0.2873194E-04 Eh
 * total energy  :   -57.8205814 Eh     change       -0.2206533E-04 Eh
 * total energy  :   -57.8205988 Eh     change       -0.1738477E-04 Eh
 * total energy  :   -57.8206066 Eh     change       -0.7744716E-05 Eh
 * total energy  :   -57.8206179 Eh     change       -0.1134401E-04 Eh
 * total energy  :   -57.8206234 Eh     change       -0.5508381E-05 Eh
 * total energy  :   -57.8206268 Eh     change       -0.3398596E-05 Eh
   *** GEOMETRY OPTIMIZATION CONVERGED AFTER 23 ITERATIONS ***

 final structure:
================
33
 xtb: 6.5.1 (579679a)
C            4.04507099731351        1.54254433636546       -0.53152899616126
O            3.15102560145814        0.40222583398437       -0.51962362304318
C            1.95016631196774        0.58498617836733       -0.08978902153586
O            1.43331697503557        1.56407343298797        0.33876257659900
C            1.10565602309787       -0.81939973795617       -0.21589411187944
C            1.70356162900617       -1.67744919827567       -1.32746593214042
N           -0.21164242776267       -0.38397554389810       -0.52491624609446
C           -1.03417176656177       -0.10405093273354        0.41447463909852
C           -2.42651691377696        0.40700820177000        0.10763699864263
C           -3.26279355162381       -0.78514824081136       -0.37701434126668
C           -2.34515353491392        1.49278680619676       -0.97306757710660
N           -2.99368729525989        0.91872566237625        1.34806954689344
N           -0.76248938439529       -0.29790986024435        1.75233597101066
C            0.34355900320764       -0.90860573187340        2.22702657419603
O            0.58376102008694       -1.18326837281025        3.38250961301433
C            1.30817931498297       -1.27806323225933        1.14524713151789
O            2.35983459896393       -1.91812300956454        1.48884738539716
H            4.12285138184792        1.94669674109831        0.47781891389107
H            5.00180993948017        1.16147547091860       -0.87858553382526
H            3.65327826308778        2.29883290933815       -1.21175742166518
H            1.07738936972128       -2.55891960078785       -1.45224316727330
H            1.71663452610749       -1.11342956234542       -2.25695924488673
H            2.71354043919934       -1.98296013880604       -1.06583790078857
H           -4.26405560233161       -0.44580297984918       -0.63694778820689
H           -3.33433541100933       -1.53534566704140        0.40915096271416
H           -2.79857284593177       -1.23184320774686       -1.25516927563868
H           -1.88770395458889        1.08348786155212       -1.87298038795093
H           -3.34615333193639        1.84993202209614       -1.20728324437427
H           -1.74244262605533        2.32804715201688       -0.61903211545629
H           -4.00095105106299        0.84641708652611        1.32896450127697
H           -2.75082321508972        1.89298593645824        1.46531336309258
H           -1.51587295213637       -0.01514944646514        2.38435803771916
H            2.40772946987212       -2.08077916858413        2.45881871422889

          :  Hamiltonian                  GFN1-xTB          :
         :: total energy             -57.820626819748 Eh    ::
         :: gradient norm              0.000568653735 Eh/a0 ::
         :: HOMO-LUMO gap              0.385903410428 eV    ::
         :: SCC energy               -58.400127508920 Eh    ::
         :: -> Gsolv                  -0.092454681430 Eh    ::
         :: repulsion energy           0.599131314239 Eh    ::

    * Orbital Energies and Occupations

         #    Occupation            Energy/Eh            Energy/eV
      -------------------------------------------------------------
         1        2.0000           -0.9136146             -24.8607
       ...           ...                  ...                  ...
        35        2.0000           -0.5530245             -15.0486
        36        2.0000           -0.5487057             -14.9310
        37        2.0000           -0.5407201             -14.7137
        38        2.0000           -0.5299071             -14.4195
        39        2.0000           -0.5288680             -14.3912
        40        2.0000           -0.5263930             -14.3239
        41        2.0000           -0.5213033             -14.1854
        42        2.0000           -0.5175856             -14.0842
        43        2.0000           -0.5044388             -13.7265
        44        2.0000           -0.5011901             -13.6381
        45        2.0000           -0.4925298             -13.4024
        46        2.0000           -0.4827803             -13.1371
        47        1.9989           -0.4348542             -11.8330 (HOMO)
        48        0.0011           -0.4206725             -11.4471 (LUMO)
        49                         -0.3306549              -8.9976
        50                         -0.3039377              -8.2706
        51                         -0.2601423              -7.0788
        52                         -0.1654373              -4.5018
        53                         -0.1535881              -4.1793
        54                         -0.1500248              -4.0824
        55                         -0.1358701              -3.6972
        56                         -0.1316862              -3.5834
        57                         -0.1183339              -3.2200
        58                         -0.1083108              -2.9473
       ...                                ...                  ...
       100                          0.7459525              20.2984
      -------------------------------------------------------------
                  HL-Gap            0.0141817 Eh            0.3859 eV

Wiberg/Mayer (AO) data.
largest (>0.10) Wiberg bond orders for each atom

     #   Z sym  total        # sym  WBO       # sym  WBO       # sym  WBO
 ---------------------------------------------------------------------------
     1   6 C    3.814 --    19 H    0.981    18 H    0.978    20 H    0.978
                             2 O    0.834
     2   8 O    2.268 --     3 C    1.225     1 C    0.834     4 O    0.149
     3   6 C    3.857 --     4 O    1.749     2 O    1.225     5 C    0.683
     4   8 O    2.071 --     3 C    1.749     2 O    0.149
     5   6 C    3.956 --    16 C    1.103     7 N    1.029     6 C    0.964
                             3 C    0.683
     6   6 C    3.970 --    23 H    0.981    22 H    0.981    21 H    0.974
                             5 C    0.964
     7   7 N    3.021 --     8 C    1.671     5 C    1.029
     8   6 C    3.900 --     7 N    1.671    13 N    1.111     9 C    0.975
     9   6 C    3.961 --    12 N    0.992    11 C    0.980     8 C    0.975
                            10 C    0.974
    10   6 C    3.989 --    25 H    0.985    26 H    0.985    24 H    0.981
                             9 C    0.974
    11   6 C    3.991 --    29 H    0.984    28 H    0.984    27 H    0.983
                             9 C    0.980
    12   7 N    2.997 --     9 C    0.992    31 H    0.933    30 H    0.929
    13   7 N    3.495 --    14 C    1.213     8 C    1.111    32 H    0.836
                            15 O    0.168
    14   6 C    3.924 --    15 O    1.625    13 N    1.213    16 C    0.974
    15   8 O    1.964 --    14 C    1.625    13 N    0.168
    16   6 C    3.806 --    17 O    1.348     5 C    1.103    14 C    0.974
    17   8 O    2.272 --    16 C    1.348    33 H    0.746
    18   1 H    0.997 --     1 C    0.978
    19   1 H    1.001 --     1 C    0.981
    20   1 H    0.997 --     1 C    0.978
    21   1 H    0.996 --     6 C    0.974
    22   1 H    0.998 --     6 C    0.981
    23   1 H    1.000 --     6 C    0.981
    24   1 H    0.998 --    10 C    0.981
    25   1 H    0.999 --    10 C    0.985
    26   1 H    1.002 --    10 C    0.985
    27   1 H    1.006 --    11 C    0.983
    28   1 H    1.000 --    11 C    0.984
    29   1 H    1.001 --    11 C    0.984
    30   1 H    0.943 --    12 N    0.929
    31   1 H    0.946 --    12 N    0.933
    32   1 H    0.931 --    13 N    0.836
    33   1 H    0.790 --    17 O    0.746
 ---------------------------------------------------------------------------

           -------------------------------------------------
          | TOTAL ENERGY              -57.820626819748 Eh   |
          | GRADIENT NORM               0.000568653735 Eh/α |
          | HOMO-LUMO GAP               0.385903410428 eV   |
           -------------------------------------------------

 * finished run on 2023/06/20 at 15:06:59.761
