   * xtb version 6.5.1 (579679a) compiled by 'ehlert@majestix' on 2022-07-11
          program call               : /lustre/hpc/kemi/ree/PhD/git/ReactivityQM/dep/xtb-6.5.1/bin/xtb --gfn 1 /lustre/hpc/kemi/ree/PhD/git/ReactivityQM/calculations/R02oxygendeprot/reac01prodN11/conf10/R02oxygendeprot_reac01prodN11_conf10_gfn1.xyz --opt --vfukui --chrg 0 --uhf 0 --alpb DMSO

   ID    Z sym.   atoms
    1    6 C      1, 3, 5, 7-10, 12, 13, 15, 18, 19, 22, 24
    2    8 O      2, 4, 14, 20, 23, 25
    3    7 N      6, 11, 16, 17, 21
    4    1 H      26-42

      * Solvation model:               ALPB
        Solvent                        DMSO
        Solvent mass                       7.8130E+01 g/mol
          :  Hamiltonian                  GFN1-xTB          :
 * total energy  :   -82.8608555 Eh     change       -0.6139089E-11 Eh
 * total energy  :   -82.8732870 Eh     change       -0.1243143E-01 Eh
 * total energy  :   -82.8793165 Eh     change       -0.6029567E-02 Eh
 * total energy  :   -82.8807642 Eh     change       -0.1447679E-02 Eh
 * total energy  :   -82.8818012 Eh     change       -0.1036951E-02 Eh
 * total energy  :   -82.8824449 Eh     change       -0.6437405E-03 Eh
 * total energy  :   -82.8828989 Eh     change       -0.4540405E-03 Eh
 * total energy  :   -82.8832472 Eh     change       -0.3482916E-03 Eh
 * total energy  :   -82.8834502 Eh     change       -0.2029538E-03 Eh
 * total energy  :   -82.8835717 Eh     change       -0.1215640E-03 Eh
 * total energy  :   -82.8850834 Eh     change       -0.1669428E-04 Eh
 * total energy  :   -82.8851049 Eh     change       -0.2150533E-04 Eh
 * total energy  :   -82.8851255 Eh     change       -0.2056523E-04 Eh
 * total energy  :   -82.8851424 Eh     change       -0.1689278E-04 Eh
 * total energy  :   -82.8851583 Eh     change       -0.1590643E-04 Eh
 * total energy  :   -82.8851675 Eh     change       -0.9240734E-05 Eh
 * total energy  :   -82.8851740 Eh     change       -0.6445284E-05 Eh
 * total energy  :   -82.8851797 Eh     change       -0.5756876E-05 Eh
 * total energy  :   -82.8851839 Eh     change       -0.4167972E-05 Eh
   *** GEOMETRY OPTIMIZATION CONVERGED AFTER 42 ITERATIONS ***

 final structure:
================
42
 xtb: 6.5.1 (579679a)
C            6.90201534433936        0.17127597582168       -1.32916051955537
O            5.71610092471766        0.74981526941362       -0.77567466928391
C            4.61484297402831        0.01352517249445       -0.83266401294258
O            4.57175845729219       -1.09340555896296       -1.32069764643891
C            3.41575282395333        0.67453677770502       -0.22501511677220
N            2.35644614041876       -0.12787268099685       -0.13583820995372
C            1.21804210974051        0.29128390658712        0.37653425248658
C            0.09400578759876       -0.69622058541587        0.48630112620751
C            0.03549288210131       -1.57489106784684       -0.78176195082584
C            0.42200570474605       -1.56944562113387        1.71991261880829
N           -1.15362042656553       -0.00351354186006        0.66080835782363
C           -2.43171249757838       -0.71688742864422        0.80468414080814
C           -3.20477092789641        0.04922421772968        1.95193020396593
O           -2.38619263282958       -1.98428873795252        0.98984466662101
C           -3.20106481682009       -0.32092929503975       -0.48220228099544
N           -2.68731790575060       -0.10112085542417       -1.64601670910871
N           -3.74434884432317        0.13245581223958       -2.48501324822315
C           -4.82067238073942        0.04378400135889       -1.77171678898245
C           -6.22297845916070        0.21542804071527       -2.20977637664689
O           -4.53952146571851       -0.24336184595680       -0.48526836303571
N            1.07914524457058        1.53927530061042        0.86636552549432
C            2.08159156846780        2.50545061264914        0.84760864889945
O            1.88264155713285        3.59843725343589        1.32464373219826
C            3.38621034049063        2.06042663188882        0.20952504900745
O            4.30666882377313        2.85571150852977        0.10006731452607
H            7.70340954925367        0.88882222941242       -1.16580143705373
H            6.76560693577660       -0.01187964118076       -2.39761128284382
H            7.12690818408754       -0.77274269251692       -0.82716705457688
H           -0.68394263219731       -2.37737723959150       -0.63611627570380
H           -0.27372263358044       -0.96508291527975       -1.62912438287531
H            1.02146498505037       -1.99614773271182       -0.96802211230784
H            1.41686350927624       -1.99363096270041        1.59820110918010
H           -0.30472227648308       -2.37261281992319        1.81085089096895
H            0.39650229448513       -0.95411526647299        2.61671863102809
H           -1.23811641260724        0.89076183091292        0.20218341785029
H           -4.19693853254939       -0.38634595799253        2.02573667649118
H           -2.65047307714532       -0.11260483521277        2.87119565658857
H           -3.26593983004325        1.10775361699470        1.72318712562737
H           -6.24944814746238        0.41967052475039       -3.27752709963690
H           -6.79466108416312       -0.68710364332131       -1.99400486897282
H           -6.68153526790206        1.04259492210254       -1.66822331736783
H            0.21822511021364        1.81134732077997        1.31636057952702

          :  Hamiltonian                  GFN1-xTB          :
         :: total energy             -82.885183908797 Eh    ::
         :: gradient norm              0.000593809911 Eh/a0 ::
         :: HOMO-LUMO gap              0.078076922421 eV    ::
         :: SCC energy               -83.650007376272 Eh    ::
         :: -> Gsolv                  -0.062995195003 Eh    ::
         :: repulsion energy           0.791123495917 Eh    ::

    * Orbital Energies and Occupations

         #    Occupation            Energy/Eh            Energy/eV
      -------------------------------------------------------------
         1        2.0000           -0.8687270             -23.6393
       ...           ...                  ...                  ...
        55        2.0000           -0.5113302             -13.9140
        56        2.0000           -0.5077847             -13.8175
        57        2.0000           -0.5073790             -13.8065
        58        2.0000           -0.5005464             -13.6206
        59        2.0000           -0.4898266             -13.3289
        60        2.0000           -0.4841155             -13.1735
        61        2.0000           -0.4801424             -13.0653
        62        2.0000           -0.4654258             -12.6649
        63        2.0000           -0.4610497             -12.5458
        64        2.0000           -0.4507181             -12.2647
        65        2.0000           -0.4452868             -12.1169
        66        2.0000           -0.4421844             -12.0325
        67        1.6381           -0.4230929             -11.5129 (HOMO)
        68        0.3619           -0.4202236             -11.4349 (LUMO)
        69                         -0.3268399              -8.8938
        70                         -0.3029138              -8.2427
        71                         -0.2739231              -7.4538
        72                         -0.2571357              -6.9970
        73                         -0.2511305              -6.8336
        74                         -0.1774430              -4.8285
        75                         -0.1433703              -3.9013
        76                         -0.1406959              -3.8285
        77                         -0.1397767              -3.8035
        78                         -0.1319110              -3.5895
       ...                                ...                  ...
       134                          0.7468968              20.3241
      -------------------------------------------------------------
                  HL-Gap            0.0028693 Eh            0.0781 eV

Wiberg/Mayer (AO) data.
largest (>0.10) Wiberg bond orders for each atom

     #   Z sym  total        # sym  WBO       # sym  WBO       # sym  WBO
 ---------------------------------------------------------------------------
     1   6 C    3.866 --    26 H    0.986    28 H    0.978    27 H    0.978
                             2 O    0.893
     2   8 O    2.208 --     3 C    1.129     1 C    0.893     4 O    0.140
     3   6 C    3.846 --     4 O    1.652     2 O    1.129     5 C    0.992
     4   8 O    1.900 --     3 C    1.652     2 O    0.140
     5   6 C    3.754 --     6 N    1.391    24 C    1.113     3 C    0.992
     6   7 N    2.990 --     5 C    1.391     7 C    1.381
     7   6 C    3.825 --     6 N    1.381    21 N    1.240     8 C    1.008
     8   6 C    3.930 --     7 C    1.008    11 N    0.981     9 C    0.934
                            10 C    0.929
     9   6 C    3.956 --    30 H    0.983    31 H    0.979    29 H    0.978
                             8 C    0.934
    10   6 C    3.958 --    32 H    0.986    34 H    0.985    33 H    0.971
                             8 C    0.929
    11   7 N    3.177 --     8 C    0.981    12 C    0.916    35 H    0.903
                            14 O    0.154
    12   6 C    3.877 --    14 O    1.259    11 N    0.916    15 C    0.827
                            13 C    0.812
    13   6 C    3.847 --    38 H    0.988    37 H    0.981    36 H    0.981
                            12 C    0.812
    14   8 O    1.612 --    12 C    1.259    11 N    0.154
    15   6 C    3.768 --    16 N    1.646    20 O    1.076    12 C    0.827
    16   7 N    2.999 --    15 C    1.646    17 N    1.160
    17   7 N    2.980 --    18 C    1.631    16 N    1.160
    18   6 C    3.858 --    17 N    1.631    20 O    1.055    19 C    1.030
    19   6 C    3.984 --    18 C    1.030    39 H    0.982    40 H    0.964
                            41 H    0.963
    20   8 O    2.321 --    15 C    1.076    18 C    1.055
    21   7 N    3.455 --     7 C    1.240    22 C    1.082    42 H    0.872
                            23 O    0.103
    22   6 C    3.836 --    23 O    1.689    21 N    1.082    24 C    0.938
    23   8 O    1.907 --    22 C    1.689    21 N    0.103
    24   6 C    3.852 --    25 O    1.664     5 C    1.113    22 C    0.938
    25   8 O    1.823 --    24 C    1.664
    26   1 H    1.010 --     1 C    0.986
    27   1 H    1.005 --     1 C    0.978
    28   1 H    1.005 --     1 C    0.978
    29   1 H    1.009 --     9 C    0.978
    30   1 H    1.015 --     9 C    0.983
    31   1 H    1.008 --     9 C    0.979
    32   1 H    1.002 --    10 C    0.986
    33   1 H    1.011 --    10 C    0.971
    34   1 H    0.999 --    10 C    0.985
    35   1 H    0.946 --    11 N    0.903
    36   1 H    1.003 --    13 C    0.981
    37   1 H    0.997 --    13 C    0.981
    38   1 H    0.998 --    13 C    0.988
    39   1 H    0.998 --    19 C    0.982
    40   1 H    0.997 --    19 C    0.964
    41   1 H    0.997 --    19 C    0.963
    42   1 H    0.921 --    21 N    0.872
 ---------------------------------------------------------------------------

           -------------------------------------------------
          | TOTAL ENERGY              -82.885183908797 Eh   |
          | GRADIENT NORM               0.000593809911 Eh/α |
          | HOMO-LUMO GAP               0.078076922421 eV   |
           -------------------------------------------------

 * finished run on 2023/06/21 at 17:27:02.113
