   * xtb version 6.5.1 (579679a) compiled by 'ehlert@majestix' on 2022-07-11
          program call               : /lustre/hpc/kemi/ree/PhD/git/ReactivityQM/dep/xtb-6.5.1/bin/xtb --gfn 1 /lustre/hpc/kemi/ree/PhD/git/ReactivityQM/calculations/R02oxygendeprot/reac01prodE11/conf07/R02oxygendeprot_reac01prodE11_conf07_gfn1.xyz --opt --vfukui --chrg -2 --uhf 0 --alpb DMSO

   ID    Z sym.   atoms
    1    6 C      1, 3, 5, 7-10, 12, 14, 17-19, 22, 24
    2    8 O      2, 4, 13, 20, 23, 25
    3    7 N      6, 11, 15, 16, 21
    4    1 H      26-42

      * Solvation model:               ALPB
        Solvent                        DMSO
        Solvent mass                       7.8130E+01 g/mol
          :  Hamiltonian                  GFN1-xTB          :
 * total energy  :   -83.6549321 Eh     change       -0.6363621E-10 Eh
 * total energy  :   -83.6639199 Eh     change       -0.8987792E-02 Eh
 * total energy  :   -83.6665487 Eh     change       -0.2628859E-02 Eh
 * total energy  :   -83.6671644 Eh     change       -0.6156862E-03 Eh
 * total energy  :   -83.6677757 Eh     change       -0.6112723E-03 Eh
 * total energy  :   -83.6680513 Eh     change       -0.2756279E-03 Eh
 * total energy  :   -83.6682167 Eh     change       -0.1654490E-03 Eh
 * total energy  :   -83.6682877 Eh     change       -0.7097256E-04 Eh
 * total energy  :   -83.6683142 Eh     change       -0.2643470E-04 Eh
 * total energy  :   -83.6683304 Eh     change       -0.1623231E-04 Eh
 * total energy  :   -83.6683791 Eh     change       -0.8444843E-05 Eh
 * total energy  :   -83.6683868 Eh     change       -0.7701073E-05 Eh
 * total energy  :   -83.6683941 Eh     change       -0.7320492E-05 Eh
 * total energy  :   -83.6684030 Eh     change       -0.8889151E-05 Eh
 * total energy  :   -83.6684158 Eh     change       -0.1278100E-04 Eh
 * total energy  :   -83.6684319 Eh     change       -0.1611821E-04 Eh
 * total energy  :   -83.6684463 Eh     change       -0.1434519E-04 Eh
 * total energy  :   -83.6684572 Eh     change       -0.1093067E-04 Eh
 * total energy  :   -83.6684622 Eh     change       -0.4989467E-05 Eh
   *** GEOMETRY OPTIMIZATION CONVERGED AFTER 22 ITERATIONS ***

 final structure:
================
42
 xtb: 6.5.1 (579679a)
C            6.22538812093520        1.17051893463733       -0.46907538890101
O            4.92317590311046        0.61870235869887       -0.35865048156794
C            4.66745118583033       -0.45636186692314       -1.17269804144971
O            5.53222036140392       -0.86183477821435       -1.93653618180474
C            3.33261567179633       -0.99261774921516       -0.98791296358158
N            2.55229308125402       -0.33257629689279       -0.05353973758556
C            1.36485935960095       -0.73958185482178        0.20598970385304
C            0.52476779852092       -0.06916531480673        1.27825252954002
C            0.98017956345342        1.38784358592335        1.44835483448703
C            0.74103960412428       -0.86014874373906        2.58075041892942
N           -0.87389245697933       -0.15155909622950        0.86022799570827
C           -1.88162078620127        0.46937559686080        1.62964675708885
O           -1.71531758762744        0.75629345926043        2.83405549056860
C           -3.08407304707599        0.67376206581737        0.92068114431634
N           -4.20910520290324        1.20085774162091        1.38585906873802
N           -5.11864869986801        1.26286184430169        0.46175614990000
C           -4.53833213572234        0.71023914148680       -0.77350657283597
C           -4.53896563256101        1.78390976679202       -1.87434821825912
C           -5.34269367645548       -0.52415925656855       -1.21534710914870
O           -3.20659283532011        0.33925337604198       -0.44535350892833
N            0.82855658027355       -1.85418903300924       -0.40554667300672
C            1.48180364171146       -2.59813353334160       -1.34920182575623
O            0.93251263190095       -3.58341694573242       -1.84239915697955
C            2.87666847227024       -2.13194447397379       -1.70276813675592
O            3.51832630087702       -2.76388872469459       -2.56410902572771
H            6.98720626205140        0.42532982135717       -0.21649028380510
H            6.28232091617061        2.00274523351154        0.23157605465186
H            6.41245506542475        1.53213596834544       -1.48569103029599
H            2.04869303985745        1.41141281799538        1.66094777412903
H            0.79467544767875        1.94685490128757        0.53163100824389
H            0.44274198602008        1.85918991532026        2.26956395180985
H            1.80620046327609       -0.89863375491443        2.80786824255280
H            0.36861541419744       -1.87696243797965        2.46065222354360
H            0.22060797014108       -0.38886022793220        3.41232549296346
H           -1.00406724938223        0.00667121941675       -0.13232501107580
H           -3.97130769612286        2.64922882237052       -1.53563523345737
H           -5.56135163742015        2.09086790031295       -2.08504998376058
H           -4.08488114216815        1.39367691792570       -2.78370499552601
H           -5.32651244708179       -1.26833372496189       -0.42051322174990
H           -6.37376000383774       -0.23767137674189       -1.41225999647624
H           -4.90974330646899       -0.95548469046003       -2.11625748110505
H           -0.10451129868604       -2.14620850813375       -0.15305658148174

          :  Hamiltonian                  GFN1-xTB          :
         :: total energy             -83.668462190430 Eh    ::
         :: gradient norm              0.000330686427 Eh/a0 ::
         :: HOMO-LUMO gap              1.346987591299 eV    ::
         :: SCC energy               -84.405672596120 Eh    ::
         :: -> Gsolv                  -0.252970080834 Eh    ::
         :: repulsion energy           0.762730607442 Eh    ::

    * Orbital Energies and Occupations

         #    Occupation            Energy/Eh            Energy/eV
      -------------------------------------------------------------
         1        2.0000           -0.7906431             -21.5145
       ...           ...                  ...                  ...
        56        2.0000           -0.4451251             -12.1125
        57        2.0000           -0.4425404             -12.0421
        58        2.0000           -0.4300972             -11.7035
        59        2.0000           -0.4293948             -11.6844
        60        2.0000           -0.4279620             -11.6454
        61        2.0000           -0.4090531             -11.1309
        62        2.0000           -0.4049672             -11.0197
        63        2.0000           -0.3997470             -10.8777
        64        2.0000           -0.3872110             -10.5365
        65        2.0000           -0.3680135             -10.0142
        66        2.0000           -0.3648154              -9.9271
        67        2.0000           -0.3551641              -9.6645
        68        2.0000           -0.3110100              -8.4630 (HOMO)
        69                         -0.2615091              -7.1160 (LUMO)
        70                         -0.2336018              -6.3566
        71                         -0.2251875              -6.1277
        72                         -0.1878830              -5.1126
        73                         -0.1210093              -3.2928
        74                         -0.1188252              -3.2334
        75                         -0.1009166              -2.7461
        76                         -0.1007802              -2.7424
        77                         -0.0974530              -2.6518
        78                         -0.0952563              -2.5921
        79                         -0.0947305              -2.5777
       ...                                ...                  ...
       134                          0.7700541              20.9542
      -------------------------------------------------------------
                  HL-Gap            0.0495009 Eh            1.3470 eV

Wiberg/Mayer (AO) data.
largest (>0.10) Wiberg bond orders for each atom

     #   Z sym  total        # sym  WBO       # sym  WBO       # sym  WBO
 ---------------------------------------------------------------------------
     1   6 C    3.903 --    27 H    0.987    26 H    0.980    28 H    0.980
                             2 O    0.931
     2   8 O    2.133 --     3 C    1.017     1 C    0.931     4 O    0.106
     3   6 C    3.849 --     4 O    1.585     5 C    1.128     2 O    1.017
     4   8 O    1.862 --     3 C    1.585     2 O    0.106
     5   6 C    3.918 --    24 C    1.271     6 N    1.148     3 C    1.128
                            25 O    0.130
     6   7 N    3.025 --     7 C    1.633     5 C    1.148
     7   6 C    3.929 --     6 N    1.633    21 N    1.096     8 C    0.977
     8   6 C    3.958 --     9 C    0.989    10 C    0.980     7 C    0.977
                            11 N    0.953
     9   6 C    3.994 --     8 C    0.989    30 H    0.987    29 H    0.985
                            31 H    0.984
    10   6 C    3.992 --    32 H    0.988    33 H    0.986     8 C    0.980
                            34 H    0.978
    11   7 N    3.180 --    12 C    1.058     8 C    0.953    35 H    0.919
    12   6 C    3.924 --    13 O    1.450    14 C    1.234    11 N    1.058
    13   8 O    1.791 --    12 C    1.450
    14   6 C    3.843 --    15 N    1.394    12 C    1.234    20 O    0.922
                            16 N    0.156
    15   7 N    3.024 --    16 N    1.473    14 C    1.394
    16   7 N    2.879 --    15 N    1.473    17 C    0.981    14 C    0.156
    17   6 C    3.899 --    16 N    0.981    18 C    0.978    19 C    0.978
                            20 O    0.924
    18   6 C    3.994 --    37 H    0.988    38 H    0.987    36 H    0.985
                            17 C    0.978
    19   6 C    3.994 --    40 H    0.988    41 H    0.987    39 H    0.985
                            17 C    0.978
    20   8 O    2.053 --    17 C    0.924    14 C    0.922
    21   7 N    3.434 --    22 C    1.171     7 C    1.096    42 H    0.894
                            23 O    0.135
    22   6 C    3.881 --    23 O    1.567    21 N    1.171    24 C    0.970
    23   8 O    1.845 --    22 C    1.567    21 N    0.135
    24   6 C    3.943 --    25 O    1.515     5 C    1.271    22 C    0.970
    25   8 O    1.819 --    24 C    1.515     5 C    0.130
    26   1 H    1.015 --     1 C    0.980
    27   1 H    1.017 --     1 C    0.987
    28   1 H    1.015 --     1 C    0.980
    29   1 H    1.019 --     9 C    0.985
    30   1 H    1.008 --     9 C    0.987
    31   1 H    1.016 --     9 C    0.984
    32   1 H    1.008 --    10 C    0.988
    33   1 H    1.009 --    10 C    0.986
    34   1 H    1.024 --    10 C    0.978
    35   1 H    0.968 --    11 N    0.919
    36   1 H    1.015 --    18 C    0.985
    37   1 H    1.011 --    18 C    0.988
    38   1 H    1.008 --    18 C    0.987
    39   1 H    1.015 --    19 C    0.985
    40   1 H    1.011 --    19 C    0.988
    41   1 H    1.008 --    19 C    0.987
    42   1 H    0.955 --    21 N    0.894
 ---------------------------------------------------------------------------

           -------------------------------------------------
          | TOTAL ENERGY              -83.668462190430 Eh   |
          | GRADIENT NORM               0.000330686427 Eh/α |
          | HOMO-LUMO GAP               1.346987591299 eV   |
           -------------------------------------------------

 * finished run on 2023/06/21 at 17:12:36.959
