   * xtb version 6.5.1 (579679a) compiled by 'ehlert@majestix' on 2022-07-11
          program call               : /lustre/hpc/kemi/ree/PhD/git/ReactivityQM/dep/xtb-6.5.1/bin/xtb --gfn 1 /lustre/hpc/kemi/ree/PhD/git/ReactivityQM/calculations/R02methylcation/reac01prodE11/conf08/R02methylcation_reac01prodE11_conf08_gfn1.xyz --opt --vfukui --chrg -2 --uhf 0 --alpb DMSO

   ID    Z sym.   atoms
    1    6 C      1, 3, 5, 7-10, 12, 14, 17-19, 22, 24
    2    8 O      2, 4, 13, 20, 23, 25
    3    7 N      6, 11, 15, 16, 21
    4    1 H      26-42

      * Solvation model:               ALPB
        Solvent                        DMSO
        Solvent mass                       7.8130E+01 g/mol
          :  Hamiltonian                  GFN1-xTB          :
 * total energy  :   -83.6523593 Eh     change       -0.5276490E-10 Eh
 * total energy  :   -83.6624639 Eh     change       -0.1010462E-01 Eh
 * total energy  :   -83.6655385 Eh     change       -0.3074556E-02 Eh
 * total energy  :   -83.6661840 Eh     change       -0.6455632E-03 Eh
 * total energy  :   -83.6667217 Eh     change       -0.5377169E-03 Eh
 * total energy  :   -83.6669834 Eh     change       -0.2616145E-03 Eh
 * total energy  :   -83.6671479 Eh     change       -0.1645474E-03 Eh
 * total energy  :   -83.6672236 Eh     change       -0.7570927E-04 Eh
 * total energy  :   -83.6672565 Eh     change       -0.3286485E-04 Eh
 * total energy  :   -83.6672802 Eh     change       -0.2375909E-04 Eh
 * total energy  :   -83.6673615 Eh     change       -0.1776215E-04 Eh
 * total energy  :   -83.6673757 Eh     change       -0.1417214E-04 Eh
 * total energy  :   -83.6673904 Eh     change       -0.1470996E-04 Eh
 * total energy  :   -83.6674022 Eh     change       -0.1181446E-04 Eh
 * total energy  :   -83.6674197 Eh     change       -0.1747099E-04 Eh
 * total energy  :   -83.6674428 Eh     change       -0.2310340E-04 Eh
 * total energy  :   -83.6674614 Eh     change       -0.1866999E-04 Eh
 * total energy  :   -83.6674739 Eh     change       -0.1247863E-04 Eh
 * total energy  :   -83.6674789 Eh     change       -0.4994429E-05 Eh
   *** GEOMETRY OPTIMIZATION CONVERGED AFTER 22 ITERATIONS ***

 final structure:
================
42
 xtb: 6.5.1 (579679a)
C           -6.21375155539007       -1.97284236471940        0.68781086288805
O           -5.02645461686286       -1.23035536123289        0.46109824143157
C           -5.09204674200817       -0.30549400320065       -0.55019139488071
O           -6.12584320570585       -0.17226847370008       -1.18960355615928
C           -3.85241761708607        0.42984269671199       -0.71492768481527
N           -2.82985171668203        0.06752772188480        0.14560320677445
C           -1.70150907784888        0.67407878806428        0.10506731987178
C           -0.59233640032597        0.33704220123296        1.08525181891004
C           -0.71752102083351        1.31864514388940        2.26367089696033
C           -0.75419564512646       -1.11180233186577        1.56744892093028
N            0.67817502892606        0.53145202290308        0.38713930893695
C            1.89909387043604        0.22825290408984        1.04118803665915
O            1.99579418905705        0.21579517832392        2.28284818205489
C            2.94325119122084        0.01390127599711        0.11469672441031
N            2.80958163930080       -0.00322284524829       -1.20571633536717
N            3.94562761381933       -0.23172269063765       -1.79346620636646
C            4.96299495061127       -0.38520516323534       -0.74051204434514
C            6.03932960088074        0.70355016739113       -0.89295466379549
C            5.59131002045547       -1.78640652072728       -0.82535777424908
O            4.27641059637766       -0.22792758804964        0.49222191945613
N           -1.46555420519693        1.71343601455255       -0.77113641110162
C           -2.37602906650606        2.16472863851779       -1.68612201928180
O           -2.08155824914889        3.09483848983317       -2.43765571311404
C           -3.71461002941149        1.46066851860622       -1.68190945027550
O           -4.58478588334341        1.82541084328394       -2.49616491771217
H           -7.04917533721659       -1.30792962683416        0.93127739737812
H           -6.02026392304714       -2.63913454461595        1.52759409911041
H           -6.48071555842611       -2.56249281184261       -0.19549584732066
H           -0.01696948080420        1.06526410017685        3.05664354010481
H           -0.51390683971984        2.33322869138880        1.92288764853924
H           -1.73074441006696        1.27689351130360        2.66305422678140
H           -1.74618872855161       -1.24229802932671        1.99886712659343
H           -0.64505456619202       -1.79986135408664        0.72945579026732
H           -0.00320470869648       -1.34471168705791        2.32048277617732
H            0.66421037250261        0.16428359492526       -0.56061941090047
H            6.53612375817963        0.59769894424847       -1.85506241174256
H            5.57086554139807        1.68521657265093       -0.84031379662626
H            6.77579320643091        0.61814359815930       -0.09595522624573
H            6.32305337118454       -1.91988259484038       -0.03051510872753
H            4.81056944841559       -2.53820265579109       -0.72043226263764
H            6.07963847643536       -1.91252361790792       -1.78939483554701
H           -0.56713229143749        2.17438564678924       -0.74419697302218

          :  Hamiltonian                  GFN1-xTB          :
         :: total energy             -83.667478906138 Eh    ::
         :: gradient norm              0.000363227642 Eh/a0 ::
         :: HOMO-LUMO gap              1.316849531266 eV    ::
         :: SCC energy               -84.404511809391 Eh    ::
         :: -> Gsolv                  -0.253935179050 Eh    ::
         :: repulsion energy           0.762442355736 Eh    ::

    * Orbital Energies and Occupations

         #    Occupation            Energy/Eh            Energy/eV
      -------------------------------------------------------------
         1        2.0000           -0.7920818             -21.5536
       ...           ...                  ...                  ...
        56        2.0000           -0.4470369             -12.1645
        57        2.0000           -0.4435138             -12.0686
        58        2.0000           -0.4316303             -11.7453
        59        2.0000           -0.4312038             -11.7337
        60        2.0000           -0.4298739             -11.6975
        61        2.0000           -0.4132731             -11.2457
        62        2.0000           -0.4069987             -11.0750
        63        2.0000           -0.4009287             -10.9098
        64        2.0000           -0.3878935             -10.5551
        65        2.0000           -0.3698236             -10.0634
        66        2.0000           -0.3673798              -9.9969
        67        2.0000           -0.3569476              -9.7130
        68        2.0000           -0.3117212              -8.4824 (HOMO)
        69                         -0.2633278              -7.1655 (LUMO)
        70                         -0.2360064              -6.4221
        71                         -0.2268882              -6.1739
        72                         -0.1896574              -5.1608
        73                         -0.1228778              -3.3437
        74                         -0.1198055              -3.2601
        75                         -0.1023076              -2.7839
        76                         -0.1016946              -2.7673
        77                         -0.0988128              -2.6888
        78                         -0.0968931              -2.6366
        79                         -0.0956211              -2.6020
       ...                                ...                  ...
       134                          0.7680040              20.8985
      -------------------------------------------------------------
                  HL-Gap            0.0483933 Eh            1.3168 eV

Wiberg/Mayer (AO) data.
largest (>0.10) Wiberg bond orders for each atom

     #   Z sym  total        # sym  WBO       # sym  WBO       # sym  WBO
 ---------------------------------------------------------------------------
     1   6 C    3.902 --    27 H    0.987    28 H    0.980    26 H    0.980
                             2 O    0.930
     2   8 O    2.134 --     3 C    1.019     1 C    0.930     4 O    0.107
     3   6 C    3.849 --     4 O    1.585     5 C    1.127     2 O    1.019
     4   8 O    1.862 --     3 C    1.585     2 O    0.107
     5   6 C    3.918 --    24 C    1.271     6 N    1.148     3 C    1.127
                            25 O    0.130
     6   7 N    3.024 --     7 C    1.633     5 C    1.148
     7   6 C    3.929 --     6 N    1.633    21 N    1.095     8 C    0.977
     8   6 C    3.957 --    10 C    0.989     9 C    0.981     7 C    0.977
                            11 N    0.953
     9   6 C    3.992 --    31 H    0.988    30 H    0.986     8 C    0.981
                            29 H    0.978
    10   6 C    3.994 --     8 C    0.989    33 H    0.987    32 H    0.985
                            34 H    0.984
    11   7 N    3.162 --    12 C    1.043     8 C    0.953    35 H    0.921
    12   6 C    3.923 --    13 O    1.468    14 C    1.229    11 N    1.043
    13   8 O    1.813 --    12 C    1.468
    14   6 C    3.849 --    15 N    1.391    12 C    1.229    20 O    0.933
                            16 N    0.160
    15   7 N    3.048 --    16 N    1.465    14 C    1.391
    16   7 N    2.880 --    15 N    1.465    17 C    0.981    14 C    0.160
    17   6 C    3.901 --    16 N    0.981    19 C    0.978    18 C    0.977
                            20 O    0.929
    18   6 C    3.995 --    36 H    0.988    38 H    0.987    37 H    0.985
                            17 C    0.977
    19   6 C    3.995 --    41 H    0.988    39 H    0.987    40 H    0.985
                            17 C    0.978
    20   8 O    2.054 --    14 C    0.933    17 C    0.929
    21   7 N    3.434 --    22 C    1.172     7 C    1.095    42 H    0.895
                            23 O    0.135
    22   6 C    3.881 --    23 O    1.565    21 N    1.172    24 C    0.970
    23   8 O    1.844 --    22 C    1.565    21 N    0.135
    24   6 C    3.943 --    25 O    1.514     5 C    1.271    22 C    0.970
    25   8 O    1.818 --    24 C    1.514     5 C    0.130
    26   1 H    1.015 --     1 C    0.980
    27   1 H    1.016 --     1 C    0.987
    28   1 H    1.014 --     1 C    0.980
    29   1 H    1.024 --     9 C    0.978
    30   1 H    1.008 --     9 C    0.986
    31   1 H    1.008 --     9 C    0.988
    32   1 H    1.018 --    10 C    0.985
    33   1 H    1.008 --    10 C    0.987
    34   1 H    1.014 --    10 C    0.984
    35   1 H    0.986 --    11 N    0.921
    36   1 H    1.010 --    18 C    0.988
    37   1 H    1.015 --    18 C    0.985
    38   1 H    1.009 --    18 C    0.987
    39   1 H    1.008 --    19 C    0.987
    40   1 H    1.015 --    19 C    0.985
    41   1 H    1.010 --    19 C    0.988
    42   1 H    0.957 --    21 N    0.895
 ---------------------------------------------------------------------------

           -------------------------------------------------
          | TOTAL ENERGY              -83.667478906138 Eh   |
          | GRADIENT NORM               0.000363227642 Eh/α |
          | HOMO-LUMO GAP               1.316849531266 eV   |
           -------------------------------------------------

 * finished run on 2023/06/21 at 17:22:36.061
