   * xtb version 6.5.1 (579679a) compiled by 'ehlert@majestix' on 2022-07-11
          program call               : /lustre/hpc/kemi/ree/PhD/git/ReactivityQM/dep/xtb-6.5.1/bin/xtb --gfn 1 /lustre/hpc/kemi/ree/PhD/git/ReactivityQM/calculations/R03/reac01prodN06/conf07/R03_reac01prodN06_conf07_gfn1.xyz --opt --vfukui --chrg 1 --uhf 0 --alpb DMSO

   ID    Z sym.   atoms
    1    6 C      1, 3-7, 9, 10
    2    9 F      2
    3    7 N      8
    4    1 H      11-21

      * Solvation model:               ALPB
        Solvent                        DMSO
        Solvent mass                       7.8130E+01 g/mol
          :  Hamiltonian                  GFN1-xTB          :
 * total energy  :   -30.7181128 Eh     change       -0.4000356E-11 Eh
 * total energy  :   -30.7295334 Eh     change       -0.1142061E-01 Eh
 * total energy  :   -30.7328451 Eh     change       -0.3311622E-02 Eh
 * total energy  :   -30.7332272 Eh     change       -0.3821575E-03 Eh
 * total energy  :   -30.7334479 Eh     change       -0.2206675E-03 Eh
 * total energy  :   -30.7336338 Eh     change       -0.1858718E-03 Eh
 * total energy  :   -30.7338350 Eh     change       -0.2012096E-03 Eh
 * total energy  :   -30.7340250 Eh     change       -0.1899907E-03 Eh
 * total energy  :   -30.7341467 Eh     change       -0.1217167E-03 Eh
 * total energy  :   -30.7342467 Eh     change       -0.1000091E-03 Eh
 * total energy  :   -30.7346584 Eh     change       -0.7439396E-05 Eh
 * total energy  :   -30.7346816 Eh     change       -0.2319102E-04 Eh
 * total energy  :   -30.7346882 Eh     change       -0.6568427E-05 Eh
 * total energy  :   -30.7346977 Eh     change       -0.9510491E-05 Eh
 * total energy  :   -30.7347100 Eh     change       -0.1231442E-04 Eh
 * total energy  :   -30.7347216 Eh     change       -0.1156150E-04 Eh
 * total energy  :   -30.7347256 Eh     change       -0.4029491E-05 Eh
 * total energy  :   -30.7347279 Eh     change       -0.2299670E-05 Eh
 * total energy  :   -30.7347312 Eh     change       -0.3289096E-05 Eh
   *** GEOMETRY OPTIMIZATION CONVERGED AFTER 35 ITERATIONS ***

 final structure:
================
21
 xtb: 6.5.1 (579679a)
C           -3.81154565874417       -0.49175158193311        0.67713771619040
F           -2.89225020353701        0.32228004060253       -0.07394818468525
C           -1.43267495524950        0.16556614392941       -0.17057284255250
C           -0.97142190832082       -0.65773990960275       -1.16503520449381
C            0.41046930472966       -0.76500323365099       -1.27002157905423
C            1.24935422589018       -0.06970689774058       -0.39828242448931
C            2.74470305800100       -0.22302793576467       -0.50446260530885
N            3.42965474355523        0.92826960115264        0.07217339940180
C            0.69909965079983        0.74699516996428        0.58975597393640
C           -0.67741981304263        0.87923761677168        0.72370873835768
H           -4.78695741108101       -0.12289400801845        0.37492788549026
H           -3.62667158671698       -1.51696226647587        0.37109111978457
H           -3.58721932981631       -0.31049786644641        1.72401269188467
H           -1.64146100162270       -1.18462903179554       -1.82901507184764
H            0.83006591561172       -1.39913227721772       -2.04150968238792
H            3.03502421369268       -1.11459398505980        0.06258407379262
H            3.02910496091091       -0.38669612425692       -1.55304940319393
H            4.40943317415011        0.70172859398474        0.17109096710127
H            3.35834740982095        1.70662887833769       -0.56918605729875
H            1.35875128598629        1.28563868803096        1.26070398007265
H           -1.12638507501747        1.50628738518534        1.48073950929900

          :  Hamiltonian                  GFN1-xTB          :
         :: total energy             -30.734731206433 Eh    ::
         :: gradient norm              0.000237575137 Eh/a0 ::
         :: HOMO-LUMO gap              2.894763802023 eV    ::
         :: SCC energy               -31.143822515459 Eh    ::
         :: -> Gsolv                  -0.082419028728 Eh    ::
         :: repulsion energy           0.418484278831 Eh    ::

    * Orbital Energies and Occupations

         #    Occupation            Energy/Eh            Energy/eV
      -------------------------------------------------------------
         1        2.0000           -1.0071806             -27.4068
       ...           ...                  ...                  ...
        15        2.0000           -0.5904538             -16.0671
        16        2.0000           -0.5827271             -15.8568
        17        2.0000           -0.5781435             -15.7321
        18        2.0000           -0.5727594             -15.5856
        19        2.0000           -0.5693639             -15.4932
        20        2.0000           -0.5588660             -15.2075
        21        2.0000           -0.5379818             -14.6392
        22        2.0000           -0.5260952             -14.3158
        23        2.0000           -0.5101381             -13.8816
        24        2.0000           -0.5037426             -13.7075
        25        2.0000           -0.4874712             -13.2648
        26        2.0000           -0.4757968             -12.9471
        27        2.0000           -0.4172752             -11.3546 (HOMO)
        28                         -0.3108946              -8.4599 (LUMO)
        29                         -0.3093068              -8.4167
        30                         -0.2577485              -7.0137
        31                         -0.1885105              -5.1296
        32                         -0.1811102              -4.9283
        33                         -0.1425686              -3.8795
        34                         -0.1411222              -3.8401
        35                         -0.1303994              -3.5483
        36                         -0.1301853              -3.5425
        37                         -0.1195762              -3.2538
        38                         -0.1156208              -3.1462
       ...                                ...                  ...
        62                          0.6148337              16.7305
      -------------------------------------------------------------
                  HL-Gap            0.1063806 Eh            2.8948 eV

Wiberg/Mayer (AO) data.
largest (>0.10) Wiberg bond orders for each atom

     #   Z sym  total        # sym  WBO       # sym  WBO       # sym  WBO
 ---------------------------------------------------------------------------
     1   6 C    3.680 --    12 H    0.980    13 H    0.980    11 H    0.974
                             2 F    0.719
     2   9 F    1.436 --     1 C    0.719     3 C    0.630
     3   6 C    3.685 --    10 C    1.431     4 C    1.430     2 F    0.630
     4   6 C    3.985 --     3 C    1.430     5 C    1.427    14 H    0.961
                             9 C    0.108
     5   6 C    3.988 --     4 C    1.427     6 C    1.411    15 H    0.966
                            10 C    0.108
     6   6 C    3.980 --     5 C    1.411     9 C    1.409     7 C    1.010
     7   6 C    3.980 --     6 C    1.010     8 N    1.002    17 H    0.966
                            16 H    0.956
     8   7 N    2.952 --     7 C    1.002    19 H    0.945    18 H    0.938
     9   6 C    3.986 --    10 C    1.426     6 C    1.409    20 H    0.962
                             4 C    0.108
    10   6 C    3.985 --     3 C    1.431     9 C    1.426    21 H    0.962
                             5 C    0.108
    11   1 H    0.992 --     1 C    0.974
    12   1 H    0.994 --     1 C    0.980
    13   1 H    0.993 --     1 C    0.980
    14   1 H    0.990 --     4 C    0.961
    15   1 H    0.994 --     5 C    0.966
    16   1 H    1.007 --     7 C    0.956
    17   1 H    1.000 --     7 C    0.966
    18   1 H    0.952 --     8 N    0.938
    19   1 H    0.956 --     8 N    0.945
    20   1 H    1.013 --     9 C    0.962
    21   1 H    0.991 --    10 C    0.962
 ---------------------------------------------------------------------------

           -------------------------------------------------
          | TOTAL ENERGY              -30.734731206433 Eh   |
          | GRADIENT NORM               0.000237575137 Eh/α |
          | HOMO-LUMO GAP               2.894763802023 eV   |
           -------------------------------------------------

 * finished run on 2023/06/20 at 15:15:00.027
