   * xtb version 6.5.1 (579679a) compiled by 'ehlert@majestix' on 2022-07-11
          program call               : /lustre/hpc/kemi/ree/PhD/git/ReactivityQM/dep/xtb-6.5.1/bin/xtb --gfn 1 /lustre/hpc/kemi/ree/PhD/git/ReactivityQM/calculations/R01/reac02prodE01/conf08/R01_reac02prodE01_conf08_gfn1.xyz --opt --vfukui --chrg -1 --uhf 0 --alpb DMSO

   ID    Z sym.   atoms
    1    6 C      1, 3, 4, 6, 8-11, 14, 16
    2    8 O      2, 5, 15, 17
    3    7 N      7, 12, 13
    4    1 H      18-33

      * Solvation model:               ALPB
        Solvent                        DMSO
        Solvent mass                       7.8130E+01 g/mol
          :  Hamiltonian                  GFN1-xTB          :
 * total energy  :   -58.5433601 Eh     change       -0.5201173E-11 Eh
 * total energy  :   -58.5511187 Eh     change       -0.7758582E-02 Eh
 * total energy  :   -58.5547123 Eh     change       -0.3593693E-02 Eh
 * total energy  :   -58.5573259 Eh     change       -0.2613517E-02 Eh
 * total energy  :   -58.5594888 Eh     change       -0.2162945E-02 Eh
 * total energy  :   -58.5620745 Eh     change       -0.2585695E-02 Eh
 * total energy  :   -58.5644303 Eh     change       -0.2355764E-02 Eh
 * total energy  :   -58.5663902 Eh     change       -0.1959916E-02 Eh
 * total energy  :   -58.5677837 Eh     change       -0.1393503E-02 Eh
 * total energy  :   -58.5688148 Eh     change       -0.1031131E-02 Eh
 * total energy  :   -58.5719771 Eh     change       -0.7062513E-05 Eh
 * total energy  :   -58.5719841 Eh     change       -0.6974492E-05 Eh
 * total energy  :   -58.5719911 Eh     change       -0.6963430E-05 Eh
 * total energy  :   -58.5719980 Eh     change       -0.6966219E-05 Eh
 * total energy  :   -58.5720049 Eh     change       -0.6861700E-05 Eh
 * total energy  :   -58.5720115 Eh     change       -0.6637409E-05 Eh
 * total energy  :   -58.5720178 Eh     change       -0.6213764E-05 Eh
 * total energy  :   -58.5720230 Eh     change       -0.5189680E-05 Eh
 * total energy  :   -58.5720275 Eh     change       -0.4564909E-05 Eh
   *** GEOMETRY OPTIMIZATION CONVERGED AFTER 59 ITERATIONS ***

 final structure:
================
33
 xtb: 6.5.1 (579679a)
C           -3.24619967266908        1.09807016793115       -1.25282608889047
O           -2.97818637222728        0.77507606057006        0.09639764180642
C           -2.47520663454397       -0.56345789374426        0.31799860986399
C           -2.42784990822108       -0.71098573846367        1.84852555545112
O           -3.34532700071815       -1.50971492644523       -0.21279124198429
C           -1.07293861657351       -0.70132783283040       -0.28701711032340
N           -0.08273522746579       -0.03997409292040        0.38896167357297
C            1.13102306127695       -0.08487602737875       -0.04895956530512
C            2.23040937601631        0.68563426535078        0.66506641401450
C            3.46651836030507       -0.18989897641650        0.89896577630422
C            2.60377303907754        1.92266262488420       -0.16852390258716
N            1.73946894600941        1.14173921038863        1.96233498503307
N            1.44902702933016       -0.77998556600746       -1.19007936014933
C            0.54140333474389       -1.49167382611520       -1.94770796281061
O            0.93809361926196       -2.09250207148908       -2.95114302537703
C           -0.85550744299791       -1.43592703819854       -1.45058726968715
O           -1.78094403678695       -2.05038886553041       -2.09310769753212
H           -4.02146723382458        0.44586964059809       -1.67708545125961
H           -2.34219074635193        1.02392362154922       -1.87454826998240
H           -3.60308272169224        2.13025221219195       -1.27255344769074
H           -3.42290377635807       -0.54370455819800        2.25771146686091
H           -1.73377616653289        0.01530213132968        2.26639575403206
H           -2.09801118681216       -1.71686353032092        2.10049424272849
H            3.95024250383017       -0.43940999817300       -0.04422015462439
H            4.18087176124440        0.34813476602600        1.52146434435200
H            3.18686553229225       -1.11348765013868        1.40528910287729
H            2.98835198735824        1.62423342697408       -1.14278315880600
H            3.36690807809582        2.49867526877219        0.35353966600308
H            1.72658207919229        2.55313990416305       -0.31335579143598
H            1.67472060326547        0.34791947933526        2.58798103524931
H            0.79622910154191        1.50478936469691        1.84038887633121
H            2.40181235933364       -0.79623454504483       -1.51524573169127
H           -2.88597502840223       -1.85501000734465       -1.06897991433890

          :  Hamiltonian                  GFN1-xTB          :
         :: total energy             -58.572027515765 Eh    ::
         :: gradient norm              0.000257594451 Eh/a0 ::
         :: HOMO-LUMO gap              2.900799869110 eV    ::
         :: SCC energy               -59.101038072156 Eh    ::
         :: -> Gsolv                  -0.098198361715 Eh    ::
         :: repulsion energy           0.548585121810 Eh    ::

    * Orbital Energies and Occupations

         #    Occupation            Energy/Eh            Energy/eV
      -------------------------------------------------------------
         1        2.0000           -0.7862880             -21.3960
       ...           ...                  ...                  ...
        36        2.0000           -0.4820639             -13.1176
        37        2.0000           -0.4777042             -12.9990
        38        2.0000           -0.4690232             -12.7628
        39        2.0000           -0.4640946             -12.6287
        40        2.0000           -0.4548977             -12.3784
        41        2.0000           -0.4382497             -11.9254
        42        2.0000           -0.4337973             -11.8042
        43        2.0000           -0.4253940             -11.5756
        44        2.0000           -0.4232297             -11.5167
        45        2.0000           -0.4080375             -11.1033
        46        2.0000           -0.3943442             -10.7307
        47        2.0000           -0.3624025              -9.8615
        48        2.0000           -0.3471407              -9.4462 (HOMO)
        49                         -0.2405383              -6.5454 (LUMO)
        50                         -0.2243304              -6.1043
        51                         -0.1213444              -3.3019
        52                         -0.1175783              -3.1995
        53                         -0.1115312              -3.0349
        54                         -0.1097390              -2.9861
        55                         -0.0955775              -2.6008
        56                         -0.0914008              -2.4871
        57                         -0.0761335              -2.0717
        58                         -0.0554104              -1.5078
        59                         -0.0487422              -1.3263
       ...                                ...                  ...
       100                          0.7313182              19.9002
      -------------------------------------------------------------
                  HL-Gap            0.1066024 Eh            2.9008 eV

Wiberg/Mayer (AO) data.
largest (>0.10) Wiberg bond orders for each atom

     #   Z sym  total        # sym  WBO       # sym  WBO       # sym  WBO
 ---------------------------------------------------------------------------
     1   6 C    3.923 --    20 H    0.986    18 H    0.981    19 H    0.980
                             2 O    0.953
     2   8 O    1.981 --     1 C    0.953     3 C    0.884
     3   6 C    3.863 --     5 O    0.996     4 C    0.977     6 C    0.959
                             2 O    0.884
     4   6 C    3.996 --    23 H    0.988    21 H    0.986    22 H    0.986
                             3 C    0.977
     5   8 O    1.872 --     3 C    0.996    33 H    0.711
     6   6 C    3.938 --    16 C    1.397     7 N    1.209     3 C    0.959
                            17 O    0.140
     7   7 N    3.044 --     8 C    1.572     6 C    1.209
     8   6 C    3.928 --     7 N    1.572    13 N    1.124     9 C    0.971
     9   6 C    3.970 --    10 C    0.994    12 N    0.990    11 C    0.984
                             8 C    0.971
    10   6 C    3.995 --     9 C    0.994    26 H    0.986    25 H    0.985
                            24 H    0.983
    11   6 C    3.994 --    27 H    0.987    29 H    0.986    28 H    0.986
                             9 C    0.984
    12   7 N    2.952 --     9 C    0.990    30 H    0.949    31 H    0.942
    13   7 N    3.430 --    14 C    1.135     8 C    1.124    32 H    0.902
                            15 O    0.129
    14   6 C    3.889 --    15 O    1.536    13 N    1.135    16 C    1.032
    15   8 O    1.830 --    14 C    1.536    13 N    0.129
    16   6 C    3.957 --     6 C    1.397    17 O    1.332    14 C    1.032
    17   8 O    1.826 --    16 C    1.332    33 H    0.166     6 C    0.140
    18   1 H    1.022 --     1 C    0.981
    19   1 H    1.016 --     1 C    0.980
    20   1 H    1.020 --     1 C    0.986
    21   1 H    1.012 --     4 C    0.986
    22   1 H    1.022 --     4 C    0.986
    23   1 H    1.012 --     4 C    0.988
    24   1 H    1.003 --    10 C    0.983
    25   1 H    1.005 --    10 C    0.985
    26   1 H    1.004 --    10 C    0.986
    27   1 H    1.004 --    11 C    0.987
    28   1 H    1.008 --    11 C    0.986
    29   1 H    1.006 --    11 C    0.986
    30   1 H    0.968 --    12 N    0.949
    31   1 H    0.983 --    12 N    0.942
    32   1 H    0.953 --    13 N    0.902
    33   1 H    0.889 --     5 O    0.711    17 O    0.166
 ---------------------------------------------------------------------------

           -------------------------------------------------
          | TOTAL ENERGY              -58.572027515765 Eh   |
          | GRADIENT NORM               0.000257594451 Eh/α |
          | HOMO-LUMO GAP               2.900799869110 eV   |
           -------------------------------------------------

 * finished run on 2023/06/20 at 14:57:23.921
