   * xtb version 6.5.1 (579679a) compiled by 'ehlert@majestix' on 2022-07-11
          program call               : /lustre/hpc/kemi/ree/PhD/git/ReactivityQM/dep/xtb-6.5.1/bin/xtb --gfn 1 /lustre/hpc/kemi/ree/PhD/git/ReactivityQM/calculations/R02methylcation/reac01prodE06/conf07/R02methylcation_reac01prodE06_conf07_gfn1.xyz --opt --vfukui --chrg -2 --uhf 0 --alpb DMSO

   ID    Z sym.   atoms
    1    6 C      1, 3, 5, 6, 8, 11-15, 17, 19, 22, 23
    2    8 O      2, 4, 7, 9, 18, 24
    3    7 N      10, 16, 20, 21, 25
    4    1 H      26-42

      * Solvation model:               ALPB
        Solvent                        DMSO
        Solvent mass                       7.8130E+01 g/mol
          :  Hamiltonian                  GFN1-xTB          :
 * total energy  :   -83.6060213 Eh     change       -0.1378453E-11 Eh
 * total energy  :   -83.6181635 Eh     change       -0.1214214E-01 Eh
 * total energy  :   -83.6227184 Eh     change       -0.4554875E-02 Eh
 * total energy  :   -83.6238073 Eh     change       -0.1088997E-02 Eh
 * total energy  :   -83.6243777 Eh     change       -0.5703870E-03 Eh
 * total energy  :   -83.6245993 Eh     change       -0.2215360E-03 Eh
 * total energy  :   -83.6247431 Eh     change       -0.1438513E-03 Eh
 * total energy  :   -83.6248664 Eh     change       -0.1232713E-03 Eh
 * total energy  :   -83.6249887 Eh     change       -0.1222981E-03 Eh
 * total energy  :   -83.6251140 Eh     change       -0.1252998E-03 Eh
 * total energy  :   -83.6257726 Eh     change       -0.1141649E-04 Eh
 * total energy  :   -83.6257832 Eh     change       -0.1060978E-04 Eh
 * total energy  :   -83.6257910 Eh     change       -0.7783447E-05 Eh
 * total energy  :   -83.6257965 Eh     change       -0.5532349E-05 Eh
 * total energy  :   -83.6258020 Eh     change       -0.5457792E-05 Eh
 * total energy  :   -83.6258082 Eh     change       -0.6187588E-05 Eh
 * total energy  :   -83.6258141 Eh     change       -0.5909787E-05 Eh
 * total energy  :   -83.6258191 Eh     change       -0.5021956E-05 Eh
 * total energy  :   -83.6258234 Eh     change       -0.4334322E-05 Eh
   *** GEOMETRY OPTIMIZATION CONVERGED AFTER 38 ITERATIONS ***

 final structure:
================
42
 xtb: 6.5.1 (579679a)
C           -4.30054364115071        3.55906371340214        0.28203619556585
O           -4.10876970657273        2.16215029434964        0.39168021714862
C           -2.80517574185409        1.73584036345447        0.33268558841520
O           -1.90658924318073        2.57157414556398        0.20274939575928
C           -2.61156709706222        0.29538186546587        0.41090724932927
C           -3.70119363534266       -0.61916918741944        0.52557848583060
O           -4.91603274852071       -0.30885040623554        0.73673907757467
C           -3.35215647448545       -2.05457183817057        0.32183747507890
O           -4.18235402404323       -2.97339063332653        0.23777216344268
N           -2.02277365756384       -2.34208605218638        0.10617342255229
C           -0.96539275093878       -1.43647185214995        0.53563566701371
C           -0.69043345103291       -1.67288034252566        2.04846422716158
C            0.32296648504867       -1.72652553339228       -0.31319061695883
C            0.95531324748111       -3.08479136151793        0.00672827829274
C           -0.03822436623121       -1.64487466410819       -1.80494952090264
N            1.24324861391336       -0.64269219119710        0.01939067180725
C            2.51139148306870       -0.52971362647320       -0.46655960992644
O            3.12190534529213       -1.43093761805650       -1.06432179279472
C            3.09323345692143        0.76780806268162       -0.15538949485106
N            2.49943381015058        1.77024736532110        0.46650128141095
N            3.40656244694566        2.79200197603760        0.51715248742928
C            4.48285640861104        2.37226170663845       -0.06425818382879
C            5.74807785927241        3.12037179988194       -0.25896621658483
O            4.37003656130511        1.10628323230068       -0.51887696526513
N           -1.29796653616061       -0.06379585047003        0.31622057885320
H           -3.92422608654369        3.93554221347381       -0.67636291174297
H           -3.78777670410579        4.09403374286143        1.08981067292750
H           -5.37259148408597        3.74596623770290        0.34841888402616
H           -1.80071632029777       -3.32468290170841        0.13804184436330
H           -1.54582693335373       -1.32110712810935        2.62491723650883
H           -0.54151667131715       -2.73042772142150        2.25623677806237
H            0.19440456454180       -1.11656940628633        2.35300813704610
H            1.42580635389649       -3.07111681778485        0.98878544223987
H            1.71573974289120       -3.33490832032873       -0.73188218217675
H            0.19773613195616       -3.86687575185363       -0.00933226566551
H            0.85515933582741       -1.75380879013075       -2.41831993849763
H           -0.74006658946775       -2.43781273196954       -2.06090368159462
H           -0.50199019450444       -0.67978840434836       -2.01537217481765
H            0.76488238762321        0.22072631663996        0.28811484860246
H            5.96961422099383        3.22054740045330       -1.32156362233272
H            6.57716970670000        2.58910864469430        0.20802276408122
H            5.65834789537184        4.10893905024905        0.18452710741720

          :  Hamiltonian                  GFN1-xTB          :
         :: total energy             -83.625823441823 Eh    ::
         :: gradient norm              0.000364929738 Eh/a0 ::
         :: HOMO-LUMO gap              0.091900987907 eV    ::
         :: SCC energy               -84.347629231478 Eh    ::
         :: -> Gsolv                  -0.275764776136 Eh    ::
         :: repulsion energy           0.748972154109 Eh    ::

    * Orbital Energies and Occupations

         #    Occupation            Energy/Eh            Energy/eV
      -------------------------------------------------------------
         1        2.0000           -0.8188094             -22.2809
       ...           ...                  ...                  ...
        56        2.0000           -0.4432857             -12.0624
        57        2.0000           -0.4389871             -11.9454
        58        2.0000           -0.4209806             -11.4555
        59        2.0000           -0.4184612             -11.3869
        60        2.0000           -0.4143837             -11.2760
        61        2.0000           -0.4086781             -11.1207
        62        2.0000           -0.4029327             -10.9644
        63        2.0000           -0.3973258             -10.8118
        64        2.0000           -0.3916133             -10.6563
        65        2.0000           -0.3790169             -10.3136
        66        2.0000           -0.3659877              -9.9590
        67        2.0000           -0.3354277              -9.1275
        68        1.7108           -0.2756013              -7.4995 (HOMO)
        69        0.2892           -0.2722240              -7.4076 (LUMO)
        70                         -0.2380457              -6.4776
        71                         -0.2225260              -6.0552
        72                         -0.1650358              -4.4909
        73                         -0.1524451              -4.1482
        74                         -0.1297788              -3.5315
        75                         -0.1130651              -3.0767
        76                         -0.1056287              -2.8743
        77                         -0.0974574              -2.6520
        78                         -0.0863892              -2.3508
        79                         -0.0816088              -2.2207
       ...                                ...                  ...
       134                          0.7368804              20.0515
      -------------------------------------------------------------
                  HL-Gap            0.0033773 Eh            0.0919 eV

Wiberg/Mayer (AO) data.
largest (>0.10) Wiberg bond orders for each atom

     #   Z sym  total        # sym  WBO       # sym  WBO       # sym  WBO
 ---------------------------------------------------------------------------
     1   6 C    3.913 --    28 H    0.987    26 H    0.980    27 H    0.980
                             2 O    0.940
     2   8 O    2.134 --     3 C    1.012     1 C    0.940     4 O    0.100
     3   6 C    3.816 --     4 O    1.544     5 C    1.119     2 O    1.012
     4   8 O    1.815 --     3 C    1.544     2 O    0.100
     5   6 C    3.912 --    25 N    1.264     6 C    1.235     3 C    1.119
     6   6 C    3.877 --     7 O    1.407     5 C    1.235     8 C    1.012
     7   8 O    1.656 --     6 C    1.407
     8   6 C    3.860 --     9 O    1.526    10 N    1.154     6 C    1.012
     9   8 O    1.791 --     8 C    1.526    10 N    0.127
    10   7 N    3.249 --     8 C    1.154    11 C    0.929    29 H    0.917
                             9 O    0.127
    11   6 C    3.941 --    25 N    1.028    12 C    0.960    13 C    0.943
                            10 N    0.929
    12   6 C    3.978 --    31 H    0.986    32 H    0.985    30 H    0.985
                            11 C    0.960
    13   6 C    3.935 --    14 C    1.000    15 C    0.990    11 C    0.943
                            16 N    0.938
    14   6 C    3.994 --    13 C    1.000    33 H    0.985    35 H    0.983
                            34 H    0.980
    15   6 C    3.993 --    13 C    0.990    36 H    0.986    37 H    0.985
                            38 H    0.983
    16   7 N    3.274 --    17 C    1.197    13 C    0.938    39 H    0.886
                            18 O    0.146
    17   6 C    3.834 --    18 O    1.481    16 N    1.197    19 C    1.070
    18   8 O    1.759 --    17 C    1.481    16 N    0.146
    19   6 C    3.745 --    20 N    1.483    17 C    1.070    24 O    1.004
    20   7 N    2.849 --    19 C    1.483    21 N    1.186
    21   7 N    2.980 --    22 C    1.626    20 N    1.186
    22   6 C    3.837 --    21 N    1.626    24 O    1.061    23 C    1.026
    23   6 C    3.993 --    22 C    1.026    42 H    0.985    41 H    0.970
                            40 H    0.969
    24   8 O    2.228 --    22 C    1.061    19 C    1.004
    25   7 N    2.690 --     5 C    1.264    11 C    1.028
    26   1 H    1.018 --     1 C    0.980
    27   1 H    1.018 --     1 C    0.980
    28   1 H    1.018 --     1 C    0.987
    29   1 H    0.970 --    10 N    0.917
    30   1 H    1.011 --    12 C    0.985
    31   1 H    1.007 --    12 C    0.986
    32   1 H    1.015 --    12 C    0.985
    33   1 H    1.008 --    14 C    0.985
    34   1 H    1.021 --    14 C    0.980
    35   1 H    1.005 --    14 C    0.983
    36   1 H    1.011 --    15 C    0.986
    37   1 H    1.014 --    15 C    0.985
    38   1 H    1.023 --    15 C    0.983
    39   1 H    1.001 --    16 N    0.886
    40   1 H    1.000 --    23 C    0.969
    41   1 H    1.000 --    23 C    0.970
    42   1 H    1.003 --    23 C    0.985
 ---------------------------------------------------------------------------

           -------------------------------------------------
          | TOTAL ENERGY              -83.625823441823 Eh   |
          | GRADIENT NORM               0.000364929738 Eh/α |
          | HOMO-LUMO GAP               0.091900987907 eV   |
           -------------------------------------------------

 * finished run on 2023/06/21 at 17:15:33.355
