   * xtb version 6.5.1 (579679a) compiled by 'ehlert@majestix' on 2022-07-11
          program call               : /lustre/hpc/kemi/ree/PhD/git/ReactivityQM/dep/xtb-6.5.1/bin/xtb --gfn 1 /lustre/hpc/kemi/ree/PhD/git/ReactivityQM/calculations/RaltegravirCLI/reac02prodE02/conf19/RaltegravirCLI_reac02prodE02_conf19_gfn1.xyz --opt --vfukui --chrg -1 --uhf 0 --alpb DMSO

   ID    Z sym.   atoms
    1    6 C      1, 3, 5, 7, 8, 11-15, 17, 18, 20-24
    2    7 N      2, 10, 19, 25
    3    8 O      4, 6, 9
    4    9 F      16
    5    1 H      26-47

      * Solvation model:               ALPB
        Solvent                        DMSO
        Solvent mass                       7.8130E+01 g/mol
          :  Hamiltonian                  GFN1-xTB          :
 * total energy  :   -80.2069583 Eh     change       -0.1072920E-10 Eh
 * total energy  :   -80.2145409 Eh     change       -0.7582581E-02 Eh
 * total energy  :   -80.2167857 Eh     change       -0.2244805E-02 Eh
 * total energy  :   -80.2173230 Eh     change       -0.5372401E-03 Eh
 * total energy  :   -80.2178638 Eh     change       -0.5407972E-03 Eh
 * total energy  :   -80.2181888 Eh     change       -0.3250137E-03 Eh
 * total energy  :   -80.2185234 Eh     change       -0.3345685E-03 Eh
 * total energy  :   -80.2187545 Eh     change       -0.2311337E-03 Eh
 * total energy  :   -80.2188864 Eh     change       -0.1319322E-03 Eh
 * total energy  :   -80.2189440 Eh     change       -0.5761164E-04 Eh
 * total energy  :   -80.2201479 Eh     change       -0.1899574E-04 Eh
 * total energy  :   -80.2201648 Eh     change       -0.1691029E-04 Eh
 * total energy  :   -80.2201844 Eh     change       -0.1956744E-04 Eh
 * total energy  :   -80.2201992 Eh     change       -0.1476975E-04 Eh
 * total energy  :   -80.2202133 Eh     change       -0.1418035E-04 Eh
 * total energy  :   -80.2202300 Eh     change       -0.1665526E-04 Eh
 * total energy  :   -80.2202362 Eh     change       -0.6227905E-05 Eh
 * total energy  :   -80.2202474 Eh     change       -0.1114175E-04 Eh
 * total energy  :   -80.2202523 Eh     change       -0.4946788E-05 Eh
   *** GEOMETRY OPTIMIZATION CONVERGED AFTER 46 ITERATIONS ***

 final structure:
================
47
 xtb: 6.5.1 (579679a)
C           -3.31478198120088        2.29414979123271       -1.24491753380118
N           -2.37865117586303        1.64689425860298       -0.32835772293667
C           -1.94119985555165        2.45590449264555        0.71148665570822
O           -2.47008301862757        3.57667456456451        0.87064489104631
C           -0.85786331001118        1.93058779532965        1.48546458522321
O           -0.42407372165030        2.69045833121647        2.57452153093424
C           -0.19036299385601        0.79489831663708        1.04118225066154
C            1.07825186017932        0.35503444148431        1.67646473876568
O            1.63959618568769        0.93537015881664        2.61512171452876
N            1.57437426317735       -0.79101074929203        1.15353502815441
C            2.87213136641067       -1.31459181710014        1.52093182263148
C            3.94154087106375       -0.90866348069378        0.52723070493282
C            4.06114053009315        0.42096507414646        0.12597160757274
C            5.04009794064799        0.80115678621344       -0.77995493510345
C            5.89358938261788       -0.17114714229975       -1.27063260750059
F            6.84584135438265        0.19041457578634       -2.14968661494305
C            5.80729752205279       -1.49788927814645       -0.89280450227698
C            4.81871468940418       -1.85995705263981        0.01327225197904
N           -0.57220131037251        0.05332220230149        0.00343562112782
C           -1.86913644864339        0.29004080284528       -0.59056854824304
C           -1.65290378225222        0.08489739867427       -2.10659582809310
C           -2.86806758529635       -0.78758542522891        0.00869350998135
C           -2.25826691369477       -2.18800102899579       -0.12214994717365
C           -4.26197671512339       -0.78689196507302       -0.64179002274468
N           -3.02336771637712       -0.49875384916967        1.43900915418865
H           -3.70602577489182        1.58733629425556       -1.97051877043934
H           -4.15186113333570        2.71229705252271       -0.67775536591600
H           -2.82346612656745        3.11409246437917       -1.78246702305684
H            0.40230461312644        2.28772945984286        2.90726442991169
H            1.13105887695946       -1.14422917995219        0.31256625876928
H            3.12315986509312       -0.92192671070505        2.51439087628767
H            2.81330316286260       -2.40527043032149        1.58305759922966
H            3.38333733117780        1.16752355575815        0.52612226810002
H            5.14469667453008        1.82961445830375       -1.10082394994596
H            6.49345366924516       -2.22957455671293       -1.29807269110116
H            4.73544633740152       -2.89587036387018        0.32085885966281
H           -1.10391770242094        0.93746762058584       -2.50548220859076
H           -1.04326712859280       -0.80549582753774       -2.24973919013338
H           -2.57613070282949       -0.03426948799102       -2.66784860806433
H           -2.20881899268859       -2.49263060825267       -1.16690639029454
H           -2.86796497483198       -2.91420711212666        0.41620010713269
H           -1.25043416595757       -2.19740164024773        0.29550096589793
H           -4.20959526035398       -1.00513893003585       -1.70746780449104
H           -4.75908144579798        0.17151488391646       -0.49840251993747
H           -4.87601023150472       -1.55525553959963       -0.17015710565335
H           -3.59709129972638        0.33529644369799        1.53513089444604
H           -3.54273502810445       -1.25787704776403        1.85989156357379

          :  Hamiltonian                  GFN1-xTB          :
         :: total energy             -80.220252319575 Eh    ::
         :: gradient norm              0.000727657118 Eh/a0 ::
         :: HOMO-LUMO gap              1.069955656366 eV    ::
         :: SCC energy               -81.072321227043 Eh    ::
         :: -> Gsolv                  -0.107183980482 Eh    ::
         :: repulsion energy           0.884316106025 Eh    ::

    * Orbital Energies and Occupations

         #    Occupation            Energy/Eh            Energy/eV
      -------------------------------------------------------------
         1        2.0000           -0.8590232             -23.3752
       ...           ...                  ...                  ...
        56        2.0000           -0.4598235             -12.5124
        57        2.0000           -0.4545882             -12.3700
        58        2.0000           -0.4472669             -12.1708
        59        2.0000           -0.4456272             -12.1261
        60        2.0000           -0.4317219             -11.7478
        61        2.0000           -0.4212334             -11.4623
        62        2.0000           -0.4198293             -11.4241
        63        2.0000           -0.4050594             -11.0222
        64        2.0000           -0.3867868             -10.5250
        65        2.0000           -0.3849143             -10.4741
        66        2.0000           -0.3766363             -10.2488
        67        2.0000           -0.3610100              -9.8236
        68        2.0000           -0.3068142              -8.3488 (HOMO)
        69                         -0.2674941              -7.2789 (LUMO)
        70                         -0.2599823              -7.0745
        71                         -0.2509344              -6.8283
        72                         -0.1747406              -4.7549
        73                         -0.1388274              -3.7777
        74                         -0.1167467              -3.1768
        75                         -0.1139289              -3.1002
        76                         -0.1060197              -2.8849
        77                         -0.1009979              -2.7483
        78                         -0.0993417              -2.7032
        79                         -0.0968447              -2.6353
       ...                                ...                  ...
       144                          0.7285295              19.8243
      -------------------------------------------------------------
                  HL-Gap            0.0393201 Eh            1.0700 eV

Wiberg/Mayer (AO) data.
largest (>0.10) Wiberg bond orders for each atom

     #   Z sym  total        # sym  WBO       # sym  WBO       # sym  WBO
 ---------------------------------------------------------------------------
     1   6 C    3.967 --    26 H    0.985    28 H    0.982    27 H    0.982
                             2 N    0.961
     2   7 N    3.284 --     3 C    1.127     1 C    0.961    20 C    0.916
                             4 O    0.121
     3   6 C    3.918 --     4 O    1.458     5 C    1.170     2 N    1.127
     4   8 O    1.773 --     3 C    1.458     2 N    0.121
     5   6 C    3.871 --     7 C    1.360     3 C    1.170     6 O    0.981
                            19 N    0.175
     6   8 O    1.947 --     5 C    0.981    29 H    0.828
     7   6 C    3.972 --    19 N    1.382     5 C    1.360     8 C    1.019
     8   6 C    3.880 --     9 O    1.517    10 N    1.240     7 C    1.019
     9   8 O    1.875 --     8 C    1.517    10 N    0.147
    10   7 N    3.327 --     8 C    1.240    11 C    0.959    30 H    0.891
                             9 O    0.147
    11   6 C    3.961 --    12 C    0.994    32 H    0.976    31 H    0.961
                            10 N    0.959
    12   6 C    3.987 --    18 C    1.422    13 C    1.412    11 C    0.994
    13   6 C    3.993 --    14 C    1.448    12 C    1.412    33 H    0.970
                            17 C    0.111
    14   6 C    3.992 --    13 C    1.448    15 C    1.398    34 H    0.970
                            18 C    0.109
    15   6 C    3.859 --    17 C    1.405    14 C    1.398    16 F    0.919
    16   9 F    1.046 --    15 C    0.919
    17   6 C    3.992 --    18 C    1.438    15 C    1.405    35 H    0.970
                            13 C    0.111
    18   6 C    3.994 --    17 C    1.438    12 C    1.422    36 H    0.971
                            14 C    0.109
    19   7 N    2.938 --     7 C    1.382    20 C    1.006     5 C    0.175
    20   6 C    3.939 --    19 N    1.006    21 C    0.987    22 C    0.926
                             2 N    0.916
    21   6 C    3.995 --    20 C    0.987    37 H    0.985    38 H    0.983
                            39 H    0.980
    22   6 C    3.960 --    23 C    1.002    24 C    0.992    25 N    0.981
                            20 C    0.926
    23   6 C    3.996 --    22 C    1.002    41 H    0.985    40 H    0.985
                            42 H    0.979
    24   6 C    3.995 --    22 C    0.992    45 H    0.984    44 H    0.982
                            43 H    0.981
    25   7 N    2.956 --    22 C    0.981    47 H    0.956    46 H    0.953
    26   1 H    1.012 --     1 C    0.985
    27   1 H    1.023 --     1 C    0.982
    28   1 H    1.012 --     1 C    0.982
    29   1 H    0.898 --     6 O    0.828
    30   1 H    0.984 --    10 N    0.891
    31   1 H    1.016 --    11 C    0.961
    32   1 H    1.007 --    11 C    0.976
    33   1 H    1.005 --    13 C    0.970
    34   1 H    0.999 --    14 C    0.970
    35   1 H    0.999 --    17 C    0.970
    36   1 H    1.001 --    18 C    0.971
    37   1 H    1.013 --    21 C    0.985
    38   1 H    1.020 --    21 C    0.983
    39   1 H    1.009 --    21 C    0.980
    40   1 H    1.007 --    23 C    0.985
    41   1 H    1.005 --    23 C    0.985
    42   1 H    1.029 --    23 C    0.979
    43   1 H    1.007 --    24 C    0.981
    44   1 H    1.007 --    24 C    0.982
    45   1 H    1.007 --    24 C    0.984
    46   1 H    0.978 --    25 N    0.953
    47   1 H    0.972 --    25 N    0.956
 ---------------------------------------------------------------------------

           -------------------------------------------------
          | TOTAL ENERGY              -80.220252319575 Eh   |
          | GRADIENT NORM               0.000727657118 Eh/α |
          | HOMO-LUMO GAP               1.069955656366 eV   |
           -------------------------------------------------

 * finished run on 2023/06/20 at 14:56:30.967
