   * xtb version 6.5.1 (579679a) compiled by 'ehlert@majestix' on 2022-07-11
          program call               : /lustre/hpc/kemi/ree/PhD/git/ReactivityQM/dep/xtb-6.5.1/bin/xtb --gfn 1 /lustre/hpc/kemi/ree/PhD/git/ReactivityQM/calculations/R02oxygendeprot/reac01prodE04/conf02/R02oxygendeprot_reac01prodE04_conf02_gfn1.xyz --opt --vfukui --chrg -2 --uhf 0 --alpb DMSO

   ID    Z sym.   atoms
    1    6 C      1, 3, 5, 6, 8-11, 13, 15, 18, 19, 22, 24
    2    8 O      2, 4, 14, 20, 23, 25
    3    7 N      7, 12, 16, 17, 21
    4    1 H      26-42

      * Solvation model:               ALPB
        Solvent                        DMSO
        Solvent mass                       7.8130E+01 g/mol
          :  Hamiltonian                  GFN1-xTB          :
 * total energy  :   -83.5809561 Eh     change       -0.1649951E-08 Eh
 * total energy  :   -83.6011426 Eh     change       -0.2018645E-01 Eh
 * total energy  :   -83.6075018 Eh     change       -0.6359234E-02 Eh
 * total energy  :   -83.6087992 Eh     change       -0.1297354E-02 Eh
 * total energy  :   -83.6098036 Eh     change       -0.1004461E-02 Eh
 * total energy  :   -83.6103560 Eh     change       -0.5523741E-03 Eh
 * total energy  :   -83.6107741 Eh     change       -0.4181397E-03 Eh
 * total energy  :   -83.6111715 Eh     change       -0.3973562E-03 Eh
 * total energy  :   -83.6115742 Eh     change       -0.4027311E-03 Eh
 * total energy  :   -83.6119199 Eh     change       -0.3457143E-03 Eh
 * total energy  :   -83.6138810 Eh     change       -0.2706155E-04 Eh
 * total energy  :   -83.6139024 Eh     change       -0.2142781E-04 Eh
 * total energy  :   -83.6139206 Eh     change       -0.1816803E-04 Eh
 * total energy  :   -83.6139375 Eh     change       -0.1694889E-04 Eh
 * total energy  :   -83.6139514 Eh     change       -0.1386247E-04 Eh
 * total energy  :   -83.6139603 Eh     change       -0.8959975E-05 Eh
 * total energy  :   -83.6139682 Eh     change       -0.7870984E-05 Eh
 * total energy  :   -83.6139756 Eh     change       -0.7396385E-05 Eh
 * total energy  :   -83.6139781 Eh     change       -0.2481919E-05 Eh
   *** GEOMETRY OPTIMIZATION CONVERGED AFTER 44 ITERATIONS ***

 final structure:
================
42
 xtb: 6.5.1 (579679a)
C            2.71836942886764        2.00498732558693        2.33859211329358
O            2.22517427647703        1.17161355284954        1.29805056194451
C            2.61670954427516        1.50197941936943        0.04086051834933
O            3.34494995751429        2.46356534457926       -0.16413218898929
C            2.18028117991334        0.50723940862804       -1.01977757682745
C            2.05620559319195        1.21472466795022       -2.37257548488350
N            0.91300144791629       -0.12056535121865       -0.68055178164158
C            0.93683568975461       -1.13119295054471        0.10976832498457
C           -0.37620505915180       -1.75185354882056        0.57756606830808
C           -0.45939565418665       -3.20870830801228        0.09430853101123
C           -0.44657414124679       -1.68374343501024        2.11382072098057
N           -1.45511107160316       -0.97566271456274       -0.01921132144960
C           -2.78455536695475       -1.16542507083164        0.30678456371642
O           -3.20425709723641       -2.19041111898126        0.89166738703428
C           -3.65405835933112       -0.11108041109333       -0.12882836072932
N           -4.97897308405891       -0.03793908414309        0.01880251223913
N           -5.36291630002152        1.16231141703268       -0.51080978970002
C           -4.29888056290052        1.75519865405433       -0.94475865356038
C           -4.22168323061182        3.08863379992477       -1.59190144885672
O           -3.17114637777418        1.02747533141601       -0.75001940960081
N            2.08452862855238       -1.68786111155429        0.57892482778080
C            3.33838156040668       -1.53925962325714       -0.11595097331015
O            4.20856849125737       -2.43143458546958        0.11573798607714
C            3.40183104120932       -0.45955324961990       -1.01804807163511
O            4.37466379938857       -0.20337122824330       -1.80923304245761
H            3.80867422424381        1.93631196131651        2.40963082513364
H            2.44272085469228        3.04878340199007        2.15941505306800
H            2.26616393119287        1.66074197518937        3.26746589877186
H            1.25347255960541        1.95022892985926       -2.34241171660442
H            1.83625241348410        0.48420074498757       -3.15043268763456
H            2.99265292970908        1.71746997078833       -2.61417039859818
H           -1.37552797643670       -3.67291262135941        0.45605077162994
H           -0.45466808543396       -3.23825882887544       -0.99527294773772
H            0.38977923482103       -3.77891087197970        0.46751682998777
H           -1.38081433714985       -2.11614215458294        2.46859254743861
H           -0.38645065422822       -0.64640207137980        2.44212606163095
H            0.38003377679810       -2.23981525441781        2.55229321838967
H           -1.18149703380462       -0.05474998296998       -0.34785741056259
H           -3.83606825505549        3.00026062619358       -2.60801685979932
H           -5.21469209309367        3.53041349941441       -1.62467200162480
H           -3.55490850270857        3.74562430209915       -1.03277563499972
H            2.02913467971245       -2.52650775629921        1.13343543942916

          :  Hamiltonian                  GFN1-xTB          :
         :: total energy             -83.613978076490 Eh    ::
         :: gradient norm              0.000309898144 Eh/a0 ::
         :: HOMO-LUMO gap              0.041088400838 eV    ::
         :: SCC energy               -84.340871922341 Eh    ::
         :: -> Gsolv                  -0.267562278669 Eh    ::
         :: repulsion energy           0.753950110313 Eh    ::

    * Orbital Energies and Occupations

         #    Occupation            Energy/Eh            Energy/eV
      -------------------------------------------------------------
         1        2.0000           -0.8047547             -21.8985
       ...           ...                  ...                  ...
        56        2.0000           -0.4449634             -12.1081
        57        2.0000           -0.4418747             -12.0240
        58        2.0000           -0.4298005             -11.6955
        59        2.0000           -0.4234770             -11.5234
        60        2.0000           -0.4091625             -11.1339
        61        2.0000           -0.4050943             -11.0232
        62        2.0000           -0.4032184             -10.9721
        63        2.0000           -0.3985417             -10.8449
        64        2.0000           -0.3887328             -10.5780
        65        2.0000           -0.3795735             -10.3287
        66        2.0000           -0.3742217             -10.1831
        67        2.0000           -0.3435699              -9.3490
        68        1.3777           -0.2676564              -7.2833 (HOMO)
        69        0.6223           -0.2661464              -7.2422 (LUMO)
        70                         -0.2209553              -6.0125
        71                         -0.2120543              -5.7703
        72                         -0.2021615              -5.5011
        73                         -0.1410020              -3.8369
        74                         -0.1251271              -3.4049
        75                         -0.1208937              -3.2897
        76                         -0.1129932              -3.0747
        77                         -0.1036426              -2.8203
        78                         -0.0974824              -2.6526
        79                         -0.0856954              -2.3319
       ...                                ...                  ...
       134                          0.7167164              19.5028
      -------------------------------------------------------------
                  HL-Gap            0.0015100 Eh            0.0411 eV

Wiberg/Mayer (AO) data.
largest (>0.10) Wiberg bond orders for each atom

     #   Z sym  total        # sym  WBO       # sym  WBO       # sym  WBO
 ---------------------------------------------------------------------------
     1   6 C    3.898 --    28 H    0.987    26 H    0.981    27 H    0.981
                             2 O    0.922
     2   8 O    2.150 --     3 C    1.049     1 C    0.922     4 O    0.108
     3   6 C    3.782 --     4 O    1.596     2 O    1.049     5 C    0.948
     4   8 O    1.862 --     3 C    1.596     2 O    0.108
     5   6 C    3.957 --     6 C    0.991     7 N    0.978     3 C    0.948
                            24 C    0.874
     6   6 C    3.991 --     5 C    0.991    29 H    0.988    30 H    0.987
                            31 H    0.984
     7   7 N    2.960 --     8 C    1.652     5 C    0.978    21 N    0.149
     8   6 C    3.933 --     7 N    1.652    21 N    1.178     9 C    0.970
     9   6 C    3.952 --    10 C    0.985    11 C    0.981     8 C    0.970
                            12 N    0.950
    10   6 C    3.992 --    33 H    0.987     9 C    0.985    34 H    0.985
                            32 H    0.980
    11   6 C    3.991 --    36 H    0.987    37 H    0.985    35 H    0.981
                             9 C    0.981
    12   7 N    3.189 --    13 C    1.133     9 C    0.950    38 H    0.897
                            14 O    0.121
    13   6 C    3.771 --    14 O    1.435    15 C    1.136    12 N    1.133
    14   8 O    1.690 --    13 C    1.435    12 N    0.121
    15   6 C    3.689 --    16 N    1.412    13 C    1.136    20 O    0.971
    16   7 N    2.739 --    15 C    1.412    17 N    1.190
    17   7 N    2.981 --    18 C    1.627    16 N    1.190
    18   6 C    3.814 --    17 N    1.627    20 O    1.043    19 C    1.024
    19   6 C    3.994 --    18 C    1.024    40 H    0.986    41 H    0.971
                            39 H    0.970
    20   8 O    2.183 --    18 C    1.043    15 C    0.971
    21   7 N    3.315 --     8 C    1.178    22 C    0.945    42 H    0.914
                             7 N    0.149
    22   6 C    3.743 --    23 O    1.380    24 C    1.262    21 N    0.945
    23   8 O    1.595 --    22 C    1.380
    24   6 C    3.740 --    25 O    1.363    22 C    1.262     5 C    0.874
    25   8 O    1.572 --    24 C    1.363
    26   1 H    1.013 --     1 C    0.981
    27   1 H    1.014 --     1 C    0.981
    28   1 H    1.016 --     1 C    0.987
    29   1 H    1.010 --     6 C    0.988
    30   1 H    1.012 --     6 C    0.987
    31   1 H    1.027 --     6 C    0.984
    32   1 H    1.021 --    10 C    0.980
    33   1 H    1.009 --    10 C    0.987
    34   1 H    1.006 --    10 C    0.985
    35   1 H    1.016 --    11 C    0.981
    36   1 H    1.007 --    11 C    0.987
    37   1 H    1.005 --    11 C    0.985
    38   1 H    0.983 --    12 N    0.897
    39   1 H    1.000 --    19 C    0.970
    40   1 H    1.004 --    19 C    0.986
    41   1 H    1.000 --    19 C    0.971
    42   1 H    0.970 --    21 N    0.914
 ---------------------------------------------------------------------------

           -------------------------------------------------
          | TOTAL ENERGY              -83.613978076490 Eh   |
          | GRADIENT NORM               0.000309898144 Eh/α |
          | HOMO-LUMO GAP               0.041088400838 eV   |
           -------------------------------------------------

 * finished run on 2023/06/21 at 17:04:42.581
