   * xtb version 6.5.1 (579679a) compiled by 'ehlert@majestix' on 2022-07-11
          program call               : /lustre/hpc/kemi/ree/PhD/git/ReactivityQM/dep/xtb-6.5.1/bin/xtb --gfn 1 /lustre/hpc/kemi/ree/PhD/git/ReactivityQM/calculations/R02deprot/reac01prodN16/conf05/R02deprot_reac01prodN16_conf05_gfn1.xyz --opt --vfukui --chrg 0 --uhf 0 --alpb DMSO

   ID    Z sym.   atoms
    1    6 C      1, 3, 5, 7-10, 12, 14, 17, 18, 21, 23, 24
    2    8 O      2, 4, 13, 19, 22, 25
    3    7 N      6, 11, 15, 16, 20
    4    1 H      26-42

      * Solvation model:               ALPB
        Solvent                        DMSO
        Solvent mass                       7.8130E+01 g/mol
          :  Hamiltonian                  GFN1-xTB          :
 * total energy  :   -82.9425469 Eh     change       -0.1381295E-10 Eh
 * total energy  :   -82.9550407 Eh     change       -0.1249376E-01 Eh
 * total energy  :   -82.9596772 Eh     change       -0.4636571E-02 Eh
 * total energy  :   -82.9606122 Eh     change       -0.9349659E-03 Eh
 * total energy  :   -82.9612779 Eh     change       -0.6656694E-03 Eh
 * total energy  :   -82.9617907 Eh     change       -0.5128398E-03 Eh
 * total energy  :   -82.9623086 Eh     change       -0.5178537E-03 Eh
 * total energy  :   -82.9627206 Eh     change       -0.4120182E-03 Eh
 * total energy  :   -82.9629293 Eh     change       -0.2087573E-03 Eh
 * total energy  :   -82.9630420 Eh     change       -0.1126330E-03 Eh
 * total energy  :   -82.9638249 Eh     change       -0.1383169E-04 Eh
 * total energy  :   -82.9638309 Eh     change       -0.6056715E-05 Eh
 * total energy  :   -82.9638436 Eh     change       -0.1268184E-04 Eh
 * total energy  :   -82.9638362 Eh     change        0.7433995E-05 Eh
 * total energy  :   -82.9638481 Eh     change       -0.1192492E-04 Eh
 * total energy  :   -82.9638535 Eh     change       -0.5349742E-05 Eh
 * total energy  :   -82.9638596 Eh     change       -0.6129888E-05 Eh
 * total energy  :   -82.9638672 Eh     change       -0.7601345E-05 Eh
 * total energy  :   -82.9638697 Eh     change       -0.2524837E-05 Eh
   *** GEOMETRY OPTIMIZATION CONVERGED AFTER 37 ITERATIONS ***

 final structure:
================
42
 xtb: 6.5.1 (579679a)
C           -5.24279550227708        2.18389200450663       -1.55981366558429
O           -4.32414846942724        1.28710010468964       -0.91347425852558
C           -3.04746174132326        1.63910891604718       -0.90329696197977
O           -2.60642868100502        2.65272086513882       -1.37676423117231
C           -2.19298200553246        0.58727516839880       -0.23183918794259
N           -1.04162923520788        0.38904148532885       -0.74217559971019
C           -0.32843797248239       -0.74466882461624       -0.31425233629710
C            0.74961649220767       -1.25092771760087       -1.25522161556928
C            0.55164910803436       -0.68975373711172       -2.66527710368182
C            0.73758587440085       -2.78428824317249       -1.24873941794356
N            2.01669207417347       -0.75915714110657       -0.69332446077430
C            3.21775141569269       -1.02861877283483       -1.24343370764478
O            3.40401327679481       -1.70198688102577       -2.24313386970477
C            4.34026392484317       -0.41065226485055       -0.49199134708803
N            5.60833505638533       -0.50219790859177       -0.74758448339950
N            6.25569219358371        0.22432717090929        0.20612556472180
C            5.34342475278172        0.71527852789035        0.98589012104017
C            5.53252037523461        1.57435487586600        2.17480162477728
O            4.10916028577557        0.35095125383429        0.59988938417556
N           -0.54978890914091       -1.34758787951184        0.78520517769300
C           -1.54457959656819       -0.86564713363342        1.63741587895550
O           -1.42880480046742       -0.87260200848617        2.83354949898941
C           -2.76655699085772       -0.27385844920894        0.90720807097772
C           -3.59663327790787        0.53131653633092        1.90931050853720
O           -3.50110432828611       -1.32021318152936        0.32045324760171
H           -6.24084981785972        1.82693691738737       -1.31899935579465
H           -5.09384798706066        3.19793352321216       -1.18450063360021
H           -5.07773467434625        2.16072044847397       -2.63838451146022
H           -0.43255573727824       -0.97385028086316       -3.03310187191925
H            1.31037931049556       -1.08889314796218       -3.33565055475115
H            0.62260876972430        0.39632600127160       -2.64762819164153
H            1.50240235245319       -3.16865604785057       -1.92021099191936
H           -0.23697962839382       -3.13815436443651       -1.58070035549483
H            0.92449358145343       -3.15079524676681       -0.24039957753157
H            1.97936395229146       -0.18918156398070        0.13555954009526
H            4.97212542903503        2.50128354863864        2.05722704994394
H            6.58906695297001        1.79781044039845        2.30032079180367
H            5.15915617052273        1.06608753131818        3.06390263520061
H           -4.50877482679753        0.89046304381913        1.44214249262251
H           -3.85787671260534       -0.11286327557816        2.74748011766182
H           -3.01929509568208        1.37744587118248        2.27657334693218
H           -4.28703635834938       -0.97582416392391       -0.12402776060073

          :  Hamiltonian                  GFN1-xTB          :
         :: total energy             -82.963869708355 Eh    ::
         :: gradient norm              0.000403853844 Eh/a0 ::
         :: HOMO-LUMO gap              1.739582207028 eV    ::
         :: SCC energy               -83.740414938416 Eh    ::
         :: -> Gsolv                  -0.056698584772 Eh    ::
         :: repulsion energy           0.802367098684 Eh    ::

    * Orbital Energies and Occupations

         #    Occupation            Energy/Eh            Energy/eV
      -------------------------------------------------------------
         1        2.0000           -0.8680418             -23.6206
       ...           ...                  ...                  ...
        55        2.0000           -0.5075281             -13.8105
        56        2.0000           -0.5070984             -13.7988
        57        2.0000           -0.5055844             -13.7577
        58        2.0000           -0.5011903             -13.6381
        59        2.0000           -0.4948701             -13.4661
        60        2.0000           -0.4905824             -13.3494
        61        2.0000           -0.4822987             -13.1240
        62        2.0000           -0.4687486             -12.7553
        63        2.0000           -0.4630434             -12.6001
        64        2.0000           -0.4618323             -12.5671
        65        2.0000           -0.4538992             -12.3512
        66        2.0000           -0.4508513             -12.2683
        67        2.0000           -0.4362501             -11.8710 (HOMO)
        68                         -0.3723217             -10.1314 (LUMO)
        69                         -0.3130503              -8.5185
        70                         -0.3089456              -8.4068
        71                         -0.2590415              -7.0489
        72                         -0.2564900              -6.9794
        73                         -0.2434876              -6.6256
        74                         -0.2009427              -5.4679
        75                         -0.1441251              -3.9218
        76                         -0.1416303              -3.8540
        77                         -0.1242520              -3.3811
        78                         -0.1234062              -3.3581
       ...                                ...                  ...
       134                          0.7278738              19.8065
      -------------------------------------------------------------
                  HL-Gap            0.0639285 Eh            1.7396 eV

Wiberg/Mayer (AO) data.
largest (>0.10) Wiberg bond orders for each atom

     #   Z sym  total        # sym  WBO       # sym  WBO       # sym  WBO
 ---------------------------------------------------------------------------
     1   6 C    3.851 --    26 H    0.984    27 H    0.979    28 H    0.978
                             2 O    0.875
     2   8 O    2.228 --     3 C    1.134     1 C    0.875     4 O    0.145
     3   6 C    3.851 --     4 O    1.696     2 O    1.134     5 C    0.944
     4   8 O    1.960 --     3 C    1.696     2 O    0.145
     5   6 C    3.929 --     6 N    1.792     3 C    0.944    23 C    0.928
     6   7 N    3.052 --     5 C    1.792     7 C    1.052
     7   6 C    3.921 --    20 N    1.732     6 N    1.052     8 C    0.972
     8   6 C    3.932 --     9 C    0.993    10 C    0.986     7 C    0.972
                            11 N    0.913
     9   6 C    3.988 --     8 C    0.993    29 H    0.985    31 H    0.984
                            30 H    0.981
    10   6 C    3.988 --     8 C    0.986    33 H    0.985    34 H    0.984
                            32 H    0.980
    11   7 N    3.347 --    12 C    1.256     8 C    0.913    35 H    0.892
                            13 O    0.177
    12   6 C    3.916 --    13 O    1.586    11 N    1.256    14 C    0.991
    13   8 O    1.904 --    12 C    1.586    11 N    0.177
    14   6 C    3.872 --    15 N    1.623    19 O    1.047    12 C    0.991
    15   7 N    3.000 --    14 C    1.623    16 N    1.198
    16   7 N    2.982 --    17 C    1.611    15 N    1.198
    17   6 C    3.868 --    16 N    1.611    19 O    1.072    18 C    1.032
    18   6 C    3.986 --    17 C    1.032    37 H    0.982    36 H    0.964
                            38 H    0.962
    19   8 O    2.315 --    17 C    1.072    14 C    1.047
    20   7 N    3.105 --     7 C    1.732    21 C    1.073
    21   6 C    3.857 --    22 O    1.761    20 N    1.073    23 C    0.918
    22   8 O    1.990 --    21 C    1.761
    23   6 C    3.919 --    24 C    0.981    25 O    0.960     5 C    0.928
                            21 C    0.918
    24   6 C    3.987 --    41 H    0.983    23 C    0.981    39 H    0.980
                            40 H    0.980
    25   8 O    1.915 --    23 C    0.960    42 H    0.837
    26   1 H    1.007 --     1 C    0.984
    27   1 H    1.004 --     1 C    0.979
    28   1 H    1.002 --     1 C    0.978
    29   1 H    1.002 --     9 C    0.985
    30   1 H    1.008 --     9 C    0.981
    31   1 H    1.010 --     9 C    0.984
    32   1 H    1.009 --    10 C    0.980
    33   1 H    1.001 --    10 C    0.985
    34   1 H    1.009 --    10 C    0.984
    35   1 H    0.938 --    11 N    0.892
    36   1 H    0.997 --    18 C    0.964
    37   1 H    0.998 --    18 C    0.982
    38   1 H    0.997 --    18 C    0.962
    39   1 H    1.006 --    24 C    0.980
    40   1 H    1.004 --    24 C    0.980
    41   1 H    1.000 --    24 C    0.983
    42   1 H    0.863 --    25 O    0.837
 ---------------------------------------------------------------------------

           -------------------------------------------------
          | TOTAL ENERGY              -82.963869708355 Eh   |
          | GRADIENT NORM               0.000403853844 Eh/α |
          | HOMO-LUMO GAP               1.739582207028 eV   |
           -------------------------------------------------

 * finished run on 2023/06/20 at 18:26:37.744
