   * xtb version 6.5.1 (579679a) compiled by 'ehlert@majestix' on 2022-07-11
          program call               : /lustre/hpc/kemi/ree/PhD/git/ReactivityQM/dep/xtb-6.5.1/bin/xtb --gfn 1 /lustre/hpc/kemi/ree/PhD/git/ReactivityQM/calculations/RaltegravirCLI/reac02prodE07/conf09/RaltegravirCLI_reac02prodE07_conf09_gfn1.xyz --opt --vfukui --chrg -1 --uhf 0 --alpb DMSO

   ID    Z sym.   atoms
    1    6 C      1-4, 6-9, 11, 13, 15-18, 21, 22, 24
    2    9 F      5
    3    7 N      10, 14, 19, 20
    4    8 O      12, 23, 25
    5    1 H      26-47

      * Solvation model:               ALPB
        Solvent                        DMSO
        Solvent mass                       7.8130E+01 g/mol
          :  Hamiltonian                  GFN1-xTB          :
 * total energy  :   -80.1836979 Eh     change       -0.7707968E-10 Eh
 * total energy  :   -80.1922557 Eh     change       -0.8557831E-02 Eh
 * total energy  :   -80.1946446 Eh     change       -0.2388882E-02 Eh
 * total energy  :   -80.1950355 Eh     change       -0.3908939E-03 Eh
 * total energy  :   -80.1954474 Eh     change       -0.4118974E-03 Eh
 * total energy  :   -80.1956500 Eh     change       -0.2026485E-03 Eh
 * total energy  :   -80.1958589 Eh     change       -0.2088705E-03 Eh
 * total energy  :   -80.1960095 Eh     change       -0.1506100E-03 Eh
 * total energy  :   -80.1961298 Eh     change       -0.1203004E-03 Eh
 * total energy  :   -80.1962370 Eh     change       -0.1072153E-03 Eh
 * total energy  :   -80.1971754 Eh     change       -0.1130534E-04 Eh
 * total energy  :   -80.1971881 Eh     change       -0.1272139E-04 Eh
 * total energy  :   -80.1972035 Eh     change       -0.1538366E-04 Eh
 * total energy  :   -80.1972205 Eh     change       -0.1698888E-04 Eh
 * total energy  :   -80.1972339 Eh     change       -0.1339792E-04 Eh
 * total energy  :   -80.1972425 Eh     change       -0.8553603E-05 Eh
 * total energy  :   -80.1972531 Eh     change       -0.1063735E-04 Eh
 * total energy  :   -80.1972655 Eh     change       -0.1242222E-04 Eh
 * total energy  :   -80.1972688 Eh     change       -0.3323957E-05 Eh
   *** GEOMETRY OPTIMIZATION CONVERGED AFTER 44 ITERATIONS ***

 final structure:
================
47
 xtb: 6.5.1 (579679a)
C            4.69626799123305        2.42505255309726       -0.89181566895925
C            3.50132590067500        1.83867579550315       -0.08250639219722
C            3.76415449505686        1.97523341754954        1.40016412040772
C            4.12377319660582        0.89278794793754        2.12702750386589
F            4.44511050127011        1.08692267985867        3.44361020134821
C            4.12639336394585       -0.43363280664963        1.66856679973264
C            3.61643986292009       -0.64198508811500        0.37492567693047
C            3.27018660478851        0.38506848150614       -0.46078766884130
C            2.58973892789085        0.10640966449628       -1.77413302780333
N            1.17063706603962       -0.21859346948026       -1.53660977555041
C            0.72792723304510       -1.48683982074788       -1.47610377193921
O            1.38780728214778       -2.45966825171783       -1.89632471082021
C           -0.62557727121857       -1.65439538035809       -0.92813301841009
N           -1.27593633526147       -0.54208936059174       -0.46358183739139
C           -2.48655494441755       -0.62640350900707       -0.00930416446850
C           -3.11877390868471        0.68796395330146        0.43964463311186
C           -3.96549771052865        1.25197277757023       -0.71131791169357
C           -2.00596489608533        1.69422861813137        0.77798894781801
N           -3.96537590415897        0.49129774572526        1.61404673593069
N           -3.17125915916355       -1.81618219079666        0.01105588223317
C           -4.55151482310872       -1.92813809008435        0.48053965737831
C           -2.57954129764543       -3.03011424893402       -0.39196074282001
O           -3.20857581178428       -4.08813541695931       -0.30623616175479
C           -1.23828975945592       -2.89279314280184       -0.89780249192528
O           -0.61809225229216       -4.01005101232332       -1.33418910932078
H            5.60979885908054        1.87675708471709       -0.65891399351932
H            4.84234648798642        3.47455087022576       -0.63487233917959
H            4.50544571122663        2.35038833119317       -1.96284431001830
H            2.61836243645080        2.44329768653454       -0.35647513394360
H            3.71376512355660        2.96280853451253        1.84122557650432
H            4.41773113264145       -1.24985371522703        2.31445384815337
H            3.47379970087946       -1.66628733821529        0.03399339035600
H            3.03077625307863       -0.75002540316483       -2.29678080648967
H            2.62358585029083        0.97408145638141       -2.44108154959704
H            0.61216941556579        0.48459112530533       -1.07144890177212
H           -4.80293345000050        0.59740824170530       -0.94633612580692
H           -3.34859652295336        1.36502898527611       -1.60231025587865
H           -4.35950587740504        2.22785520296077       -0.43131526041152
H           -1.36508440961908        1.29483338386683        1.56286033192277
H           -2.45404391240244        2.62310457278149        1.12604501486325
H           -1.39717518870733        1.90069599274470       -0.10124768139111
H           -4.53496711608825        1.31372049233339        1.74907657680016
H           -3.38539321989102        0.38802388941230        2.43736734501315
H           -5.14142350868585       -1.08755096200691        0.13003498667068
H           -4.57759366229299       -1.95190202870146        1.56972614654067
H           -4.97484191728970       -2.85355805106830        0.08791233600736
H            0.28496746276800       -3.72456219768215       -1.65756189968705

          :  Hamiltonian                  GFN1-xTB          :
         :: total energy             -80.197268836299 Eh    ::
         :: gradient norm              0.000247526302 Eh/a0 ::
         :: HOMO-LUMO gap              0.221950203224 eV    ::
         :: SCC energy               -81.050474743876 Eh    ::
         :: -> Gsolv                  -0.098308330472 Eh    ::
         :: repulsion energy           0.883751148322 Eh    ::

    * Orbital Energies and Occupations

         #    Occupation            Energy/Eh            Energy/eV
      -------------------------------------------------------------
         1        2.0000           -0.8066731             -21.9507
       ...           ...                  ...                  ...
        56        2.0000           -0.4542472             -12.3607
        57        2.0000           -0.4467637             -12.1571
        58        2.0000           -0.4435523             -12.0697
        59        2.0000           -0.4416248             -12.0172
        60        2.0000           -0.4316639             -11.7462
        61        2.0000           -0.4236796             -11.5289
        62        2.0000           -0.4187122             -11.3937
        63        2.0000           -0.4106409             -11.1741
        64        2.0000           -0.4070379             -11.0761
        65        2.0000           -0.4048708             -11.0171
        66        2.0000           -0.3943367             -10.7304
        67        2.0000           -0.3806821             -10.3589
        68        1.9730           -0.2994331              -8.1480 (HOMO)
        69        0.0270           -0.2912766              -7.9260 (LUMO)
        70                         -0.2545596              -6.9269
        71                         -0.2068097              -5.6276
        72                         -0.1978511              -5.3838
        73                         -0.1279506              -3.4817
        74                         -0.1256341              -3.4187
        75                         -0.1222407              -3.3263
        76                         -0.1171707              -3.1884
        77                         -0.1123383              -3.0569
        78                         -0.0979229              -2.6646
        79                         -0.0966660              -2.6304
       ...                                ...                  ...
       144                          0.7066873              19.2299
      -------------------------------------------------------------
                  HL-Gap            0.0081565 Eh            0.2220 eV

Wiberg/Mayer (AO) data.
largest (>0.10) Wiberg bond orders for each atom

     #   Z sym  total        # sym  WBO       # sym  WBO       # sym  WBO
 ---------------------------------------------------------------------------
     1   6 C    3.973 --    26 H    0.989    27 H    0.987    28 H    0.985
                             2 C    0.966
     2   6 C    3.992 --     3 C    1.009     8 C    0.999    29 H    0.966
                             1 C    0.966
     3   6 C    3.844 --     4 C    1.606     2 C    1.009    30 H    0.974
     4   6 C    3.835 --     3 C    1.606     6 C    1.275     5 F    0.870
     5   9 F    0.982 --     4 C    0.870
     6   6 C    3.819 --     7 C    1.327     4 C    1.275    31 H    0.977
     7   6 C    3.995 --     8 C    1.584     6 C    1.327    32 H    0.971
     8   6 C    3.867 --     7 C    1.584     9 C    1.003     2 C    0.999
     9   6 C    3.937 --     8 C    1.003    34 H    0.979    33 H    0.974
                            10 N    0.909
    10   7 N    3.353 --    11 C    1.274     9 C    0.909    35 H    0.907
                            12 O    0.149
    11   6 C    3.896 --    12 O    1.456    10 N    1.274    13 C    1.055
    12   8 O    1.864 --    11 C    1.456    10 N    0.149    47 H    0.100
    13   6 C    3.913 --    24 C    1.414    14 N    1.178    11 C    1.055
    14   7 N    3.040 --    15 C    1.563    13 C    1.178
    15   6 C    3.914 --    14 N    1.563    20 N    1.171    16 C    0.975
    16   6 C    3.966 --    18 C    0.990    17 C    0.984    19 N    0.983
                            15 C    0.975
    17   6 C    3.993 --    37 H    0.985    16 C    0.984    38 H    0.983
                            36 H    0.979
    18   6 C    3.995 --    16 C    0.990    40 H    0.986    39 H    0.985
                            41 H    0.982
    19   7 N    2.977 --    16 C    0.983    43 H    0.943    42 H    0.942
    20   7 N    3.441 --    15 C    1.171    22 C    1.071    21 C    0.939
                            23 O    0.119
    21   6 C    3.935 --    44 H    0.979    45 H    0.978    46 H    0.976
                            20 N    0.939
    22   6 C    3.871 --    23 O    1.524    24 C    1.134    20 N    1.071
    23   8 O    1.823 --    22 C    1.524    20 N    0.119
    24   6 C    3.850 --    13 C    1.414    22 C    1.134    25 O    1.085
    25   8 O    2.023 --    24 C    1.085    47 H    0.761
    26   1 H    1.016 --     1 C    0.989
    27   1 H    1.011 --     1 C    0.987
    28   1 H    1.009 --     1 C    0.985
    29   1 H    1.011 --     2 C    0.966
    30   1 H    1.003 --     3 C    0.974
    31   1 H    1.004 --     6 C    0.977
    32   1 H    1.008 --     7 C    0.971
    33   1 H    1.018 --     9 C    0.974
    34   1 H    1.013 --     9 C    0.979
    35   1 H    0.974 --    10 N    0.907
    36   1 H    1.006 --    17 C    0.979
    37   1 H    1.005 --    17 C    0.985
    38   1 H    1.001 --    17 C    0.983
    39   1 H    1.008 --    18 C    0.985
    40   1 H    1.004 --    18 C    0.986
    41   1 H    1.016 --    18 C    0.982
    42   1 H    0.956 --    19 N    0.942
    43   1 H    0.959 --    19 N    0.943
    44   1 H    1.023 --    21 C    0.979
    45   1 H    1.020 --    21 C    0.978
    46   1 H    1.014 --    21 C    0.976
    47   1 H    0.871 --    25 O    0.761    12 O    0.100
 ---------------------------------------------------------------------------

           -------------------------------------------------
          | TOTAL ENERGY              -80.197268836299 Eh   |
          | GRADIENT NORM               0.000247526302 Eh/α |
          | HOMO-LUMO GAP               0.221950203224 eV   |
           -------------------------------------------------

 * finished run on 2023/06/20 at 15:06:18.075
