   * xtb version 6.5.1 (579679a) compiled by 'ehlert@majestix' on 2022-07-11
          program call               : /lustre/hpc/kemi/ree/PhD/git/ReactivityQM/dep/xtb-6.5.1/bin/xtb --gfn 1 /lustre/hpc/kemi/ree/PhD/git/ReactivityQM/calculations/R02oxygendeprot/reac01prodE03/conf16/R02oxygendeprot_reac01prodE03_conf16_gfn1.xyz --opt --vfukui --chrg -2 --uhf 0 --alpb DMSO

   ID    Z sym.   atoms
    1    6 C      1, 3, 5, 6, 8-11, 13, 15, 18, 19, 22, 24
    2    8 O      2, 4, 14, 20, 23, 25
    3    7 N      7, 12, 16, 17, 21
    4    1 H      26-42

      * Solvation model:               ALPB
        Solvent                        DMSO
        Solvent mass                       7.8130E+01 g/mol
          :  Hamiltonian                  GFN1-xTB          :
 * total energy  :   -83.5556778 Eh     change       -0.1193712E-11 Eh
 * total energy  :   -83.5698689 Eh     change       -0.1419118E-01 Eh
 * total energy  :   -83.5756494 Eh     change       -0.5780487E-02 Eh
 * total energy  :   -83.5770662 Eh     change       -0.1416770E-02 Eh
 * total energy  :   -83.5780430 Eh     change       -0.9767844E-03 Eh
 * total energy  :   -83.5785927 Eh     change       -0.5497467E-03 Eh
 * total energy  :   -83.5790202 Eh     change       -0.4274159E-03 Eh
 * total energy  :   -83.5793301 Eh     change       -0.3099692E-03 Eh
 * total energy  :   -83.5795469 Eh     change       -0.2168250E-03 Eh
 * total energy  :   -83.5797136 Eh     change       -0.1666087E-03 Eh
 * total energy  :   -83.5809525 Eh     change       -0.5217194E-04 Eh
 * total energy  :   -83.5809715 Eh     change       -0.1904070E-04 Eh
 * total energy  :   -83.5810063 Eh     change       -0.3472288E-04 Eh
 * total energy  :   -83.5810158 Eh     change       -0.9572946E-05 Eh
 * total energy  :   -83.5810318 Eh     change       -0.1599764E-04 Eh
 * total energy  :   -83.5810420 Eh     change       -0.1016605E-04 Eh
 * total energy  :   -83.5810472 Eh     change       -0.5188802E-05 Eh
 * total energy  :   -83.5810529 Eh     change       -0.5736119E-05 Eh
 * total energy  :   -83.5810578 Eh     change       -0.4888715E-05 Eh
   *** GEOMETRY OPTIMIZATION CONVERGED AFTER 33 ITERATIONS ***

 final structure:
================
42
 xtb: 6.5.1 (579679a)
C           -4.20130498795149       -0.96331158241075       -1.23560351020834
O           -4.01400329071680        0.44517956506224       -1.34734545416727
C           -3.80840155366780        1.14184864906160       -0.16668914652713
O           -4.85497444570774        1.97816723811552        0.20504597204760
C           -5.95435092326695        2.06859479206207       -0.66984767625101
C           -2.65106887232324        1.03444660913457        0.57583151760386
N           -1.70759140301267        0.13862228893650        0.05467429683168
C           -0.59372323632108       -0.04843577464721        0.67974935663004
C            0.41811161397518       -1.05817289363402        0.15948652089530
C            0.22306120430497       -1.26584733866194       -1.34930437102712
C            0.19011386137997       -2.37573588840261        0.91923606199668
N            1.75216779036153       -0.52646964487162        0.45251423502150
C            2.90132367195158       -1.20305110144446       -0.01366281106230
O            2.91960578186452       -2.43249448538802       -0.25228581574247
C            4.01475141420354       -0.32353191466888       -0.10678662496910
N            4.00399908597526        0.99916624171996        0.12216499579215
N            5.28059211228059        1.44048582038093       -0.10216310206714
C            5.99000388541609        0.41688075023672       -0.44613909631304
C            7.43355634950774        0.40507344489664       -0.79435032269008
O            5.28273504755742       -0.73969338060081       -0.47962539105111
N           -0.29241325735922        0.58428002836009        1.84409064753706
C           -1.13679686615839        1.51595189233676        2.47330512543741
O           -0.72477940650416        2.03142656692780        3.54672294537333
C           -2.39652813561246        1.77607647270273        1.81161069962375
O           -3.23340627881326        2.60910747221333        2.29433387055131
H           -5.03051331358109       -1.20401554599365       -0.56009224254783
H           -4.43571147415552       -1.33207096587757       -2.23520736863450
H           -3.28688352672881       -1.44998075587753       -0.87382803632609
H           -6.48869273945114        1.11358374361236       -0.75192785956200
H           -5.65308844442952        2.38381930020755       -1.67686802908571
H           -6.63240201762349        2.81554942925445       -0.25251322405554
H            0.42297477972529       -0.33774264720987       -1.88505592692617
H           -0.80645280541115       -1.56486623005325       -1.54354842682078
H            0.89334613811895       -2.04132963542562       -1.71671652891032
H            0.38753463470895       -2.22958469467135        1.98115128862453
H           -0.84578424977793       -2.68984400926214        0.79270045748189
H            0.84334817434049       -3.16078632059407        0.54313809103341
H            1.81943955518588        0.47353582848362        0.27983700925138
H            7.57149818437459        0.11865503604061       -1.83768620911097
H            7.85392856961924        1.39591841457561       -0.63840666551172
H            7.96864370594841       -0.31555314227551       -0.17534439631991
H            0.57813266777444        0.37614836765109        2.30861614415221

          :  Hamiltonian                  GFN1-xTB          :
         :: total energy             -83.581057820282 Eh    ::
         :: gradient norm              0.000969213736 Eh/a0 ::
         :: HOMO-LUMO gap              0.030422034243 eV    ::
         :: SCC energy               -84.302106043235 Eh    ::
         :: -> Gsolv                  -0.272570413394 Eh    ::
         :: repulsion energy           0.746687433541 Eh    ::

    * Orbital Energies and Occupations

         #    Occupation            Energy/Eh            Energy/eV
      -------------------------------------------------------------
         1        2.0000           -0.7951379             -21.6368
       ...           ...                  ...                  ...
        56        2.0000           -0.4454936             -12.1225
        57        2.0000           -0.4362491             -11.8709
        58        2.0000           -0.4246765             -11.5560
        59        2.0000           -0.4056444             -11.0381
        60        2.0000           -0.4035351             -10.9807
        61        2.0000           -0.4023228             -10.9478
        62        2.0000           -0.3992636             -10.8645
        63        2.0000           -0.3925716             -10.6824
        64        2.0000           -0.3845968             -10.4654
        65        2.0000           -0.3775771             -10.2744
        66        2.0000           -0.3438880              -9.3577
        67        2.0000           -0.3419299              -9.3044
        68        1.2860           -0.2646256              -7.2008 (HOMO)
        69        0.7140           -0.2635077              -7.1704 (LUMO)
        70                         -0.2060744              -5.6076
        71                         -0.2052541              -5.5852
        72                         -0.1783134              -4.8522
        73                         -0.1352956              -3.6816
        74                         -0.1225663              -3.3352
        75                         -0.1171548              -3.1879
        76                         -0.1142545              -3.1090
        77                         -0.0957931              -2.6067
        78                         -0.0925666              -2.5189
        79                         -0.0756117              -2.0575
       ...                                ...                  ...
       134                          0.7288072              19.8319
      -------------------------------------------------------------
                  HL-Gap            0.0011180 Eh            0.0304 eV

Wiberg/Mayer (AO) data.
largest (>0.10) Wiberg bond orders for each atom

     #   Z sym  total        # sym  WBO       # sym  WBO       # sym  WBO
 ---------------------------------------------------------------------------
     1   6 C    3.902 --    27 H    0.986    26 H    0.983    28 H    0.977
                             2 O    0.924
     2   8 O    2.021 --     3 C    0.958     1 C    0.924
     3   6 C    3.552 --     6 C    1.466     4 O    0.963     2 O    0.958
     4   8 O    2.053 --     3 C    0.963     5 C    0.949
     5   6 C    3.917 --    31 H    0.985    30 H    0.980    29 H    0.980
                             4 O    0.949
     6   6 C    3.938 --     3 C    1.466    24 C    1.113     7 N    1.099
     7   7 N    2.974 --     8 C    1.576     6 C    1.099    21 N    0.112
     8   6 C    3.916 --     7 N    1.576    21 N    1.166     9 C    0.974
     9   6 C    3.953 --    10 C    0.990    11 C    0.983     8 C    0.974
                            12 N    0.946
    10   6 C    3.993 --     9 C    0.990    32 H    0.987    34 H    0.984
                            33 H    0.983
    11   6 C    3.991 --    36 H    0.988    35 H    0.986     9 C    0.983
                            37 H    0.979
    12   7 N    3.123 --    13 C    1.054     9 C    0.946    38 H    0.921
                            14 O    0.100
    13   6 C    3.737 --    14 O    1.436    15 C    1.178    12 N    1.054
    14   8 O    1.673 --    13 C    1.436    12 N    0.100
    15   6 C    3.686 --    16 N    1.369    13 C    1.178    20 O    0.968
    16   7 N    2.720 --    15 C    1.369    17 N    1.183
    17   7 N    2.980 --    18 C    1.630    16 N    1.183
    18   6 C    3.817 --    17 N    1.630    20 O    1.046    19 C    1.023
    19   6 C    3.994 --    18 C    1.023    40 H    0.986    41 H    0.973
                            39 H    0.970
    20   8 O    2.172 --    18 C    1.046    15 C    0.968
    21   7 N    3.385 --     8 C    1.166    22 C    1.036    42 H    0.906
                             7 N    0.112
    22   6 C    3.762 --    23 O    1.420    24 C    1.144    21 N    1.036
    23   8 O    1.640 --    22 C    1.420
    24   6 C    3.806 --    25 O    1.390    22 C    1.144     6 C    1.113
    25   8 O    1.583 --    24 C    1.390
    26   1 H    1.014 --     1 C    0.983
    27   1 H    1.018 --     1 C    0.986
    28   1 H    1.040 --     1 C    0.977
    29   1 H    1.013 --     5 C    0.980
    30   1 H    1.015 --     5 C    0.980
    31   1 H    1.019 --     5 C    0.985
    32   1 H    1.009 --    10 C    0.987
    33   1 H    1.022 --    10 C    0.983
    34   1 H    1.014 --    10 C    0.984
    35   1 H    1.010 --    11 C    0.986
    36   1 H    1.009 --    11 C    0.988
    37   1 H    1.024 --    11 C    0.979
    38   1 H    0.982 --    12 N    0.921
    39   1 H    1.001 --    19 C    0.970
    40   1 H    1.005 --    19 C    0.986
    41   1 H    1.001 --    19 C    0.973
    42   1 H    0.967 --    21 N    0.906
 ---------------------------------------------------------------------------

           -------------------------------------------------
          | TOTAL ENERGY              -83.581057820282 Eh   |
          | GRADIENT NORM               0.000969213736 Eh/α |
          | HOMO-LUMO GAP               0.030422034243 eV   |
           -------------------------------------------------

 * finished run on 2023/06/21 at 17:03:07.584
