   * xtb version 6.5.1 (579679a) compiled by 'ehlert@majestix' on 2022-07-11
          program call               : /lustre/hpc/kemi/ree/PhD/git/ReactivityQM/dep/xtb-6.5.1/bin/xtb --gfn 1 /lustre/hpc/kemi/ree/PhD/git/ReactivityQM/calculations/R03/reac02prodN08/conf04/R03_reac02prodN08_conf04_gfn1.xyz --opt --vfukui --chrg 1 --uhf 0 --alpb DMSO

   ID    Z sym.   atoms
    1    6 C      1, 3, 4, 6, 8-11, 13, 15, 18, 19, 22, 23, 25
    2    8 O      2, 5, 14, 20, 24, 26
    3    7 N      7, 12, 16, 17, 21
    4    1 H      27-46

      * Solvation model:               ALPB
        Solvent                        DMSO
        Solvent mass                       7.8130E+01 g/mol
          :  Hamiltonian                  GFN1-xTB          :
 * total energy  :   -86.2024124 Eh     change       -0.2528353E-08 Eh
 * total energy  :   -86.2202662 Eh     change       -0.1785380E-01 Eh
 * total energy  :   -86.2309691 Eh     change       -0.1070288E-01 Eh
 * total energy  :   -86.2342304 Eh     change       -0.3261312E-02 Eh
 * total energy  :   -86.2370659 Eh     change       -0.2835523E-02 Eh
 * total energy  :   -86.2388028 Eh     change       -0.1736891E-02 Eh
 * total energy  :   -86.2404855 Eh     change       -0.1682751E-02 Eh
 * total energy  :   -86.2423648 Eh     change       -0.1879256E-02 Eh
 * total energy  :   -86.2446928 Eh     change       -0.2327971E-02 Eh
 * total energy  :   -86.2474882 Eh     change       -0.2795411E-02 Eh
 * total energy  :   -86.2660986 Eh     change       -0.2017713E-04 Eh
 * total energy  :   -86.2661158 Eh     change       -0.1722037E-04 Eh
 * total energy  :   -86.2661350 Eh     change       -0.1922807E-04 Eh
 * total energy  :   -86.2661449 Eh     change       -0.9845136E-05 Eh
 * total energy  :   -86.2661519 Eh     change       -0.6996720E-05 Eh
 * total energy  :   -86.2661631 Eh     change       -0.1127126E-04 Eh
 * total energy  :   -86.2661684 Eh     change       -0.5302862E-05 Eh
 * total energy  :   -86.2661743 Eh     change       -0.5823442E-05 Eh
 * total energy  :   -86.2661777 Eh     change       -0.3438037E-05 Eh
   *** GEOMETRY OPTIMIZATION CONVERGED AFTER 74 ITERATIONS ***

 final structure:
================
46
 xtb: 6.5.1 (579679a)
C           -5.29770175461760        0.46297532624258       -2.09301930011798
O           -3.96670360619507        0.73418074189824       -1.65547203400663
C           -3.78202906494766        1.13891555387768       -0.35427559937415
C           -3.27903849444096        2.63196171091216       -0.34660470470713
O           -4.92255527173105        1.00488838906171        0.39351345812178
C           -2.53753196123623        0.48896562007271        0.24509708375339
N           -1.55971333818863        0.14207843834872       -0.52366636058772
C           -0.44653625520476       -0.46401981990873       -0.09892591935717
C            0.65748682326538       -0.54793397085372       -1.11439039902889
C            0.41749257842628       -1.82512885901672       -1.94810252281348
C            0.61153678587790        0.68911870402447       -2.02736775187086
N            1.93692829641037       -0.58436791521838       -0.42000485716430
C            3.12178966017196       -0.74764267865041       -1.08312407804603
O            3.23036554374567       -1.07662145467672       -2.24599595324687
C            4.28139591012185       -0.49554475780074       -0.20353963546574
N            5.54018980618581       -0.56342511017967       -0.50622055406747
N            6.23202367850986       -0.21672586561655        0.61038278564089
C            5.35577362001180        0.04582939858476        1.53086472492145
C            5.60358750646416        0.47429003757578        2.92344974553740
O            4.09971263005788       -0.11330372622862        1.08053816658501
N           -0.44251944608497       -1.06177384423162        1.10087196920949
C            0.50715982112832       -2.09427940949820        1.53795945689328
C           -1.37613948450188       -0.70987592068858        2.10358890672687
O           -1.28093371093348       -1.14470813265354        3.21313559283921
C           -2.40507866177768        0.36421815716843        1.70166301769908
O           -3.06193600620712        0.94656189083247        2.52180422348748
H           -5.93842790455759        1.33729970404974       -1.94738880518299
H           -5.21909135676903        0.22888472071832       -3.15406904284136
H           -5.71529063175402       -0.38865267795383       -1.54836654064542
H           -3.02455153921914        2.95132649519884        0.65967080377181
H           -2.42660982088233        2.73168208893726       -1.01158663045045
H           -4.11995808425447        3.21376937133294       -0.71975089769835
H           -0.60805784549790       -1.82460258380169       -2.31256709858340
H            0.58358682714860       -2.71369136104871       -1.34403319635110
H            1.09921234437565       -1.83302163491670       -2.79620545369715
H            0.74524831439141        1.59201802038532       -1.43575676444448
H            1.41424360297062        0.61456992316153       -2.75911894417878
H           -0.34354042170469        0.73763888378146       -2.54622223108660
H            1.97813657133677       -0.11258886630143        0.46851918776781
H            5.23602003166197       -0.28312361328097        3.61579707310218
H            6.66990310414840        0.62320621962532        3.07861127622918
H            5.06680644690047        1.40068212816875        3.12537944713929
H           -0.07272477100121       -2.93528563422436        1.91614891627793
H            1.12841498778596       -2.40476191663322        0.70758631741914
H            1.11519528628425       -1.68211554936260        2.34184470299488
H           -4.80554074567102        1.26813277879444        1.31934641890041

          :  Hamiltonian                  GFN1-xTB          :
         :: total energy             -86.266177704586 Eh    ::
         :: gradient norm              0.000494851422 Eh/a0 ::
         :: HOMO-LUMO gap              0.429250805535 eV    ::
         :: SCC energy               -87.090305743855 Eh    ::
         :: -> Gsolv                  -0.115399456331 Eh    ::
         :: repulsion energy           0.853744001427 Eh    ::

    * Orbital Energies and Occupations

         #    Occupation            Energy/Eh            Energy/eV
      -------------------------------------------------------------
         1        2.0000           -0.8934971             -24.3133
       ...           ...                  ...                  ...
        58        2.0000           -0.5332100             -14.5094
        59        2.0000           -0.5269433             -14.3389
        60        2.0000           -0.5250784             -14.2881
        61        2.0000           -0.5210363             -14.1781
        62        2.0000           -0.5177846             -14.0896
        63        2.0000           -0.5156333             -14.0311
        64        2.0000           -0.4949892             -13.4693
        65        2.0000           -0.4916158             -13.3775
        66        2.0000           -0.4838478             -13.1662
        67        2.0000           -0.4778847             -13.0039
        68        2.0000           -0.4728643             -12.8673
        69        1.9999           -0.4633725             -12.6090
        70        1.9996           -0.4621670             -12.5762 (HOMO)
        71        0.0006           -0.4463923             -12.1470 (LUMO)
        72                         -0.3592172              -9.7748
        73                         -0.3395042              -9.2384
        74                         -0.3277267              -8.9179
        75                         -0.2655972              -7.2273
        76                         -0.2537457              -6.9048
        77                         -0.2141208              -5.8265
        78                         -0.1649321              -4.4880
        79                         -0.1529829              -4.1629
        80                         -0.1469433              -3.9985
        81                         -0.1459705              -3.9721
       ...                                ...                  ...
       144                          0.7516273              20.4528
      -------------------------------------------------------------
                  HL-Gap            0.0157747 Eh            0.4293 eV

Wiberg/Mayer (AO) data.
largest (>0.10) Wiberg bond orders for each atom

     #   Z sym  total        # sym  WBO       # sym  WBO       # sym  WBO
 ---------------------------------------------------------------------------
     1   6 C    3.864 --    28 H    0.983    29 H    0.974    27 H    0.973
                             2 O    0.900
     2   8 O    2.086 --     3 C    1.001     1 C    0.900
     3   6 C    3.879 --     5 O    1.012     2 O    1.001     6 C    0.940
                             4 C    0.822
     4   6 C    3.951 --    30 H    0.983    31 H    0.983    32 H    0.954
                             3 C    0.822
     5   8 O    1.970 --     3 C    1.012    46 H    0.810
     6   6 C    3.903 --     7 N    1.577    25 C    1.031     3 C    0.940
     7   7 N    3.167 --     6 C    1.577     8 C    1.296
     8   6 C    3.886 --    21 N    1.317     7 N    1.296     9 C    1.007
     9   6 C    3.931 --     8 C    1.007    11 C    0.968    12 N    0.945
                            10 C    0.935
    10   6 C    3.964 --    33 H    0.984    34 H    0.980    35 H    0.967
                             9 C    0.935
    11   6 C    3.977 --    36 H    0.984    38 H    0.981    37 H    0.977
                             9 C    0.968
    12   7 N    3.305 --    13 C    1.189     9 C    0.945    39 H    0.890
                            14 O    0.156
    13   6 C    3.907 --    14 O    1.623    12 N    1.189    15 C    1.004
    14   8 O    1.932 --    13 C    1.623    12 N    0.156
    15   6 C    3.874 --    16 N    1.613    20 O    1.044    13 C    1.004
    16   7 N    3.004 --    15 C    1.613    17 N    1.209
    17   7 N    2.982 --    18 C    1.600    16 N    1.209
    18   6 C    3.862 --    17 N    1.600    20 O    1.072    19 C    1.034
    19   6 C    3.984 --    18 C    1.034    41 H    0.981    42 H    0.963
                            40 H    0.959
    20   8 O    2.316 --    18 C    1.072    15 C    1.044
    21   7 N    3.539 --     8 C    1.317    23 C    1.044    22 C    0.899
    22   6 C    3.883 --    44 H    0.977    43 H    0.967    45 H    0.967
                            21 N    0.899
    23   6 C    3.869 --    24 O    1.781    21 N    1.044    25 C    0.886
    24   8 O    2.031 --    23 C    1.781
    25   6 C    3.875 --    26 O    1.795     6 C    1.031    23 C    0.886
    26   8 O    2.063 --    25 C    1.795
    27   1 H    0.999 --     1 C    0.973
    28   1 H    1.010 --     1 C    0.983
    29   1 H    1.004 --     1 C    0.974
    30   1 H    0.996 --     4 C    0.983
    31   1 H    1.000 --     4 C    0.983
    32   1 H    0.990 --     4 C    0.954
    33   1 H    0.998 --    10 C    0.984
    34   1 H    0.997 --    10 C    0.980
    35   1 H    1.005 --    10 C    0.967
    36   1 H    0.997 --    11 C    0.984
    37   1 H    1.000 --    11 C    0.977
    38   1 H    1.004 --    11 C    0.981
    39   1 H    0.932 --    12 N    0.890
    40   1 H    0.995 --    19 C    0.959
    41   1 H    0.997 --    19 C    0.981
    42   1 H    0.995 --    19 C    0.963
    43   1 H    0.992 --    22 C    0.967
    44   1 H    1.004 --    22 C    0.977
    45   1 H    0.992 --    22 C    0.967
    46   1 H    0.843 --     5 O    0.810
 ---------------------------------------------------------------------------

           -------------------------------------------------
          | TOTAL ENERGY              -86.266177704586 Eh   |
          | GRADIENT NORM               0.000494851422 Eh/α |
          | HOMO-LUMO GAP               0.429250805535 eV   |
           -------------------------------------------------

 * finished run on 2023/06/20 at 15:42:54.070
