   * xtb version 6.5.1 (579679a) compiled by 'ehlert@majestix' on 2022-07-11
          program call               : /lustre/hpc/kemi/ree/PhD/git/ReactivityQM/dep/xtb-6.5.1/bin/xtb --gfn 1 /lustre/hpc/kemi/ree/PhD/git/ReactivityQM/calculations/R01/reac02prodN02/conf12/R01_reac02prodN02_conf12_gfn1.xyz --opt --vfukui --chrg 1 --uhf 0 --alpb DMSO

   ID    Z sym.   atoms
    1    6 C      1, 3-6, 8, 9, 12, 13, 15
    2    7 N      2, 7, 17
    3    8 O      10, 11, 14, 16
    4    1 H      18-33

      * Solvation model:               ALPB
        Solvent                        DMSO
        Solvent mass                       7.8130E+01 g/mol
          :  Hamiltonian                  GFN1-xTB          :
 * total energy  :   -57.8615947 Eh     change       -0.4511946E-11 Eh
 * total energy  :   -57.8700112 Eh     change       -0.8416461E-02 Eh
 * total energy  :   -57.8722514 Eh     change       -0.2240194E-02 Eh
 * total energy  :   -57.8726450 Eh     change       -0.3936480E-03 Eh
 * total energy  :   -57.8729420 Eh     change       -0.2969409E-03 Eh
 * total energy  :   -57.8731191 Eh     change       -0.1771795E-03 Eh
 * total energy  :   -57.8733024 Eh     change       -0.1832233E-03 Eh
 * total energy  :   -57.8734363 Eh     change       -0.1339053E-03 Eh
 * total energy  :   -57.8735043 Eh     change       -0.6803389E-04 Eh
 * total energy  :   -57.8735546 Eh     change       -0.5029139E-04 Eh
 * total energy  :   -57.8738751 Eh     change       -0.1322274E-04 Eh
 * total energy  :   -57.8738843 Eh     change       -0.9169373E-05 Eh
 * total energy  :   -57.8738955 Eh     change       -0.1118450E-04 Eh
 * total energy  :   -57.8739071 Eh     change       -0.1160026E-04 Eh
 * total energy  :   -57.8739190 Eh     change       -0.1192040E-04 Eh
 * total energy  :   -57.8739317 Eh     change       -0.1264858E-04 Eh
 * total energy  :   -57.8739421 Eh     change       -0.1040927E-04 Eh
 * total energy  :   -57.8739489 Eh     change       -0.6823249E-05 Eh
 * total energy  :   -57.8739538 Eh     change       -0.4906043E-05 Eh
   *** GEOMETRY OPTIMIZATION CONVERGED AFTER 29 ITERATIONS ***

 final structure:
================
33
 xtb: 6.5.1 (579679a)
C           -1.44666133417652        2.26723274369751        0.07776112191169
N           -1.52542028680577        1.07975776118360       -0.80641551482083
C           -1.83351048441168       -0.22603383826482       -0.12413058840983
C           -3.04588933664101       -0.08027766891515        0.78848698905378
C           -2.09762949931687       -1.24363155545835       -1.23990337195634
C           -0.55785245987045       -0.60631934537131        0.59162956399986
N            0.54743975836764       -0.11796872046225        0.14327927741432
C            1.74587211988927       -0.48515896816951        0.71482854375426
C            2.96915414258955        0.12806194135122        0.11782571428248
O            4.09726874525166       -0.08546686123418        0.48930945140680
O            2.66876760566741        0.94647590629574       -0.89138067734715
C            3.77458250007885        1.58023807336255       -1.54756369962221
C            1.76916646594446       -1.37027746947261        1.75851623010587
O            2.88182881890987       -1.77469247295317        2.36673765487011
C            0.52123216140301       -1.93918121653835        2.27280284531172
O            0.47732186381115       -2.73420250717046        3.19320614001477
N           -0.61090018523557       -1.49772119630742        1.61656115835947
H           -2.43258389816874        2.48131883910216        0.47784588368732
H           -1.09958903070476        3.09975737988330       -0.52910922073836
H           -0.73906578170082        2.05656408787343        0.87549266561226
H           -0.60188904838026        0.95517953825252       -1.23873823866617
H           -2.20984935612113        1.25221187734913       -1.53609672608750
H           -3.85515202279751        0.40921467702990        0.24956047047640
H           -3.38788643813924       -1.06871979996005        1.09114993674673
H           -2.80461705479622        0.49542042755047        1.67982250407043
H           -2.99999466314489       -0.97278577313932       -1.78481433733116
H           -2.23123990516832       -2.23128472392020       -0.80155226229554
H           -1.25405608354511       -1.27287638117431       -1.92822674501341
H            3.35719999036881        2.14322819648945       -2.37918459274746
H            4.47670627633227        0.82588362061065       -1.91144057427183
H            4.28604457736467        2.25079415877833       -0.85262251257266
H            2.65487759275429       -2.40124707813668        3.07846990890425
H           -1.49367774960772       -1.86349665216041        1.93887800189865

          :  Hamiltonian                  GFN1-xTB          :
         :: total energy             -57.873953810447 Eh    ::
         :: gradient norm              0.000436012760 Eh/a0 ::
         :: HOMO-LUMO gap              3.000704094509 eV    ::
         :: SCC energy               -58.456126404331 Eh    ::
         :: -> Gsolv                  -0.123719748686 Eh    ::
         :: repulsion energy           0.601471167233 Eh    ::

    * Orbital Energies and Occupations

         #    Occupation            Energy/Eh            Energy/eV
      -------------------------------------------------------------
         1        2.0000           -0.8872412             -24.1431
       ...           ...                  ...                  ...
        35        2.0000           -0.5602912             -15.2463
        36        2.0000           -0.5534186             -15.0593
        37        2.0000           -0.5488631             -14.9353
        38        2.0000           -0.5460700             -14.8593
        39        2.0000           -0.5357797             -14.5793
        40        2.0000           -0.5314150             -14.4605
        41        2.0000           -0.5214976             -14.1907
        42        2.0000           -0.5096714             -13.8689
        43        2.0000           -0.5028146             -13.6823
        44        2.0000           -0.4988499             -13.5744
        45        2.0000           -0.4837727             -13.1641
        46        2.0000           -0.4690327             -12.7630
        47        2.0000           -0.4499112             -12.2427 (HOMO)
        48                         -0.3396374              -9.2420 (LUMO)
        49                         -0.3088783              -8.4050
        50                         -0.2539578              -6.9105
        51                         -0.1820635              -4.9542
        52                         -0.1756330              -4.7792
        53                         -0.1717551              -4.6737
        54                         -0.1641754              -4.4674
        55                         -0.1457885              -3.9671
        56                         -0.1429135              -3.8889
        57                         -0.1378116              -3.7500
        58                         -0.1209659              -3.2916
       ...                                ...                  ...
       100                          0.7371857              20.0598
      -------------------------------------------------------------
                  HL-Gap            0.1102738 Eh            3.0007 eV

Wiberg/Mayer (AO) data.
largest (>0.10) Wiberg bond orders for each atom

     #   Z sym  total        # sym  WBO       # sym  WBO       # sym  WBO
 ---------------------------------------------------------------------------
     1   6 C    3.896 --    20 H    0.984    18 H    0.984    19 H    0.980
                             2 N    0.919
     2   7 N    3.602 --     1 C    0.919    22 H    0.891     3 C    0.889
                            21 H    0.873
     3   6 C    3.906 --     4 C    1.000     6 C    0.984     5 C    0.981
                             2 N    0.889
     4   6 C    3.983 --     3 C    1.000    25 H    0.981    23 H    0.979
                            24 H    0.975
     5   6 C    3.980 --    28 H    0.981     3 C    0.981    26 H    0.979
                            27 H    0.978
     6   6 C    3.942 --     7 N    1.586    17 N    1.183     3 C    0.984
     7   7 N    3.054 --     6 C    1.586     8 C    1.162
     8   6 C    3.957 --    13 C    1.504     7 N    1.162     9 C    0.997
     9   6 C    3.856 --    10 O    1.669    11 O    1.113     8 C    0.997
    10   8 O    1.935 --     9 C    1.669    11 O    0.137
    11   8 O    2.197 --     9 C    1.113    12 C    0.892    10 O    0.137
    12   6 C    3.866 --    29 H    0.986    30 H    0.979    31 H    0.979
                            11 O    0.892
    13   6 C    3.922 --     8 C    1.504    14 O    1.127    15 C    1.053
    14   8 O    2.105 --    13 C    1.127    32 H    0.802
    15   6 C    3.906 --    16 O    1.604    17 N    1.118    13 C    1.053
    16   8 O    1.926 --    15 C    1.604    17 N    0.132
    17   7 N    3.467 --     6 C    1.183    15 C    1.118    33 H    0.876
                            16 O    0.132
    18   1 H    0.993 --     1 C    0.984
    19   1 H    0.989 --     1 C    0.980
    20   1 H    0.999 --     1 C    0.984
    21   1 H    0.949 --     2 N    0.873
    22   1 H    0.916 --     2 N    0.891
    23   1 H    0.992 --     4 C    0.979
    24   1 H    0.994 --     4 C    0.975
    25   1 H    0.995 --     4 C    0.981
    26   1 H    0.992 --     5 C    0.979
    27   1 H    0.994 --     5 C    0.978
    28   1 H    0.995 --     5 C    0.981
    29   1 H    1.010 --    12 C    0.986
    30   1 H    1.006 --    12 C    0.979
    31   1 H    1.005 --    12 C    0.979
    32   1 H    0.838 --    14 O    0.802
    33   1 H    0.918 --    17 N    0.876
 ---------------------------------------------------------------------------

           -------------------------------------------------
          | TOTAL ENERGY              -57.873953810447 Eh   |
          | GRADIENT NORM               0.000436012760 Eh/α |
          | HOMO-LUMO GAP               3.000704094509 eV   |
           -------------------------------------------------

 * finished run on 2023/06/20 at 15:03:41.113
