   * xtb version 6.5.1 (579679a) compiled by 'ehlert@majestix' on 2022-07-11
          program call               : /lustre/hpc/kemi/ree/PhD/git/ReactivityQM/dep/xtb-6.5.1/bin/xtb --gfn 1 /lustre/hpc/kemi/ree/PhD/git/ReactivityQM/calculations/R02oxygendeprot/reac01prodE06/conf16/R02oxygendeprot_reac01prodE06_conf16_gfn1.xyz --opt --vfukui --chrg -2 --uhf 0 --alpb DMSO

   ID    Z sym.   atoms
    1    6 C      1, 3, 5, 6, 8, 11-15, 17, 19, 22, 23
    2    8 O      2, 4, 7, 9, 18, 24
    3    7 N      10, 16, 20, 21, 25
    4    1 H      26-42

      * Solvation model:               ALPB
        Solvent                        DMSO
        Solvent mass                       7.8130E+01 g/mol
          :  Hamiltonian                  GFN1-xTB          :
 * total energy  :   -83.6059536 Eh     change       -0.1085141E-09 Eh
 * total energy  :   -83.6179716 Eh     change       -0.1201800E-01 Eh
 * total energy  :   -83.6223873 Eh     change       -0.4415608E-02 Eh
 * total energy  :   -83.6234278 Eh     change       -0.1040571E-02 Eh
 * total energy  :   -83.6239757 Eh     change       -0.5478376E-03 Eh
 * total energy  :   -83.6241978 Eh     change       -0.2220929E-03 Eh
 * total energy  :   -83.6243620 Eh     change       -0.1642890E-03 Eh
 * total energy  :   -83.6245173 Eh     change       -0.1552094E-03 Eh
 * total energy  :   -83.6246756 Eh     change       -0.1583840E-03 Eh
 * total energy  :   -83.6248334 Eh     change       -0.1578077E-03 Eh
 * total energy  :   -83.6257491 Eh     change       -0.1674254E-04 Eh
 * total energy  :   -83.6257585 Eh     change       -0.9400407E-05 Eh
 * total energy  :   -83.6257592 Eh     change       -0.6574484E-06 Eh
 * total energy  :   -83.6257681 Eh     change       -0.8993829E-05 Eh
 * total energy  :   -83.6257778 Eh     change       -0.9623556E-05 Eh
 * total energy  :   -83.6257859 Eh     change       -0.8109341E-05 Eh
 * total energy  :   -83.6257934 Eh     change       -0.7494266E-05 Eh
 * total energy  :   -83.6258001 Eh     change       -0.6735107E-05 Eh
 * total energy  :   -83.6258049 Eh     change       -0.4756600E-05 Eh
   *** GEOMETRY OPTIMIZATION CONVERGED AFTER 43 ITERATIONS ***

 final structure:
================
42
 xtb: 6.5.1 (579679a)
C           -4.46137092001176       -0.79960276103311       -3.23933219757891
O           -4.21109478710542       -0.39573601367206       -1.90722224579669
C           -2.88792820998497       -0.26617983216106       -1.56491351124886
O           -2.02355020984142       -0.50215606675792       -2.41342373059176
C           -2.63197466827755        0.13280034844451       -0.18872410971475
C           -3.68239544506947        0.36980776512692        0.74737501226407
O           -4.92408007462747        0.41783095337420        0.47839584122297
C           -3.24936618249325        0.52308830171188        2.16642222972094
O           -4.02507805182592        0.58281679386449        3.13368825867279
N           -1.89536232314871        0.49114204699842        2.40569772784273
C           -0.91746260439623        0.75846404354388        1.35966498623125
C           -0.74101788002137        2.29811634892968        1.22361589545170
C            0.44145189336397        0.07810848126017        1.75550099326624
C            0.18020243294984       -1.40515390214494        2.06276323582678
C            1.12279455193295        0.75539475766697        2.94887630088452
N            1.27623591262495        0.18328931041242        0.56214291303075
C            2.56792473576575       -0.24512449103973        0.48318533511893
O            3.27094545219903       -0.55383065204886        1.45931767723964
C            3.05001302958830       -0.25053227242245       -0.89025765857441
N            2.35213241120932        0.03947058009840       -1.97312653402586
N            3.19437535123227       -0.12615619615756       -3.03789327826534
C            4.33649771705717       -0.50227413449598       -2.56218509872061
C            5.57232427964533       -0.80088148853038       -3.32528649857697
O            4.33194692503488       -0.60780571254023       -1.21652737514136
N           -1.29905334676831        0.20702798350713        0.09777394829444
H           -3.99562732466657       -1.76880714294837       -3.45364653097235
H           -5.54235725471402       -0.88373928686795       -3.35523845042261
H           -4.07500366310396       -0.06403606066767       -3.95477046757350
H           -1.62810366670216        0.75634810280790        3.34019005861647
H           -1.65081052002451        2.72471135969007        0.80154459709815
H            0.09291625350937        2.51353173352736        0.55783897697209
H           -0.55817351268769        2.75676586777475        2.19317876705194
H           -0.44247039630410       -1.49591112641058        2.95199992514060
H            1.11972581467100       -1.92779821073083        2.23712798768254
H           -0.33696181796460       -1.86713353637118        1.22016860479472
H            1.53247670042855        1.72313425693751        2.66287616212075
H            1.93800540175946        0.13756414281483        3.32313169801121
H            0.40949661211993        0.90112468950282        3.75889417357813
H            0.73229482907114        0.19210551906277       -0.30486239828250
H            5.38330587115002       -0.67470341013340       -4.38855681959527
H            6.37533536637153       -0.12986685091666       -3.02033863641055
H            5.89884231804857       -1.82289923900576       -3.13506476464099

          :  Hamiltonian                  GFN1-xTB          :
         :: total energy             -83.625804868236 Eh    ::
         :: gradient norm              0.000455535023 Eh/a0 ::
         :: HOMO-LUMO gap              0.093925292839 eV    ::
         :: SCC energy               -84.347659064317 Eh    ::
         :: -> Gsolv                  -0.275932685137 Eh    ::
         :: repulsion energy           0.749025042735 Eh    ::

    * Orbital Energies and Occupations

         #    Occupation            Energy/Eh            Energy/eV
      -------------------------------------------------------------
         1        2.0000           -0.8187358             -22.2789
       ...           ...                  ...                  ...
        56        2.0000           -0.4431979             -12.0600
        57        2.0000           -0.4390250             -11.9465
        58        2.0000           -0.4209443             -11.4545
        59        2.0000           -0.4184240             -11.3859
        60        2.0000           -0.4142681             -11.2728
        61        2.0000           -0.4086663             -11.1204
        62        2.0000           -0.4029137             -10.9638
        63        2.0000           -0.3972486             -10.8097
        64        2.0000           -0.3915181             -10.6537
        65        2.0000           -0.3787629             -10.3067
        66        2.0000           -0.3659638              -9.9584
        67        2.0000           -0.3353655              -9.1258
        68        1.7203           -0.2756067              -7.4996 (HOMO)
        69        0.2797           -0.2721550              -7.4057 (LUMO)
        70                         -0.2377340              -6.4691
        71                         -0.2224653              -6.0536
        72                         -0.1648500              -4.4858
        73                         -0.1524500              -4.1484
        74                         -0.1297673              -3.5311
        75                         -0.1130315              -3.0757
        76                         -0.1056668              -2.8753
        77                         -0.0974994              -2.6531
        78                         -0.0864397              -2.3521
        79                         -0.0813807              -2.2145
       ...                                ...                  ...
       134                          0.7370573              20.0564
      -------------------------------------------------------------
                  HL-Gap            0.0034517 Eh            0.0939 eV

Wiberg/Mayer (AO) data.
largest (>0.10) Wiberg bond orders for each atom

     #   Z sym  total        # sym  WBO       # sym  WBO       # sym  WBO
 ---------------------------------------------------------------------------
     1   6 C    3.913 --    27 H    0.987    28 H    0.980    26 H    0.980
                             2 O    0.940
     2   8 O    2.134 --     3 C    1.012     1 C    0.940
     3   6 C    3.818 --     4 O    1.544     5 C    1.120     2 O    1.012
     4   8 O    1.815 --     3 C    1.544
     5   6 C    3.912 --    25 N    1.262     6 C    1.236     3 C    1.120
     6   6 C    3.877 --     7 O    1.407     5 C    1.236     8 C    1.011
     7   8 O    1.657 --     6 C    1.407
     8   6 C    3.861 --     9 O    1.525    10 N    1.158     6 C    1.011
     9   8 O    1.790 --     8 C    1.525    10 N    0.128
    10   7 N    3.253 --     8 C    1.158    11 C    0.929    29 H    0.916
                             9 O    0.128
    11   6 C    3.941 --    25 N    1.029    12 C    0.960    13 C    0.942
                            10 N    0.929
    12   6 C    3.978 --    32 H    0.986    31 H    0.985    30 H    0.985
                            11 C    0.960
    13   6 C    3.935 --    15 C    1.000    14 C    0.990    11 C    0.942
                            16 N    0.938
    14   6 C    3.993 --    13 C    0.990    34 H    0.986    33 H    0.985
                            35 H    0.983
    15   6 C    3.994 --    13 C    1.000    36 H    0.985    38 H    0.983
                            37 H    0.980
    16   7 N    3.274 --    17 C    1.197    13 C    0.938    39 H    0.885
                            18 O    0.146
    17   6 C    3.835 --    18 O    1.481    16 N    1.197    19 C    1.070
    18   8 O    1.760 --    17 C    1.481    16 N    0.146
    19   6 C    3.747 --    20 N    1.483    17 C    1.070    24 O    1.004
    20   7 N    2.853 --    19 C    1.483    21 N    1.185
    21   7 N    2.980 --    22 C    1.626    20 N    1.185
    22   6 C    3.838 --    21 N    1.626    24 O    1.061    23 C    1.025
    23   6 C    3.993 --    22 C    1.025    40 H    0.985    42 H    0.970
                            41 H    0.969
    24   8 O    2.228 --    22 C    1.061    19 C    1.004
    25   7 N    2.694 --     5 C    1.262    11 C    1.029
    26   1 H    1.018 --     1 C    0.980
    27   1 H    1.018 --     1 C    0.987
    28   1 H    1.018 --     1 C    0.980
    29   1 H    0.969 --    10 N    0.916
    30   1 H    1.011 --    12 C    0.985
    31   1 H    1.015 --    12 C    0.985
    32   1 H    1.007 --    12 C    0.986
    33   1 H    1.013 --    14 C    0.985
    34   1 H    1.011 --    14 C    0.986
    35   1 H    1.022 --    14 C    0.983
    36   1 H    1.008 --    15 C    0.985
    37   1 H    1.021 --    15 C    0.980
    38   1 H    1.005 --    15 C    0.983
    39   1 H    1.001 --    16 N    0.885
    40   1 H    1.003 --    23 C    0.985
    41   1 H    1.000 --    23 C    0.969
    42   1 H    1.000 --    23 C    0.970
 ---------------------------------------------------------------------------

           -------------------------------------------------
          | TOTAL ENERGY              -83.625804868236 Eh   |
          | GRADIENT NORM               0.000455535023 Eh/α |
          | HOMO-LUMO GAP               0.093925292839 eV   |
           -------------------------------------------------

 * finished run on 2023/06/21 at 17:08:03.076
