                         Program Version 5.0.1 -  RELEASE  -
|  1> # ORCA input file
|  2> ! SP r2SCAN-3c CPCM
|  3>
|  4> %maxcore 1875.0
|  5> %pal nprocs 4 end
|  6> %cpcm smd true SMDsolvent "DMSO" end
|  7>
|  8> *xyz -1 1
|  9> C       5.385470    1.046889    3.267762
| 10> O       4.338419    0.703493    2.357206
| 11> C       4.599687    0.868994    1.065438
| 12> O       5.671188    1.285141    0.655668
| 13> C       3.476378    0.511743    0.172298
| 14> N       2.329031    0.055002    0.747587
| 15> C       1.305688   -0.275671    0.017658
| 16> C       0.069698   -0.785404    0.775515
| 17> C       0.194132   -0.335666    2.243433
| 18> C       0.138189   -2.322894    0.743099
| 19> N      -1.113639   -0.161628    0.185662
| 20> C      -2.381219   -0.999463   -0.059546
| 21> C      -3.140032   -1.150490    1.298323
| 22> O      -2.183924   -2.107575   -0.709946
| 23> C      -3.214899    0.027014   -0.911958
| 24> N      -2.846450    0.597090   -2.016012
| 25> N      -3.917062    1.344277   -2.465621
| 26> C      -4.862044    1.172505   -1.604101
| 27> C      -6.220778    1.768039   -1.616564
| 28> O      -4.490509    0.352495   -0.600420
| 29> N       1.340964   -0.192374   -1.349160
| 30> C       0.201462   -0.575304   -2.195308
| 31> C       2.442824    0.300439   -2.036295
| 32> O       2.439315    0.415797   -3.258645
| 33> C       3.578653    0.650697   -1.188389
| 34> O       4.669721    1.103316   -1.824765
| 35> H       5.659613    2.097234    3.145684
| 36> H       4.999645    0.870818    4.269591
| 37> H       6.262756    0.422561    3.083646
| 38> H       0.273558    0.749138    2.303507
| 39> H      -0.685514   -0.655367    2.798575
| 40> H       1.078666   -0.771572    2.705793
| 41> H      -0.698744   -2.756438    1.285503
| 42> H       1.066024   -2.631926    1.226741
| 43> H       0.131805   -2.716278   -0.270736
| 44> H      -1.375546    0.632841    0.760041
| 45> H      -3.273630   -0.188886    1.789801
| 46> H      -2.584861   -1.818649    1.952417
| 47> H      -4.116068   -1.590992    1.099146
| 48> H      -6.350252    2.364809   -2.516450
| 49> H      -6.977545    0.984215   -1.588394
| 50> H      -6.359399    2.402150   -0.740963
| 51> H       0.573032   -0.790222   -3.197236
| 52> H      -0.295573   -1.457941   -1.799089
| 53> H      -0.517818    0.245694   -2.239293
| 54> H       5.379586    1.312345   -1.180508
| 55> **                         ****END OF INPUT****

CARTESIAN COORDINATES (ANGSTROEM)
---------------------------------
  C      5.385470    1.046889    3.267762
  O      4.338419    0.703493    2.357206
  C      4.599687    0.868994    1.065438
  O      5.671188    1.285141    0.655668
  C      3.476378    0.511743    0.172298
  N      2.329031    0.055002    0.747587
  C      1.305688   -0.275671    0.017658
  C      0.069698   -0.785404    0.775515
  C      0.194132   -0.335666    2.243433
  C      0.138189   -2.322894    0.743099
  N     -1.113639   -0.161628    0.185662
  C     -2.381219   -0.999463   -0.059546
  C     -3.140032   -1.150490    1.298323
  O     -2.183924   -2.107575   -0.709946
  C     -3.214899    0.027014   -0.911958
  N     -2.846450    0.597090   -2.016012
  N     -3.917062    1.344277   -2.465621
  C     -4.862044    1.172505   -1.604101
  C     -6.220778    1.768039   -1.616564
  O     -4.490509    0.352495   -0.600420
  N      1.340964   -0.192374   -1.349160
  C      0.201462   -0.575304   -2.195308
  C      2.442824    0.300439   -2.036295
  O      2.439315    0.415797   -3.258645
  C      3.578653    0.650697   -1.188389
  O      4.669721    1.103316   -1.824765
  H      5.659613    2.097234    3.145684
  H      4.999645    0.870818    4.269591
  H      6.262756    0.422561    3.083646
  H      0.273558    0.749138    2.303507
  H     -0.685514   -0.655367    2.798575
  H      1.078666   -0.771572    2.705793
  H     -0.698744   -2.756438    1.285503
  H      1.066024   -2.631926    1.226741
  H      0.131805   -2.716278   -0.270736
  H     -1.375546    0.632841    0.760041
  H     -3.273630   -0.188886    1.789801
  H     -2.584861   -1.818649    1.952417
  H     -4.116068   -1.590992    1.099146
  H     -6.350252    2.364809   -2.516450
  H     -6.977545    0.984215   -1.588394
  H     -6.359399    2.402150   -0.740963
  H      0.573032   -0.790222   -3.197236
  H     -0.295573   -1.457941   -1.799089
  H     -0.517818    0.245694   -2.239293
  H      5.379586    1.312345   -1.180508

 Total Charge           Charge          ....   -1
 Multiplicity           Mult            ....    1
 Number of Electrons    NEL             ....  194
 Basis Dimension        Dim             ....  649

ORBITAL ENERGIES
----------------

  NO   OCC          E(Eh)            E(eV)
   0   2.0000     -19.029579      -517.8212
   1   2.0000     -19.005202      -517.1579
   2   2.0000     -18.986671      -516.6536
   3   2.0000     -18.950580      -515.6715
   4   2.0000     -18.916442      -514.7426
   5   2.0000     -18.820034      -512.1192
   6   2.0000     -14.223452      -387.0398
   7   2.0000     -14.169860      -385.5815
   8   2.0000     -14.159820      -385.3083
   9   2.0000     -14.147453      -384.9718
  10   2.0000     -14.107669      -383.8892
  11   2.0000     -10.167457      -276.6706
  12   2.0000     -10.133403      -275.7439
  13   2.0000     -10.115074      -275.2452
  14   2.0000     -10.111506      -275.1481
  15   2.0000     -10.103683      -274.9352
  16   2.0000     -10.093708      -274.6638
  17   2.0000     -10.084558      -274.4148
  18   2.0000     -10.079916      -274.2884
  19   2.0000     -10.077038      -274.2101
  20   2.0000     -10.067003      -273.9371
  21   2.0000     -10.034274      -273.0465
  22   2.0000     -10.031869      -272.9810
  23   2.0000     -10.003151      -272.1996
  24   2.0000     -10.002436      -272.1801
  25   2.0000      -9.988773      -271.8083
  26   2.0000      -1.116218       -30.3738
  27   2.0000      -1.083375       -29.4801
  28   2.0000      -1.040283       -28.3075
  29   2.0000      -1.005456       -27.3598
  30   2.0000      -0.990923       -26.9644
  31   2.0000      -0.949933       -25.8490
  32   2.0000      -0.935176       -25.4474
  33   2.0000      -0.899538       -24.4777
  34   2.0000      -0.872425       -23.7399
  35   2.0000      -0.826894       -22.5009
  36   2.0000      -0.795874       -21.6568
  37   2.0000      -0.755911       -20.5694
  38   2.0000      -0.712843       -19.3975
  39   2.0000      -0.709617       -19.3097
  40   2.0000      -0.689159       -18.7530
  41   2.0000      -0.673919       -18.3383
  42   2.0000      -0.659761       -17.9530
  43   2.0000      -0.641769       -17.4634
  44   2.0000      -0.620783       -16.8924
  45   2.0000      -0.618994       -16.8437
  46   2.0000      -0.603531       -16.4229
  47   2.0000      -0.564512       -15.3612
  48   2.0000      -0.551441       -15.0055
  49   2.0000      -0.544573       -14.8186
  50   2.0000      -0.525618       -14.3028
  51   2.0000      -0.509003       -13.8507
  52   2.0000      -0.497825       -13.5465
  53   2.0000      -0.479104       -13.0371
  54   2.0000      -0.460250       -12.5240
  55   2.0000      -0.458812       -12.4849
  56   2.0000      -0.452234       -12.3059
  57   2.0000      -0.451233       -12.2787
  58   2.0000      -0.440196       -11.9783
  59   2.0000      -0.438708       -11.9379
  60   2.0000      -0.418897       -11.3988
  61   2.0000      -0.406627       -11.0649
  62   2.0000      -0.398949       -10.8560
  63   2.0000      -0.396847       -10.7988
  64   2.0000      -0.391399       -10.6505
  65   2.0000      -0.386172       -10.5083
  66   2.0000      -0.382357       -10.4045
  67   2.0000      -0.376999       -10.2587
  68   2.0000      -0.375586       -10.2202
  69   2.0000      -0.367324        -9.9954
  70   2.0000      -0.361395        -9.8341
  71   2.0000      -0.360354        -9.8057
  72   2.0000      -0.356609        -9.7038
  73   2.0000      -0.351225        -9.5573
  74   2.0000      -0.342412        -9.3175
  75   2.0000      -0.339247        -9.2314
  76   2.0000      -0.333369        -9.0714
  77   2.0000      -0.331486        -9.0202
  78   2.0000      -0.327373        -8.9083
  79   2.0000      -0.324445        -8.8286
  80   2.0000      -0.321304        -8.7431
  81   2.0000      -0.310191        -8.4407
  82   2.0000      -0.305083        -8.3017
  83   2.0000      -0.293851        -7.9961
  84   2.0000      -0.293053        -7.9744
  85   2.0000      -0.281995        -7.6735
  86   2.0000      -0.279434        -7.6038
  87   2.0000      -0.268105        -7.2955
  88   2.0000      -0.257166        -6.9979
  89   2.0000      -0.237115        -6.4522
  90   2.0000      -0.235978        -6.4213
  91   2.0000      -0.229982        -6.2581
  92   2.0000      -0.228283        -6.2119
  93   2.0000      -0.198293        -5.3958
  94   2.0000      -0.170115        -4.6291
  95   2.0000      -0.151958        -4.1350
  96   2.0000      -0.139017        -3.7828
  97   0.0000      -0.085181        -2.3179
  98   0.0000      -0.024895        -0.6774
  99   0.0000      -0.012731        -0.3464
 100   0.0000       0.016625         0.4524
 101   0.0000       0.017485         0.4758

MULLIKEN ATOMIC CHARGES
-----------------------
   0 C :   -0.315041
   1 O :   -0.182601
   2 C :    0.209493
   3 O :   -0.478752
   4 C :    0.082371
   5 N :   -0.117528
   6 C :    0.145060
   7 C :    0.005095
   8 C :   -0.626476
   9 C :   -0.574009
  10 N :   -0.273014
  11 C :   -0.041452
  12 C :   -0.628299
  13 O :   -0.548623
  14 C :    0.143083
  15 N :   -0.095203
  16 N :   -0.418226
  17 C :    0.403190
  18 C :   -0.652210
  19 O :   -0.038810
  20 N :    0.257000
  21 C :   -0.490613
  22 C :    0.103273
  23 O :   -0.446311
  24 C :    0.055553
  25 O :   -0.362096
  26 H :    0.178107
  27 H :    0.178287
  28 H :    0.177964
  29 H :    0.178724
  30 H :    0.174400
  31 H :    0.175746
  32 H :    0.184169
  33 H :    0.160902
  34 H :    0.189757
  35 H :    0.272558
  36 H :    0.161956
  37 H :    0.167189
  38 H :    0.155033
  39 H :    0.195937
  40 H :    0.188525
  41 H :    0.189426
  42 H :    0.176377
  43 H :    0.202297
  44 H :    0.211701
  45 H :    0.366090
Sum of atomic charges:   -1.0000000

LOEWDIN ATOMIC CHARGES
----------------------
   0 C :   -0.034769
   1 O :   -0.561566
   2 C :    0.407348
   3 O :   -0.468888
   4 C :    0.186888
   5 N :   -0.591674
   6 C :    0.369851
   7 C :    0.094246
   8 C :   -0.362048
   9 C :   -0.354342
  10 N :   -0.743442
  11 C :    0.247002
  12 C :   -0.395614
  13 O :   -0.756321
  14 C :    0.406679
  15 N :   -0.402463
  16 N :   -0.408631
  17 C :    0.340126
  18 C :   -0.329260
  19 O :   -0.411950
  20 N :   -0.631768
  21 C :   -0.090356
  22 C :    0.377103
  23 O :   -0.481835
  24 C :    0.278665
  25 O :   -0.450905
  26 H :    0.183385
  27 H :    0.186937
  28 H :    0.182987
  29 H :    0.166217
  30 H :    0.161433
  31 H :    0.167723
  32 H :    0.171290
  33 H :    0.156019
  34 H :    0.173096
  35 H :    0.262130
  36 H :    0.154724
  37 H :    0.157572
  38 H :    0.159055
  39 H :    0.184656
  40 H :    0.182820
  41 H :    0.183046
  42 H :    0.194536
  43 H :    0.214701
  44 H :    0.215653
  45 H :    0.309942

  Mayer bond orders larger than 0.100000
B(  0-C ,  1-O ) :   0.8266 B(  0-C , 26-H ) :   0.9558 B(  0-C , 27-H ) :   0.9616
B(  0-C , 28-H ) :   0.9554 B(  1-O ,  2-C ) :   1.1892 B(  2-C ,  3-O ) :   1.7305
B(  2-C ,  4-C ) :   1.0720 B(  4-C ,  5-N ) :   1.0335 B(  4-C , 24-C ) :   1.2797
B(  5-N ,  6-C ) :   1.6560 B(  5-N ,  7-C ) :  -0.1300 B(  6-C ,  7-C ) :   0.8883
B(  6-C , 20-N ) :   1.2605 B(  7-C ,  8-C ) :   0.9593 B(  7-C ,  9-C ) :   0.9198
B(  7-C , 10-N ) :   0.8467 B(  8-C , 29-H ) :   0.9695 B(  8-C , 30-H ) :   0.9666
B(  8-C , 31-H ) :   0.9771 B(  9-C , 13-O ) :   0.1070 B(  9-C , 32-H ) :   0.9628
B(  9-C , 33-H ) :   0.9550 B(  9-C , 34-H ) :   0.9650 B( 10-N , 11-C ) :   0.8424
B( 10-N , 14-C ) :  -0.1319 B( 10-N , 35-H ) :   0.9006 B( 11-C , 12-C ) :   0.8514
B( 11-C , 13-O ) :   1.4619 B( 11-C , 14-C ) :   0.9349 B( 12-C , 36-H ) :   0.9851
B( 12-C , 37-H ) :   0.9731 B( 12-C , 38-H ) :   0.9813 B( 14-C , 15-N ) :   1.7718
B( 14-C , 19-O ) :   1.1383 B( 15-N , 16-N ) :   1.2007 B( 16-N , 17-C ) :   1.6964
B( 17-C , 18-C ) :   0.8044 B( 17-C , 19-O ) :   1.0372 B( 18-C , 39-H ) :   0.9978
B( 18-C , 40-H ) :   0.9545 B( 18-C , 41-H ) :   0.9497 B( 20-N , 21-C ) :   0.9071
B( 20-N , 22-C ) :   1.0665 B( 21-C , 42-H ) :   0.9411 B( 21-C , 43-H ) :   0.9129
B( 21-C , 44-H ) :   0.9098 B( 22-C , 23-O ) :   1.8978 B( 22-C , 24-C ) :   1.0379
B( 24-C , 25-O ) :   1.1358 B( 25-O , 45-H ) :   0.7802

Dispersion correction           -0.021889192
FINAL SINGLE POINT ENERGY     -1308.622687847047

DIPOLE MOMENT
-------------
                                X             Y             Z
Electronic contribution:     14.68475       7.19212     -13.17184
Nuclear contribution   :    -13.33850      -5.45604      17.68508
                        -----------------------------------------
Total Dipole Moment    :      1.34625       1.73608       4.51324
                        -----------------------------------------
Magnitude (a.u.)       :      5.01953
Magnitude (Debye)      :     12.75864

Rotational constants in cm-1:     0.013439     0.003427     0.003075
Rotational constants in MHz :   402.894912   102.749183    92.196179

                             ****ORCA TERMINATED NORMALLY****
TOTAL RUN TIME: 0 days 0 hours 1 minutes 48 seconds 492 msec
