   * xtb version 6.5.1 (579679a) compiled by 'ehlert@majestix' on 2022-07-11
          program call               : /lustre/hpc/kemi/ree/PhD/git/ReactivityQM/dep/xtb-6.5.1/bin/xtb --gfn 1 /lustre/hpc/kemi/ree/PhD/git/ReactivityQM/calculations/R03/reac02prodE01/conf06/R03_reac02prodE01_conf06_gfn1.xyz --opt --vfukui --chrg -1 --uhf 0 --alpb DMSO

   ID    Z sym.   atoms
    1    6 C      1, 3, 5, 7-10, 12, 13, 15, 18, 19, 22, 23, 25
    2    8 O      2, 4, 14, 20, 24, 26
    3    7 N      6, 11, 16, 17, 21
    4    1 H      27-46

      * Solvation model:               ALPB
        Solvent                        DMSO
        Solvent mass                       7.8130E+01 g/mol
          :  Hamiltonian                  GFN1-xTB          :
 * total energy  :   -87.0292886 Eh     change       -0.1737988E-10 Eh
 * total energy  :   -87.0427037 Eh     change       -0.1341513E-01 Eh
 * total energy  :   -87.0474881 Eh     change       -0.4784364E-02 Eh
 * total energy  :   -87.0485305 Eh     change       -0.1042459E-02 Eh
 * total energy  :   -87.0491931 Eh     change       -0.6625301E-03 Eh
 * total energy  :   -87.0495401 Eh     change       -0.3469762E-03 Eh
 * total energy  :   -87.0497789 Eh     change       -0.2388088E-03 Eh
 * total energy  :   -87.0499157 Eh     change       -0.1367972E-03 Eh
 * total energy  :   -87.0500093 Eh     change       -0.9361188E-04 Eh
 * total energy  :   -87.0500989 Eh     change       -0.8966822E-04 Eh
 * total energy  :   -87.0527565 Eh     change       -0.9259056E-05 Eh
 * total energy  :   -87.0527740 Eh     change       -0.1755842E-04 Eh
 * total energy  :   -87.0527982 Eh     change       -0.2421274E-04 Eh
 * total energy  :   -87.0528077 Eh     change       -0.9446004E-05 Eh
 * total energy  :   -87.0528173 Eh     change       -0.9669082E-05 Eh
 * total energy  :   -87.0528303 Eh     change       -0.1291215E-04 Eh
 * total energy  :   -87.0528354 Eh     change       -0.5191945E-05 Eh
 * total energy  :   -87.0528429 Eh     change       -0.7425666E-05 Eh
 * total energy  :   -87.0528476 Eh     change       -0.4737406E-05 Eh
   *** GEOMETRY OPTIMIZATION CONVERGED AFTER 70 ITERATIONS ***

 final structure:
================
46
 xtb: 6.5.1 (579679a)
C            5.38547036495951        1.04688900963026        3.26776239818796
O            4.33841856051644        0.70349323715859        2.35720625501182
C            4.59968737359510        0.86899443656897        1.06543805752240
O            5.67118809622877        1.28514123672426        0.65566793734309
C            3.47637841487892        0.51174263891621        0.17229751021985
N            2.32903070213404        0.05500190039174        0.74758670179176
C            1.30568842858408       -0.27567101743118        0.01765841460401
C            0.06969797673422       -0.78540427363894        0.77551502350099
C            0.19413200351795       -0.33566569448343        2.24343325013309
C            0.13818861551403       -2.32289430359720        0.74309889811252
N           -1.11363859954203       -0.16162844092936        0.18566234570511
C           -2.38121882616667       -0.99946276261995       -0.05954593591583
C           -3.14003190100171       -1.15048990072780        1.29832318978580
O           -2.18392449138651       -2.10757454878558       -0.70994582632265
C           -3.21489860352074        0.02701403897022       -0.91195829380396
N           -2.84644966030508        0.59708998240452       -2.01601201185052
N           -3.91706198023245        1.34427722815575       -2.46562142928405
C           -4.86204425275425        1.17250528592932       -1.60410085938491
C           -6.22077843760592        1.76803930818305       -1.61656354612797
O           -4.49050872628333        0.35249462619211       -0.60042010304702
N            1.34096406482732       -0.19237380494005       -1.34916039628045
C            0.20146188261455       -0.57530365295466       -2.19530819588371
C            2.44282419237372        0.30043934015409       -2.03629475138327
O            2.43931485853608        0.41579722114411       -3.25864500888676
C            3.57865336457220        0.65069695960489       -1.18838949677297
O            4.66972137473926        1.10331634437842       -1.82476473419309
H            5.65961333007612        2.09723393091568        3.14568382437680
H            4.99964486178471        0.87081765735833        4.26959092340524
H            6.26275584146371        0.42256146275353        3.08364610240045
H            0.27355760450096        0.74913773751700        2.30350657681607
H           -0.68551435694851       -0.65536738990880        2.79857528079365
H            1.07866559168919       -0.77157195145211        2.70579294007396
H           -0.69874355153033       -2.75643754749778        1.28550287750952
H            1.06602435294140       -2.63192571428378        1.22674059255322
H            0.13180510725824       -2.71627779451994       -0.27073644147115
H           -1.37554636828232        0.63284054458450        0.76004089702725
H           -3.27362990147238       -0.18888579055824        1.78980116879764
H           -2.58486074546837       -1.81864850336501        1.95241694865397
H           -4.11606816312984       -1.59099191115326        1.09914587274890
H           -6.35025162617937        2.36480876621742       -2.51645041851833
H           -6.97754483680707        0.98421498526553       -1.58839361821174
H           -6.35939862761042        2.40215019907445       -0.74096303283323
H            0.57303213937835       -0.79022230652620       -3.19723607616378
H           -0.29557321542873       -1.45794095587202       -1.79908871435523
H           -0.51781806689412        0.24569435317601       -2.23929301755859
H            5.37958583512201        1.31234483388218       -1.18050807882941

          :  Hamiltonian                  GFN1-xTB          :
         :: total energy             -87.052847610716 Eh    ::
         :: gradient norm              0.000614055660 Eh/a0 ::
         :: HOMO-LUMO gap              0.936156202016 eV    ::
         :: SCC energy               -87.840894231886 Eh    ::
         :: -> Gsolv                  -0.115498326897 Eh    ::
         :: repulsion energy           0.818186468168 Eh    ::

    * Orbital Energies and Occupations

         #    Occupation            Energy/Eh            Energy/eV
      -------------------------------------------------------------
         1        2.0000           -0.8371989             -22.7813
       ...           ...                  ...                  ...
        59        2.0000           -0.4653632             -12.6632
        60        2.0000           -0.4618552             -12.5677
        61        2.0000           -0.4539023             -12.3513
        62        2.0000           -0.4491332             -12.2215
        63        2.0000           -0.4433375             -12.0638
        64        2.0000           -0.4381592             -11.9229
        65        2.0000           -0.4281804             -11.6514
        66        2.0000           -0.4182102             -11.3801
        67        2.0000           -0.4133753             -11.2485
        68        2.0000           -0.4107396             -11.1768
        69        2.0000           -0.3763897             -10.2421
        70        2.0000           -0.3560096              -9.6875
        71        2.0000           -0.3472915              -9.4503 (HOMO)
        72                         -0.3128883              -8.5141 (LUMO)
        73                         -0.2643989              -7.1947
        74                         -0.2307313              -6.2785
        75                         -0.2295972              -6.2477
        76                         -0.2144910              -5.8366
        77                         -0.1442751              -3.9259
        78                         -0.1352233              -3.6796
        79                         -0.1302192              -3.5434
        80                         -0.1077096              -2.9309
        81                         -0.1008043              -2.7430
        82                         -0.0983462              -2.6761
       ...                                ...                  ...
       144                          0.7193747              19.5752
      -------------------------------------------------------------
                  HL-Gap            0.0344031 Eh            0.9362 eV

Wiberg/Mayer (AO) data.
largest (>0.10) Wiberg bond orders for each atom

     #   Z sym  total        # sym  WBO       # sym  WBO       # sym  WBO
 ---------------------------------------------------------------------------
     1   6 C    3.871 --    28 H    0.986    27 H    0.979    29 H    0.979
                             2 O    0.897
     2   8 O    2.213 --     3 C    1.127     1 C    0.897     4 O    0.127
     3   6 C    3.843 --     4 O    1.603     2 O    1.127     5 C    1.023
     4   8 O    1.933 --     3 C    1.603     2 O    0.127
     5   6 C    3.967 --    25 C    1.473     6 N    1.198     3 C    1.023
     6   7 N    3.022 --     7 C    1.544     5 C    1.198
     7   6 C    3.911 --     6 N    1.544    21 N    1.186     8 C    0.962
     8   6 C    3.965 --     9 C    0.991    11 N    0.979    10 C    0.978
                             7 C    0.962
     9   6 C    3.996 --     8 C    0.991    30 H    0.985    31 H    0.984
                            32 H    0.983
    10   6 C    3.993 --    34 H    0.985     8 C    0.978    33 H    0.977
                            35 H    0.977
    11   7 N    2.986 --     8 C    0.979    36 H    0.948    12 C    0.842
    12   6 C    3.932 --    14 O    1.214    13 C    0.943    15 C    0.878
                            11 N    0.842
    13   6 C    3.992 --    37 H    0.989    39 H    0.984    38 H    0.981
                            12 C    0.943
    14   8 O    1.564 --    12 C    1.214
    15   6 C    3.806 --    16 N    1.654    20 O    1.049    12 C    0.878
    16   7 N    2.996 --    15 C    1.654    17 N    1.149
    17   7 N    2.976 --    18 C    1.655    16 N    1.149
    18   6 C    3.885 --    17 N    1.655    20 O    1.061    19 C    1.024
    19   6 C    3.992 --    18 C    1.024    40 H    0.985    41 H    0.971
                            42 H    0.969
    20   8 O    2.296 --    18 C    1.061    15 C    1.049
    21   7 N    3.522 --     7 C    1.186    23 C    1.134    22 C    0.921
                            24 O    0.137
    22   6 C    3.912 --    43 H    0.980    45 H    0.967    44 H    0.966
                            21 N    0.921
    23   6 C    3.919 --    24 O    1.556    21 N    1.134    25 C    1.078
    24   8 O    1.874 --    23 C    1.556    21 N    0.137
    25   6 C    3.920 --     5 C    1.473    26 O    1.102    23 C    1.078
    26   8 O    2.073 --    25 C    1.102    46 H    0.790
    27   1 H    1.007 --     1 C    0.979
    28   1 H    1.011 --     1 C    0.986
    29   1 H    1.007 --     1 C    0.979
    30   1 H    1.009 --     9 C    0.985
    31   1 H    1.008 --     9 C    0.984
    32   1 H    1.017 --     9 C    0.983
    33   1 H    1.021 --    10 C    0.977
    34   1 H    1.008 --    10 C    0.985
    35   1 H    1.029 --    10 C    0.977
    36   1 H    0.978 --    11 N    0.948
    37   1 H    1.009 --    13 C    0.989
    38   1 H    1.016 --    13 C    0.981
    39   1 H    1.016 --    13 C    0.984
    40   1 H    1.002 --    19 C    0.985
    41   1 H    1.001 --    19 C    0.971
    42   1 H    1.001 --    19 C    0.969
    43   1 H    1.014 --    22 C    0.980
    44   1 H    1.040 --    22 C    0.966
    45   1 H    1.050 --    22 C    0.967
    46   1 H    0.860 --    26 O    0.790
 ---------------------------------------------------------------------------

           -------------------------------------------------
          | TOTAL ENERGY              -87.052847610716 Eh   |
          | GRADIENT NORM               0.000614055660 Eh/α |
          | HOMO-LUMO GAP               0.936156202016 eV   |
           -------------------------------------------------

 * finished run on 2023/06/20 at 15:15:10.471
