   * xtb version 6.5.1 (579679a) compiled by 'ehlert@majestix' on 2022-07-11
          program call               : /lustre/hpc/kemi/ree/PhD/git/ReactivityQM/dep/xtb-6.5.1/bin/xtb --gfn 1 /lustre/hpc/kemi/ree/PhD/git/ReactivityQM/calculations/RaltegravirCLI/reac01prodN06/conf02/RaltegravirCLI_reac01prodN06_conf02_gfn1.xyz --opt --vfukui --chrg 1 --uhf 0 --alpb DMSO

   ID    Z sym.   atoms
    1    6 C      1, 2, 5-7
    2    7 N      3, 4
    3    8 O      8, 10
    4   17 Cl     9
    5    1 H      11-16

      * Solvation model:               ALPB
        Solvent                        DMSO
        Solvent mass                       7.8130E+01 g/mol
          :  Hamiltonian                  GFN1-xTB          :
 * total energy  :   -33.2657707 Eh     change       -0.7420908E-10 Eh
 * total energy  :   -33.2761094 Eh     change       -0.1033875E-01 Eh
 * total energy  :   -33.2816600 Eh     change       -0.5550646E-02 Eh
 * total energy  :   -33.2915404 Eh     change       -0.9880386E-02 Eh
 * total energy  :   -33.2941301 Eh     change       -0.2589667E-02 Eh
 * total energy  :   -33.2965444 Eh     change       -0.2414336E-02 Eh
 * total energy  :   -33.2981876 Eh     change       -0.1643130E-02 Eh
 * total energy  :   -33.3002175 Eh     change       -0.2029889E-02 Eh
 * total energy  :   -33.3067797 Eh     change       -0.6562291E-02 Eh
 * total energy  :   -33.3201267 Eh     change       -0.1334699E-01 Eh
 * total energy  :   -33.3920770 Eh     change       -0.1551260E-04 Eh
 * total energy  :   -33.3918445 Eh     change        0.2324713E-03 Eh
 * total energy  :   -33.3920885 Eh     change       -0.2440286E-03 Eh
 * total energy  :   -33.3920943 Eh     change       -0.5771200E-05 Eh
 * total energy  :   -33.3921203 Eh     change       -0.2594571E-04 Eh
 * total energy  :   -33.3921298 Eh     change       -0.9579467E-05 Eh
 * total energy  :   -33.3921360 Eh     change       -0.6132688E-05 Eh
 * total energy  :   -33.3921404 Eh     change       -0.4420252E-05 Eh
 * total energy  :   -33.3921430 Eh     change       -0.2576092E-05 Eh
   *** GEOMETRY OPTIMIZATION CONVERGED AFTER 61 ITERATIONS ***

 final structure:
================
16
 xtb: 6.5.1 (579679a)
C            2.70792468148747       -0.15680882829912       -0.16832380504977
C            1.30908862183491       -0.02479479368270        0.20429081263707
N            0.84248175174974        0.17283851285415        1.48534353333907
N           -0.41390105998512        0.22743644279808        1.43427061575956
C           -0.85153567959934        0.08718970823477        0.09520407816370
C           -1.63126782394079        1.42690378619649       -0.27733405015873
C           -1.81752334387731       -1.07764843376149       -0.13705637273756
O           -2.61362413930982        1.68199996382110        0.33054616093041
Cl          -0.97432584731135        2.31576732872746       -1.53745719935375
O            0.34045572557009       -0.07225052811665       -0.63371538530782
H            3.23240384656686        0.77086460668957        0.08114147149792
H            2.81259285109602       -0.37503339018968       -1.22912594613052
H            3.16884362988810       -0.94012489451233        0.43952492649984
H           -2.71459189548429       -0.90962532834489        0.45586207595585
H           -1.32860426046300       -1.99989796234126        0.16903461192378
H           -2.06841605822236       -1.12681719007346       -1.19382852796926

          :  Hamiltonian                  GFN1-xTB          :
         :: total energy             -33.392142960857 Eh    ::
         :: gradient norm              0.000846715013 Eh/a0 ::
         :: HOMO-LUMO gap              2.003894136123 eV    ::
         :: SCC energy               -33.670532376566 Eh    ::
         :: -> Gsolv                  -0.085887551498 Eh    ::
         :: repulsion energy           0.286323786337 Eh    ::

    * Orbital Energies and Occupations

         #    Occupation            Energy/Eh            Energy/eV
      -------------------------------------------------------------
         1        2.0000           -1.0029051             -27.2904
       ...           ...                  ...                  ...
        15        2.0000           -0.6378729             -17.3574
        16        2.0000           -0.6143954             -16.7186
        17        2.0000           -0.6058066             -16.4848
        18        2.0000           -0.6037742             -16.4295
        19        2.0000           -0.5864537             -15.9582
        20        2.0000           -0.5828711             -15.8607
        21        2.0000           -0.5761057             -15.6766
        22        2.0000           -0.5714623             -15.5503
        23        2.0000           -0.5680682             -15.4579
        24        2.0000           -0.5351224             -14.5614
        25        2.0000           -0.5326193             -14.4933
        26        2.0000           -0.5243345             -14.2679
        27        2.0000           -0.5128218             -13.9546 (HOMO)
        28                         -0.4391800             -11.9507 (LUMO)
        29                         -0.3559100              -9.6848
        30                         -0.3405737              -9.2675
        31                         -0.2496636              -6.7937
        32                         -0.1823992              -4.9633
        33                         -0.1648752              -4.4865
        34                         -0.1346421              -3.6638
        35                         -0.1278662              -3.4794
        36                         -0.1265156              -3.4427
        37                         -0.1143655              -3.1120
        38                         -0.1106993              -3.0123
       ...                                ...                  ...
        57                          0.7137257              19.4215
      -------------------------------------------------------------
                  HL-Gap            0.0736418 Eh            2.0039 eV

Wiberg/Mayer (AO) data.
largest (>0.10) Wiberg bond orders for each atom

     #   Z sym  total        # sym  WBO       # sym  WBO       # sym  WBO
 ---------------------------------------------------------------------------
     1   6 C    3.961 --     2 C    1.092    12 H    0.970    13 H    0.918
                            11 H    0.907
     2   6 C    3.798 --    10 O    1.294     3 N    1.178     1 C    1.092
     3   7 N    3.024 --     4 N    1.677     2 C    1.178
     4   7 N    3.013 --     3 N    1.677     5 C    1.078
     5   6 C    3.842 --     4 N    1.078     7 C    0.906    10 O    0.905
                             6 C    0.791
     6   6 C    3.878 --     8 O    1.832     9 Cl   1.147     5 C    0.791
     7   6 C    3.941 --    16 H    0.977    14 H    0.974    15 H    0.973
                             5 C    0.906
     8   8 O    2.130 --     6 C    1.832     9 Cl   0.158
     9  17 Cl   1.400 --     6 C    1.147     8 O    0.158
    10   8 O    2.381 --     2 C    1.294     5 C    0.905
    11   1 H    0.975 --     1 C    0.907
    12   1 H    0.983 --     1 C    0.970
    13   1 H    0.976 --     1 C    0.918
    14   1 H    0.992 --     7 C    0.974
    15   1 H    0.988 --     7 C    0.973
    16   1 H    0.989 --     7 C    0.977
 ---------------------------------------------------------------------------

           -------------------------------------------------
          | TOTAL ENERGY              -33.392142960857 Eh   |
          | GRADIENT NORM               0.000846715013 Eh/α |
          | HOMO-LUMO GAP               2.003894136123 eV   |
           -------------------------------------------------

 * finished run on 2023/06/20 at 14:55:29.377
