   * xtb version 6.5.1 (579679a) compiled by 'ehlert@majestix' on 2022-07-11
          program call               : /lustre/hpc/kemi/ree/PhD/git/ReactivityQM/dep/xtb-6.5.1/bin/xtb --gfn 1 /lustre/hpc/kemi/ree/PhD/git/ReactivityQM/calculations/R02deprot/reac01prodE11/conf20/R02deprot_reac01prodE11_conf20_gfn1.xyz --opt --vfukui --chrg -2 --uhf 0 --alpb DMSO

   ID    Z sym.   atoms
    1    6 C      1, 3, 5, 7-10, 12, 14, 17-19, 22, 24
    2    8 O      2, 4, 13, 20, 23, 25
    3    7 N      6, 11, 15, 16, 21
    4    1 H      26-42

      * Solvation model:               ALPB
        Solvent                        DMSO
        Solvent mass                       7.8130E+01 g/mol
          :  Hamiltonian                  GFN1-xTB          :
 * total energy  :   -83.6380732 Eh     change       -0.3019807E-10 Eh
 * total energy  :   -83.6501197 Eh     change       -0.1204648E-01 Eh
 * total energy  :   -83.6537025 Eh     change       -0.3582824E-02 Eh
 * total energy  :   -83.6543382 Eh     change       -0.6357108E-03 Eh
 * total energy  :   -83.6547531 Eh     change       -0.4149007E-03 Eh
 * total energy  :   -83.6549656 Eh     change       -0.2124367E-03 Eh
 * total energy  :   -83.6551993 Eh     change       -0.2336805E-03 Eh
 * total energy  :   -83.6553713 Eh     change       -0.1720224E-03 Eh
 * total energy  :   -83.6555005 Eh     change       -0.1291882E-03 Eh
 * total energy  :   -83.6556052 Eh     change       -0.1046975E-03 Eh
 * total energy  :   -83.6564690 Eh     change       -0.3243129E-04 Eh
 * total energy  :   -83.6564849 Eh     change       -0.1589197E-04 Eh
 * total energy  :   -83.6564995 Eh     change       -0.1453889E-04 Eh
 * total energy  :   -83.6565115 Eh     change       -0.1203851E-04 Eh
 * total energy  :   -83.6565213 Eh     change       -0.9847570E-05 Eh
 * total energy  :   -83.6565344 Eh     change       -0.1301830E-04 Eh
 * total energy  :   -83.6565472 Eh     change       -0.1279840E-04 Eh
 * total energy  :   -83.6565539 Eh     change       -0.6708088E-05 Eh
 * total energy  :   -83.6565585 Eh     change       -0.4655603E-05 Eh
   *** GEOMETRY OPTIMIZATION CONVERGED AFTER 37 ITERATIONS ***

 final structure:
================
42
 xtb: 6.5.1 (579679a)
C            4.80828642123823       -1.28749194244816        3.30903976606734
O            4.58211193530770       -0.59005036662332        2.09005654524189
C            3.31873103144660       -0.60231994356388        1.62072868103627
O            2.42801104898632       -1.18111552016336        2.21324271993873
C            3.15043179568089        0.13662359801339        0.35120765908502
N            1.86828124318175        0.16361502550353       -0.13099087791253
C            1.65007108658016        0.79463745406709       -1.26228562903124
C            0.22466214235923        0.84171409971952       -1.80934783532445
C            0.22994242831528        0.23249308852563       -3.22145395351396
C           -0.20807698304414        2.31992984365620       -1.86985797498823
N           -0.64107838328301        0.06805184173734       -0.93355692486190
C           -2.02901023321319        0.08720205942079       -1.06058349627457
O           -2.58938327100903        0.43261487055914       -2.12242438935643
C           -2.68205860857623       -0.37540422372743        0.11228767688740
N           -2.08496547981905       -0.71130482258723        1.24380101820077
N           -2.95059362042859       -1.07624964732080        2.14924030289011
C           -4.28664304930733       -0.96624298555108        1.54368466292731
C           -4.96947812434656       -2.34611378775257        1.53203485348306
C           -5.13623611397169        0.04783630238510        2.33105484932649
O           -4.08139482192547       -0.50760742226620        0.21592585492851
N            2.55443407132580        1.43087658097216       -2.01669632360495
C            3.83923986640327        1.45255973811320       -1.60662246658812
O            4.77125380522537        2.01366645376701       -2.22397284223051
C            4.14731521998297        0.76373443411069       -0.35036225089880
O            5.45082894518956        0.81057768211710        0.01498910941721
H            4.58294103924653       -2.35192309776140        3.19101851114594
H            4.18432048445071       -0.87759627911422        4.10876674885331
H            5.86011034591569       -1.15765393813293        3.55633121760064
H            0.49961472563034       -0.82289077160404       -3.16855066716798
H            0.96257491795119        0.75351006305443       -3.83769105080697
H           -0.75249020808183        0.32325292606658       -3.68280355519231
H            0.52541738710703        2.88345525236868       -2.44610310046325
H           -0.25962999032628        2.73644619592752       -0.86350989700024
H           -1.18312454720909        2.41766526319461       -2.34523728180282
H           -0.28990964145891       -0.02866408630063        0.01730883426254
H           -5.07354774721222       -2.71192830096093        2.55136415465582
H           -4.35911578746652       -3.04638067668978        0.96378890299531
H           -5.95355799118004       -2.27803446689101        1.07182564946431
H           -4.63182369051813        1.01297934791945        2.33842147171520
H           -5.26282235338781       -0.29482962193836        3.35581148872828
H           -6.11415268696743        0.16172254827964        1.86647773540743
H            5.90051239120518        1.32864023191288       -0.68652889722943

          :  Hamiltonian                  GFN1-xTB          :
         :: total energy             -83.656558522462 Eh    ::
         :: gradient norm              0.000802939065 Eh/a0 ::
         :: HOMO-LUMO gap              0.899546539550 eV    ::
         :: SCC energy               -84.387408558293 Eh    ::
         :: -> Gsolv                  -0.262054436164 Eh    ::
         :: repulsion energy           0.756071671692 Eh    ::

    * Orbital Energies and Occupations

         #    Occupation            Energy/Eh            Energy/eV
      -------------------------------------------------------------
         1        2.0000           -0.8115237             -22.0827
       ...           ...                  ...                  ...
        56        2.0000           -0.4441582             -12.0862
        57        2.0000           -0.4396041             -11.9622
        58        2.0000           -0.4270220             -11.6199
        59        2.0000           -0.4242842             -11.5454
        60        2.0000           -0.4103759             -11.1669
        61        2.0000           -0.4056602             -11.0386
        62        2.0000           -0.3947989             -10.7430
        63        2.0000           -0.3885306             -10.5725
        64        2.0000           -0.3786873             -10.3046
        65        2.0000           -0.3645040              -9.9187
        66        2.0000           -0.3640435              -9.9061
        67        2.0000           -0.3613853              -9.8338
        68        2.0000           -0.3044746              -8.2852 (HOMO)
        69                         -0.2714169              -7.3856 (LUMO)
        70                         -0.2272267              -6.1832
        71                         -0.2181501              -5.9362
        72                         -0.1837820              -5.0010
        73                         -0.1271401              -3.4597
        74                         -0.1157574              -3.1499
        75                         -0.1005681              -2.7366
        76                         -0.0980284              -2.6675
        77                         -0.0944183              -2.5693
        78                         -0.0905825              -2.4649
        79                         -0.0886906              -2.4134
       ...                                ...                  ...
       134                          0.7446015              20.2616
      -------------------------------------------------------------
                  HL-Gap            0.0330577 Eh            0.8995 eV

Wiberg/Mayer (AO) data.
largest (>0.10) Wiberg bond orders for each atom

     #   Z sym  total        # sym  WBO       # sym  WBO       # sym  WBO
 ---------------------------------------------------------------------------
     1   6 C    3.891 --    28 H    0.987    26 H    0.980    27 H    0.980
                             2 O    0.916
     2   8 O    2.178 --     3 C    1.074     1 C    0.916     4 O    0.121
     3   6 C    3.835 --     4 O    1.631     2 O    1.074     5 C    1.032
     4   8 O    1.894 --     3 C    1.631     2 O    0.121
     5   6 C    3.963 --    24 C    1.477     6 N    1.199     3 C    1.032
     6   7 N    3.011 --     7 C    1.475     5 C    1.199
     7   6 C    3.952 --     6 N    1.475    21 N    1.344     8 C    0.974
     8   6 C    3.955 --     9 C    0.985    10 C    0.978     7 C    0.974
                            11 N    0.955
     9   6 C    3.995 --    29 H    0.987    30 H    0.986     8 C    0.985
                            31 H    0.982
    10   6 C    3.994 --    33 H    0.987    32 H    0.986    34 H    0.983
                             8 C    0.978
    11   7 N    3.213 --    12 C    1.102     8 C    0.955    35 H    0.906
                            13 O    0.109
    12   6 C    3.926 --    13 O    1.452    14 C    1.201    11 N    1.102
    13   8 O    1.791 --    12 C    1.452    11 N    0.109
    14   6 C    3.847 --    15 N    1.417    12 C    1.201    20 O    0.929
                            16 N    0.169
    15   7 N    3.045 --    16 N    1.438    14 C    1.417
    16   7 N    2.859 --    15 N    1.438    17 C    0.984    14 C    0.169
    17   6 C    3.902 --    16 N    0.984    19 C    0.976    18 C    0.976
                            20 O    0.930
    18   6 C    3.994 --    36 H    0.988    38 H    0.987    37 H    0.986
                            17 C    0.976
    19   6 C    3.995 --    40 H    0.988    41 H    0.987    39 H    0.986
                            17 C    0.976
    20   8 O    2.051 --    17 C    0.930    14 C    0.929
    21   7 N    2.984 --     7 C    1.344    22 C    1.269    23 O    0.127
    22   6 C    3.932 --    23 O    1.453    21 N    1.269    24 C    1.075
    23   8 O    1.792 --    22 C    1.453    21 N    0.127
    24   6 C    3.904 --     5 C    1.477    22 C    1.075    25 O    1.065
    25   8 O    2.042 --    24 C    1.065    42 H    0.816
    26   1 H    1.011 --     1 C    0.980
    27   1 H    1.012 --     1 C    0.980
    28   1 H    1.014 --     1 C    0.987
    29   1 H    1.011 --     9 C    0.987
    30   1 H    1.020 --     9 C    0.986
    31   1 H    1.024 --     9 C    0.982
    32   1 H    1.018 --    10 C    0.986
    33   1 H    1.008 --    10 C    0.987
    34   1 H    1.018 --    10 C    0.983
    35   1 H    1.003 --    11 N    0.906
    36   1 H    1.012 --    18 C    0.988
    37   1 H    1.016 --    18 C    0.986
    38   1 H    1.009 --    18 C    0.987
    39   1 H    1.016 --    19 C    0.986
    40   1 H    1.011 --    19 C    0.988
    41   1 H    1.009 --    19 C    0.987
    42   1 H    0.880 --    25 O    0.816
 ---------------------------------------------------------------------------

           -------------------------------------------------
          | TOTAL ENERGY              -83.656558522462 Eh   |
          | GRADIENT NORM               0.000802939065 Eh/α |
          | HOMO-LUMO GAP               0.899546539550 eV   |
           -------------------------------------------------

 * finished run on 2023/06/20 at 17:55:14.240
