   * xtb version 6.5.1 (579679a) compiled by 'ehlert@majestix' on 2022-07-11
          program call               : /lustre/hpc/kemi/ree/PhD/git/ReactivityQM/dep/xtb-6.5.1/bin/xtb --gfn 1 /lustre/hpc/kemi/ree/PhD/git/ReactivityQM/calculations/R02methylcation/reac01prodN05/conf14/R02methylcation_reac01prodN05_conf14_gfn1.xyz --opt --vfukui --chrg 0 --uhf 0 --alpb DMSO

   ID    Z sym.   atoms
    1    6 C      1, 3, 5, 6, 8, 11-14, 16, 18, 21, 22, 25
    2    8 O      2, 4, 7, 9, 17, 23
    3    7 N      10, 15, 19, 20, 24
    4    1 H      26-42

      * Solvation model:               ALPB
        Solvent                        DMSO
        Solvent mass                       7.8130E+01 g/mol
          :  Hamiltonian                  GFN1-xTB          :
 * total energy  :   -82.9713534 Eh     change       -0.2818012E-10 Eh
 * total energy  :   -82.9840573 Eh     change       -0.1270388E-01 Eh
 * total energy  :   -82.9894123 Eh     change       -0.5355050E-02 Eh
 * total energy  :   -82.9906610 Eh     change       -0.1248634E-02 Eh
 * total energy  :   -82.9913591 Eh     change       -0.6981164E-03 Eh
 * total energy  :   -82.9916534 Eh     change       -0.2942913E-03 Eh
 * total energy  :   -82.9918111 Eh     change       -0.1576935E-03 Eh
 * total energy  :   -82.9919259 Eh     change       -0.1148401E-03 Eh
 * total energy  :   -82.9920312 Eh     change       -0.1053435E-03 Eh
 * total energy  :   -82.9921499 Eh     change       -0.1186730E-03 Eh
 * total energy  :   -82.9928203 Eh     change       -0.7940116E-05 Eh
 * total energy  :   -82.9928283 Eh     change       -0.7961850E-05 Eh
 * total energy  :   -82.9928367 Eh     change       -0.8461064E-05 Eh
 * total energy  :   -82.9928486 Eh     change       -0.1180939E-04 Eh
 * total energy  :   -82.9928625 Eh     change       -0.1391237E-04 Eh
 * total energy  :   -82.9928722 Eh     change       -0.9699678E-05 Eh
 * total energy  :   -82.9928797 Eh     change       -0.7519156E-05 Eh
 * total energy  :   -82.9928805 Eh     change       -0.8366414E-06 Eh
 * total energy  :   -82.9928846 Eh     change       -0.4079099E-05 Eh
   *** GEOMETRY OPTIMIZATION CONVERGED AFTER 37 ITERATIONS ***

 final structure:
================
42
 xtb: 6.5.1 (579679a)
C           -5.04834080486872        3.00344085059614        0.25698687186900
O           -4.59975224451454        1.64960788930858        0.19471751722544
C           -3.27673754542544        1.46515107817718        0.20083245717896
O           -2.50245670906271        2.40680945202524        0.26706999237000
C           -2.88573226524908        0.05355976362980        0.07393592839865
C           -3.77507464248983       -0.89975314320370       -0.49657177172821
O           -4.95924628789958       -0.71149984200291       -0.77622685198281
C           -3.17021116434527       -2.24395127044150       -0.81374769240870
O           -3.77087964684679       -3.19588118270316       -1.26587643543260
N           -1.80373479066027       -2.34267544347321       -0.59455218999538
C           -1.01118628412935       -1.42816775035921        0.00956711846718
C            0.43975814028743       -1.84314959794866        0.23525283483497
C            0.58215222818426       -2.43378535189609        1.64752564682922
C            0.89613161808884       -2.88875591961935       -0.79579012138390
N            1.27487284623908       -0.65690097009773        0.03567021915596
C            2.59065244066826       -0.59984888703723        0.37731825876435
O            3.18598461881612       -1.40847640765199        1.05901607833364
C            3.20425796682121        0.63191871216100       -0.17481533344948
N            2.60966257642727        1.50793784716868       -0.92885255658908
N            3.52915149881843        2.47001783100421       -1.21209501989677
C            4.62833688054411        2.11967607760949       -0.61353795764594
C            5.92510919707453        2.83076659749000       -0.61151380899535
O            4.48510131240468        0.96706579007843        0.05649503858468
N           -1.55517586022218       -0.28792547180045        0.38129509688055
C           -0.81572151174007        0.64289200512346        1.24711170144310
H           -4.68874780803637        3.47843728260752        1.17297739655903
H           -4.68145264726891        3.56524653377721       -0.60564531142797
H           -6.13661127929098        2.97265446916635        0.25177674307275
H           -1.40879477841667       -3.23260967080602       -0.85674123688761
H           -0.22358453671389       -3.14751816166396        1.81127379034269
H            1.53393538149689       -2.95257214699683        1.73672274240974
H            0.53383202412805       -1.66342250890866        2.41328921895766
H            1.97415181944015       -3.00976134505126       -0.70043764800154
H            0.43281385792762       -3.85540611020430       -0.60872445591218
H            0.66813434523199       -2.55975086418243       -1.80746418148580
H            0.98352353835990       -0.02719169806114       -0.69975055126267
H            6.21277985850545        3.07587602651346        0.41063118888883
H            5.84412669719621        3.74253755262529       -1.19760332406598
H            6.69936163465070        2.19117413039205       -1.03468733109568
H           -0.36469728835459        1.42997813735675        0.64617458274127
H           -0.04599118189514        0.10732132587324        1.78818731507578
H           -1.50970220387794        1.07693439142586        1.96236604126175

          :  Hamiltonian                  GFN1-xTB          :
         :: total energy             -82.992884601339 Eh    ::
         :: gradient norm              0.000543176390 Eh/a0 ::
         :: HOMO-LUMO gap              2.513598524300 eV    ::
         :: SCC energy               -83.774182296977 Eh    ::
         :: -> Gsolv                  -0.067341977066 Eh    ::
         :: repulsion energy           0.808276485316 Eh    ::

    * Orbital Energies and Occupations

         #    Occupation            Energy/Eh            Energy/eV
      -------------------------------------------------------------
         1        2.0000           -0.8681991             -23.6249
       ...           ...                  ...                  ...
        55        2.0000           -0.5109519             -13.9037
        56        2.0000           -0.5106681             -13.8960
        57        2.0000           -0.4960605             -13.4985
        58        2.0000           -0.4928947             -13.4123
        59        2.0000           -0.4901760             -13.3384
        60        2.0000           -0.4876059             -13.2684
        61        2.0000           -0.4745074             -12.9120
        62        2.0000           -0.4735224             -12.8852
        63        2.0000           -0.4671576             -12.7120
        64        2.0000           -0.4578524             -12.4588
        65        2.0000           -0.4546865             -12.3727
        66        2.0000           -0.4272563             -11.6262
        67        2.0000           -0.4165140             -11.3339 (HOMO)
        68                         -0.3241409              -8.8203 (LUMO)
        69                         -0.3188459              -8.6762
        70                         -0.3056296              -8.3166
        71                         -0.2607615              -7.0957
        72                         -0.2400161              -6.5312
        73                         -0.2065621              -5.6208
        74                         -0.1685051              -4.5853
        75                         -0.1488212              -4.0496
        76                         -0.1435311              -3.9057
        77                         -0.1401019              -3.8124
        78                         -0.1344802              -3.6594
       ...                                ...                  ...
       134                          0.7510636              20.4375
      -------------------------------------------------------------
                  HL-Gap            0.0923730 Eh            2.5136 eV

Wiberg/Mayer (AO) data.
largest (>0.10) Wiberg bond orders for each atom

     #   Z sym  total        # sym  WBO       # sym  WBO       # sym  WBO
 ---------------------------------------------------------------------------
     1   6 C    3.877 --    28 H    0.986    26 H    0.980    27 H    0.980
                             2 O    0.903
     2   8 O    2.201 --     3 C    1.105     1 C    0.903     4 O    0.121
     3   6 C    3.865 --     4 O    1.584     2 O    1.105     5 C    1.080
     4   8 O    1.895 --     3 C    1.584     2 O    0.121
     5   6 C    3.850 --     6 C    1.258     3 C    1.080    24 N    1.056
                             7 O    0.139
     6   6 C    3.944 --     7 O    1.573     5 C    1.258     8 C    0.954
     7   8 O    1.883 --     6 C    1.573     5 C    0.139
     8   6 C    3.867 --     9 O    1.661    10 N    1.089     6 C    0.954
     9   8 O    1.932 --     8 C    1.661    10 N    0.117
    10   7 N    3.453 --    11 C    1.207     8 C    1.089    29 H    0.877
                             9 O    0.117
    11   6 C    3.914 --    24 N    1.434    10 N    1.207    12 C    0.978
    12   6 C    3.934 --    14 C    0.986    11 C    0.978    13 C    0.976
                            15 N    0.933
    13   6 C    3.981 --    30 H    0.984    12 C    0.976    32 H    0.976
                            31 H    0.975
    14   6 C    3.986 --    12 C    0.986    35 H    0.984    34 H    0.978
                            33 H    0.977
    15   7 N    3.313 --    16 C    1.211    12 C    0.933    36 H    0.893
                            17 O    0.168
    16   6 C    3.912 --    17 O    1.620    15 N    1.211    18 C    0.993
    17   8 O    1.931 --    16 C    1.620    15 N    0.168
    18   6 C    3.878 --    19 N    1.604    23 O    1.066    16 C    0.993
    19   7 N    3.022 --    18 C    1.604    20 N    1.205
    20   7 N    2.981 --    21 C    1.599    19 N    1.205
    21   6 C    3.869 --    20 N    1.599    23 O    1.084    22 C    1.032
    22   6 C    3.985 --    21 C    1.032    38 H    0.982    37 H    0.963
                            39 H    0.962
    23   8 O    2.334 --    21 C    1.084    18 C    1.066
    24   7 N    3.589 --    11 C    1.434     5 C    1.056    25 C    0.917
    25   6 C    3.910 --    41 H    0.976    42 H    0.976    40 H    0.970
                            24 N    0.917
    26   1 H    1.009 --     1 C    0.980
    27   1 H    1.009 --     1 C    0.980
    28   1 H    1.012 --     1 C    0.986
    29   1 H    0.932 --    10 N    0.877
    30   1 H    1.000 --    13 C    0.984
    31   1 H    1.009 --    13 C    0.975
    32   1 H    1.001 --    13 C    0.976
    33   1 H    0.999 --    14 C    0.977
    34   1 H    0.996 --    14 C    0.978
    35   1 H    0.997 --    14 C    0.984
    36   1 H    0.952 --    15 N    0.893
    37   1 H    0.996 --    22 C    0.963
    38   1 H    0.998 --    22 C    0.982
    39   1 H    0.996 --    22 C    0.962
    40   1 H    1.015 --    25 C    0.970
    41   1 H    1.010 --    25 C    0.976
    42   1 H    1.004 --    25 C    0.976
 ---------------------------------------------------------------------------

           -------------------------------------------------
          | TOTAL ENERGY              -82.992884601339 Eh   |
          | GRADIENT NORM               0.000543176390 Eh/α |
          | HOMO-LUMO GAP               2.513598524300 eV   |
           -------------------------------------------------

 * finished run on 2023/06/21 at 17:35:14.351
