                         Program Version 5.0.1 -  RELEASE  -
|  1> # ORCA input file
|  2> ! SP r2SCAN-3c CPCM
|  3>
|  4> %maxcore 1875.0
|  5> %pal nprocs 4 end
|  6> %cpcm smd true SMDsolvent "DMSO" end
|  7>
|  8> *xyz 1 1
|  9> C      -1.693487   -0.229484   -2.014201
| 10> N      -1.374185    0.991598   -1.236047
| 11> C      -1.683793    0.928131    0.235973
| 12> C      -1.482244    2.347505    0.778582
| 13> C      -3.112824    0.446672    0.459759
| 14> C      -0.623478    0.022283    0.820076
| 15> N       0.493077   -0.077993    0.181890
| 16> C       1.498520   -0.848334    0.719012
| 17> C       2.773659   -0.923761   -0.032705
| 18> O       3.722957   -1.580754    0.353396
| 19> O       2.782613   -0.210132   -1.146449
| 20> C       4.000063   -0.222176   -1.907206
| 21> C       1.342064   -1.513090    1.910934
| 22> O       2.279416   -2.270757    2.466976
| 23> C       0.077796   -1.402890    2.653465
| 24> O      -0.188579   -1.931538    3.711934
| 25> N      -0.849298   -0.589118    2.010112
| 26> H      -1.289941   -0.091046   -3.014034
| 27> H      -1.221868   -1.080331   -1.529196
| 28> H      -2.770956   -0.354245   -2.058098
| 29> H      -1.849928    1.786871   -1.651376
| 30> H      -0.360686    1.141341   -1.299954
| 31> H      -2.213072    3.023078    0.337741
| 32> H      -0.478354    2.698423    0.543981
| 33> H      -1.611772    2.341776    1.859549
| 34> H      -3.794919    1.010101   -0.174366
| 35> H      -3.211671   -0.614927    0.242088
| 36> H      -3.391902    0.619934    1.497952
| 37> H       4.809108    0.212484   -1.315632
| 38> H       3.813157    0.376598   -2.795716
| 39> H       4.256751   -1.247804   -2.181753
| 40> H       3.088953   -2.284125    1.902118
| 41> H      -1.735174   -0.474295    2.479139
| 42> **                         ****END OF INPUT****

CARTESIAN COORDINATES (ANGSTROEM)
---------------------------------
  C     -1.693487   -0.229484   -2.014201
  N     -1.374185    0.991598   -1.236047
  C     -1.683793    0.928131    0.235973
  C     -1.482244    2.347505    0.778582
  C     -3.112824    0.446672    0.459759
  C     -0.623478    0.022283    0.820076
  N      0.493077   -0.077993    0.181890
  C      1.498520   -0.848334    0.719012
  C      2.773659   -0.923761   -0.032705
  O      3.722957   -1.580754    0.353396
  O      2.782613   -0.210132   -1.146449
  C      4.000063   -0.222176   -1.907206
  C      1.342064   -1.513090    1.910934
  O      2.279416   -2.270757    2.466976
  C      0.077796   -1.402890    2.653465
  O     -0.188579   -1.931538    3.711934
  N     -0.849298   -0.589118    2.010112
  H     -1.289941   -0.091046   -3.014034
  H     -1.221868   -1.080331   -1.529196
  H     -2.770956   -0.354245   -2.058098
  H     -1.849928    1.786871   -1.651376
  H     -0.360686    1.141341   -1.299954
  H     -2.213072    3.023078    0.337741
  H     -0.478354    2.698423    0.543981
  H     -1.611772    2.341776    1.859549
  H     -3.794919    1.010101   -0.174366
  H     -3.211671   -0.614927    0.242088
  H     -3.391902    0.619934    1.497952
  H      4.809108    0.212484   -1.315632
  H      3.813157    0.376598   -2.795716
  H      4.256751   -1.247804   -2.181753
  H      3.088953   -2.284125    1.902118
  H     -1.735174   -0.474295    2.479139

 Total Charge           Charge          ....    1
 Multiplicity           Mult            ....    1
 Number of Electrons    NEL             ....  128
 Basis Dimension        Dim             ....  438

ORBITAL ENERGIES
----------------

  NO   OCC          E(Eh)            E(eV)
   0   2.0000     -19.016357      -517.4614
   1   2.0000     -19.004372      -517.1352
   2   2.0000     -18.962782      -516.0035
   3   2.0000     -18.942199      -515.4434
   4   2.0000     -14.274943      -388.4410
   5   2.0000     -14.238746      -387.4560
   6   2.0000     -14.181931      -385.9100
   7   2.0000     -10.180827      -277.0344
   8   2.0000     -10.161522      -276.5091
   9   2.0000     -10.141294      -275.9586
  10   2.0000     -10.134707      -275.7794
  11   2.0000     -10.126209      -275.5482
  12   2.0000     -10.102324      -274.8982
  13   2.0000     -10.084061      -274.4012
  14   2.0000     -10.076717      -274.2014
  15   2.0000     -10.039300      -273.1832
  16   2.0000     -10.038882      -273.1719
  17   2.0000      -1.095967       -29.8228
  18   2.0000      -1.062338       -28.9077
  19   2.0000      -1.032400       -28.0930
  20   2.0000      -1.004643       -27.3377
  21   2.0000      -0.993011       -27.0212
  22   2.0000      -0.966112       -26.2892
  23   2.0000      -0.893314       -24.3083
  24   2.0000      -0.803141       -21.8546
  25   2.0000      -0.761421       -20.7193
  26   2.0000      -0.720100       -19.5949
  27   2.0000      -0.697158       -18.9706
  28   2.0000      -0.669161       -18.2088
  29   2.0000      -0.664629       -18.0855
  30   2.0000      -0.649580       -17.6760
  31   2.0000      -0.602750       -16.4017
  32   2.0000      -0.575600       -15.6629
  33   2.0000      -0.558593       -15.2001
  34   2.0000      -0.554502       -15.0888
  35   2.0000      -0.532177       -14.4813
  36   2.0000      -0.506214       -13.7748
  37   2.0000      -0.500048       -13.6070
  38   2.0000      -0.477169       -12.9844
  39   2.0000      -0.470316       -12.7980
  40   2.0000      -0.464535       -12.6406
  41   2.0000      -0.460661       -12.5352
  42   2.0000      -0.450269       -12.2524
  43   2.0000      -0.433861       -11.8060
  44   2.0000      -0.418801       -11.3962
  45   2.0000      -0.406080       -11.0500
  46   2.0000      -0.397346       -10.8123
  47   2.0000      -0.390974       -10.6389
  48   2.0000      -0.386743       -10.5238
  49   2.0000      -0.379133       -10.3167
  50   2.0000      -0.375446       -10.2164
  51   2.0000      -0.371070       -10.0973
  52   2.0000      -0.367250        -9.9934
  53   2.0000      -0.359772        -9.7899
  54   2.0000      -0.357667        -9.7326
  55   2.0000      -0.349008        -9.4970
  56   2.0000      -0.335406        -9.1269
  57   2.0000      -0.333889        -9.0856
  58   2.0000      -0.296863        -8.0781
  59   2.0000      -0.290570        -7.9068
  60   2.0000      -0.288663        -7.8549
  61   2.0000      -0.262750        -7.1498
  62   2.0000      -0.253613        -6.9012
  63   2.0000      -0.221548        -6.0286
  64   0.0000      -0.103690        -2.8215
  65   0.0000      -0.054190        -1.4746
  66   0.0000       0.000402         0.0109
  67   0.0000       0.039306         1.0696
  68   0.0000       0.054922         1.4945

MULLIKEN ATOMIC CHARGES
-----------------------
   0 C :   -0.326508
   1 N :   -0.327157
   2 C :    0.082615
   3 C :   -0.528554
   4 C :   -0.532259
   5 C :    0.228758
   6 N :   -0.203876
   7 C :    0.119825
   8 C :    0.233630
   9 O :   -0.478883
  10 O :   -0.189475
  11 C :   -0.307473
  12 C :    0.068829
  13 O :   -0.353477
  14 C :    0.085916
  15 O :   -0.383431
  16 N :   -0.018880
  17 H :    0.200351
  18 H :    0.204686
  19 H :    0.199723
  20 H :    0.388100
  21 H :    0.379908
  22 H :    0.196731
  23 H :    0.194963
  24 H :    0.205497
  25 H :    0.208106
  26 H :    0.204094
  27 H :    0.199174
  28 H :    0.182188
  29 H :    0.181914
  30 H :    0.181070
  31 H :    0.377533
  32 H :    0.326362
Sum of atomic charges:    1.0000000

LOEWDIN ATOMIC CHARGES
----------------------
   0 C :   -0.088372
   1 N :   -0.592738
   2 C :    0.092404
   3 C :   -0.332331
   4 C :   -0.348298
   5 C :    0.353547
   6 N :   -0.563344
   7 C :    0.203782
   8 C :    0.408520
   9 O :   -0.458640
  10 O :   -0.555394
  11 C :   -0.029311
  12 C :    0.287837
  13 O :   -0.432151
  14 C :    0.376261
  15 O :   -0.421596
  16 N :   -0.426510
  17 H :    0.201582
  18 H :    0.203762
  19 H :    0.199287
  20 H :    0.313953
  21 H :    0.322908
  22 H :    0.179653
  23 H :    0.180472
  24 H :    0.183686
  25 H :    0.185548
  26 H :    0.181698
  27 H :    0.183849
  28 H :    0.185625
  29 H :    0.189271
  30 H :    0.185804
  31 H :    0.317266
  32 H :    0.311972

  Mayer bond orders larger than 0.100000
B(  0-C ,  1-N ) :   0.8802 B(  0-C , 17-H ) :   0.9451 B(  0-C , 18-H ) :   0.9351
B(  0-C , 19-H ) :   0.9396 B(  1-N ,  2-C ) :   0.8702 B(  1-N , 20-H ) :   0.8501
B(  1-N , 21-H ) :   0.8163 B(  2-C ,  3-C ) :   0.9631 B(  2-C ,  4-C ) :   0.9585
B(  2-C ,  5-C ) :   0.8731 B(  3-C , 22-H ) :   0.9525 B(  3-C , 23-H ) :   0.9451
B(  3-C , 24-H ) :   0.9528 B(  4-C , 25-H ) :   0.9617 B(  4-C , 26-H ) :   0.9452
B(  4-C , 27-H ) :   0.9393 B(  5-C ,  6-N ) :   1.6007 B(  5-C , 12-C ) :   0.1073
B(  5-C , 16-N ) :   1.1631 B(  6-N ,  7-C ) :   1.0315 B(  6-N , 16-N ) :   0.1029
B(  7-C ,  8-C ) :   1.0719 B(  7-C , 12-C ) :   1.2923 B(  8-C ,  9-O ) :   1.7218
B(  8-C , 10-O ) :   1.2065 B( 10-O , 11-C ) :   0.8208 B( 11-C , 28-H ) :   0.9525
B( 11-C , 29-H ) :   0.9601 B( 11-C , 30-H ) :   0.9537 B( 12-C , 13-O ) :   1.1691
B( 12-C , 14-C ) :   0.9838 B( 13-O , 31-H ) :   0.7648 B( 14-C , 15-O ) :   2.0720
B( 14-C , 16-N ) :   0.9880 B( 16-N , 32-H ) :   0.8810

Dispersion correction           -0.013401762
FINAL SINGLE POINT ENERGY      -855.610630510550

DIPOLE MOMENT
-------------
                                X             Y             Z
Electronic contribution:     10.44909      -8.97365      10.48615
Nuclear contribution   :    -14.72814      12.82862     -15.09133
                        -----------------------------------------
Total Dipole Moment    :     -4.27905       3.85496      -4.60519
                        -----------------------------------------
Magnitude (a.u.)       :      7.37420
Magnitude (Debye)      :     18.74372

Rotational constants in cm-1:     0.019518     0.012779     0.008575
Rotational constants in MHz :   585.149848   383.100990   257.064104

                             ****ORCA TERMINATED NORMALLY****
TOTAL RUN TIME: 0 days 0 hours 1 minutes 21 seconds 539 msec
