   * xtb version 6.5.1 (579679a) compiled by 'ehlert@majestix' on 2022-07-11
          program call               : /lustre/hpc/kemi/ree/PhD/git/ReactivityQM/dep/xtb-6.5.1/bin/xtb --gfn 1 /lustre/hpc/kemi/ree/PhD/git/ReactivityQM/calculations/R01/reac02prodN02/conf19/R01_reac02prodN02_conf19_gfn1.xyz --opt --vfukui --chrg 1 --uhf 0 --alpb DMSO

   ID    Z sym.   atoms
    1    6 C      1, 3-6, 8, 9, 12, 13, 15
    2    7 N      2, 7, 17
    3    8 O      10, 11, 14, 16
    4    1 H      18-33

      * Solvation model:               ALPB
        Solvent                        DMSO
        Solvent mass                       7.8130E+01 g/mol
          :  Hamiltonian                  GFN1-xTB          :
 * total energy  :   -57.8590960 Eh     change       -0.3460343E-11 Eh
 * total energy  :   -57.8681735 Eh     change       -0.9077468E-02 Eh
 * total energy  :   -57.8706426 Eh     change       -0.2469097E-02 Eh
 * total energy  :   -57.8709871 Eh     change       -0.3444839E-03 Eh
 * total energy  :   -57.8711626 Eh     change       -0.1755150E-03 Eh
 * total energy  :   -57.8712223 Eh     change       -0.5972842E-04 Eh
 * total energy  :   -57.8712851 Eh     change       -0.6277329E-04 Eh
 * total energy  :   -57.8713212 Eh     change       -0.3605876E-04 Eh
 * total energy  :   -57.8713539 Eh     change       -0.3275341E-04 Eh
 * total energy  :   -57.8713693 Eh     change       -0.1535915E-04 Eh
 * total energy  :   -57.8763133 Eh     change       -0.1053619E-04 Eh
 * total energy  :   -57.8763218 Eh     change       -0.8519265E-05 Eh
 * total energy  :   -57.8763290 Eh     change       -0.7151705E-05 Eh
 * total energy  :   -57.8763352 Eh     change       -0.6244037E-05 Eh
 * total energy  :   -57.8763408 Eh     change       -0.5565222E-05 Eh
 * total energy  :   -57.8763461 Eh     change       -0.5318817E-05 Eh
 * total energy  :   -57.8763515 Eh     change       -0.5416561E-05 Eh
 * total energy  :   -57.8763573 Eh     change       -0.5773597E-05 Eh
 * total energy  :   -57.8763605 Eh     change       -0.3270685E-05 Eh
   *** GEOMETRY OPTIMIZATION CONVERGED AFTER 94 ITERATIONS ***

 final structure:
================
33
 xtb: 6.5.1 (579679a)
C           -1.69348655778457       -0.22948412592548       -2.01420125489494
N           -1.37418490185473        0.99159809829545       -1.23604670541994
C           -1.68379293764138        0.92813113335535        0.23597250492340
C           -1.48224415900368        2.34750548861248        0.77858150386573
C           -3.11282411493949        0.44667218411799        0.45975902769535
C           -0.62347828172681        0.02228333652573        0.82007600594808
N            0.49307732322341       -0.07799322985705        0.18188999874252
C            1.49851988422597       -0.84833374003704        0.71901171425489
C            2.77365914629966       -0.92376109098532       -0.03270536056620
O            3.72295675831996       -1.58075444100069        0.35339566739009
O            2.78261289280200       -0.21013166359734       -1.14644892072392
C            4.00006347629740       -0.22217597285157       -1.90720567357070
C            1.34206384268998       -1.51308951656115        1.91093425118168
O            2.27941620785671       -2.27075652708661        2.46697622231386
C            0.07779563196003       -1.40289001802678        2.65346549247575
O           -0.18857933962764       -1.93153763367114        3.71193422853443
N           -0.84929813116139       -0.58911779903076        2.01011155910985
H           -1.28994086358429       -0.09104572412146       -3.01403427724947
H           -1.22186800233679       -1.08033061145799       -1.52919565817733
H           -2.77095557672046       -0.35424465391619       -2.05809824943288
H           -1.84992838716737        1.78687064871337       -1.65137600624435
H           -0.36068581996231        1.14134083379678       -1.29995399590529
H           -2.21307167995914        3.02307805475799        0.33774086954164
H           -0.47835431023589        2.69842327256921        0.54398070537469
H           -1.61177227553601        2.34177648836227        1.85954937988586
H           -3.79491868399372        1.01010117605311       -0.17436589453665
H           -3.21167116609198       -0.61492678008613        0.24208847533118
H           -3.39190185711754        0.61993425971004        1.49795232829412
H            4.80910801951741        0.21248370381897       -1.31563225118871
H            3.81315666140726        0.37659797284781       -2.79571643496553
H            4.25675088230156       -1.24780439881809       -2.18175310129376
H            3.08895340926301       -2.28412452593314        1.90211843064256
H           -1.73517408971994       -0.47429519857161        2.47913941866794

          :  Hamiltonian                  GFN1-xTB          :
         :: total energy             -57.876360540083 Eh    ::
         :: gradient norm              0.000185041153 Eh/a0 ::
         :: HOMO-LUMO gap              2.916047270772 eV    ::
         :: SCC energy               -58.454913450940 Eh    ::
         :: -> Gsolv                  -0.121492489174 Eh    ::
         :: repulsion energy           0.597874336774 Eh    ::

    * Orbital Energies and Occupations

         #    Occupation            Energy/Eh            Energy/eV
      -------------------------------------------------------------
         1        2.0000           -0.8868086             -24.1313
       ...           ...                  ...                  ...
        35        2.0000           -0.5620134             -15.2932
        36        2.0000           -0.5529861             -15.0475
        37        2.0000           -0.5486433             -14.9293
        38        2.0000           -0.5456097             -14.8468
        39        2.0000           -0.5350590             -14.5597
        40        2.0000           -0.5310811             -14.4515
        41        2.0000           -0.5230354             -14.2325
        42        2.0000           -0.5103331             -13.8869
        43        2.0000           -0.5044008             -13.7254
        44        2.0000           -0.5039664             -13.7136
        45        2.0000           -0.4830652             -13.1449
        46        2.0000           -0.4665352             -12.6951
        47        2.0000           -0.4479263             -12.1887 (HOMO)
        48                         -0.3407636              -9.2726 (LUMO)
        49                         -0.3079057              -8.3785
        50                         -0.2563478              -6.9756
        51                         -0.1817222              -4.9449
        52                         -0.1766673              -4.8074
        53                         -0.1713297              -4.6621
        54                         -0.1639140              -4.4603
        55                         -0.1455808              -3.9615
        56                         -0.1428160              -3.8862
        57                         -0.1370712              -3.7299
        58                         -0.1201364              -3.2691
       ...                                ...                  ...
       100                          0.7180913              19.5403
      -------------------------------------------------------------
                  HL-Gap            0.1071628 Eh            2.9160 eV

Wiberg/Mayer (AO) data.
largest (>0.10) Wiberg bond orders for each atom

     #   Z sym  total        # sym  WBO       # sym  WBO       # sym  WBO
 ---------------------------------------------------------------------------
     1   6 C    3.896 --    20 H    0.984    19 H    0.984    18 H    0.980
                             2 N    0.919
     2   7 N    3.602 --     1 C    0.919    21 H    0.891     3 C    0.888
                            22 H    0.874
     3   6 C    3.905 --     5 C    1.000     6 C    0.984     4 C    0.981
                             2 N    0.888
     4   6 C    3.980 --    24 H    0.981     3 C    0.981    23 H    0.979
                            25 H    0.978
     5   6 C    3.983 --     3 C    1.000    27 H    0.981    26 H    0.979
                            28 H    0.975
     6   6 C    3.943 --     7 N    1.581    17 N    1.191     3 C    0.984
     7   7 N    3.052 --     6 C    1.581     8 C    1.162
     8   6 C    3.958 --    13 C    1.488     7 N    1.162     9 C    1.016
     9   6 C    3.853 --    10 O    1.612    11 O    1.141     8 C    1.016
    10   8 O    1.952 --     9 C    1.612    11 O    0.132
    11   8 O    2.217 --     9 C    1.141    12 C    0.885    10 O    0.132
    12   6 C    3.859 --    30 H    0.986    31 H    0.979    29 H    0.979
                            11 O    0.885
    13   6 C    3.923 --     8 C    1.488    14 O    1.145    15 C    1.047
    14   8 O    2.109 --    13 C    1.145    32 H    0.768
    15   6 C    3.903 --    16 O    1.630    17 N    1.097    13 C    1.047
    16   8 O    1.927 --    15 C    1.630    17 N    0.132
    17   7 N    3.460 --     6 C    1.191    15 C    1.097    33 H    0.879
                            16 O    0.132
    18   1 H    0.989 --     1 C    0.980
    19   1 H    0.999 --     1 C    0.984
    20   1 H    0.993 --     1 C    0.984
    21   1 H    0.916 --     2 N    0.891
    22   1 H    0.948 --     2 N    0.874
    23   1 H    0.992 --     4 C    0.979
    24   1 H    0.995 --     4 C    0.981
    25   1 H    0.995 --     4 C    0.978
    26   1 H    0.992 --     5 C    0.979
    27   1 H    0.995 --     5 C    0.981
    28   1 H    0.994 --     5 C    0.975
    29   1 H    1.004 --    12 C    0.979
    30   1 H    1.009 --    12 C    0.986
    31   1 H    1.005 --    12 C    0.979
    32   1 H    0.845 --    14 O    0.768
    33   1 H    0.921 --    17 N    0.879
 ---------------------------------------------------------------------------

           -------------------------------------------------
          | TOTAL ENERGY              -57.876360540083 Eh   |
          | GRADIENT NORM               0.000185041153 Eh/α |
          | HOMO-LUMO GAP               2.916047270772 eV   |
           -------------------------------------------------

 * finished run on 2023/06/20 at 15:03:52.543
