   * xtb version 6.5.1 (579679a) compiled by 'ehlert@majestix' on 2022-07-11
          program call               : /lustre/hpc/kemi/ree/PhD/git/ReactivityQM/dep/xtb-6.5.1/bin/xtb --gfn 1 /lustre/hpc/kemi/ree/PhD/git/ReactivityQM/calculations/RaltegravirCLI/reac02prodN13/conf12/RaltegravirCLI_reac02prodN13_conf12_gfn1.xyz --opt --vfukui --chrg 1 --uhf 0 --alpb DMSO

   ID    Z sym.   atoms
    1    6 C      1, 3-6, 9, 10, 13-17, 19-21, 23, 24
    2    7 N      2, 7, 8, 12
    3    8 O      11, 22, 25
    4    9 F      18
    5    1 H      26-47

      * Solvation model:               ALPB
        Solvent                        DMSO
        Solvent mass                       7.8130E+01 g/mol
          :  Hamiltonian                  GFN1-xTB          :
 * total energy  :   -79.4010286 Eh     change       -0.3281286E-09 Eh
 * total energy  :   -79.4197775 Eh     change       -0.1874896E-01 Eh
 * total energy  :   -79.4299105 Eh     change       -0.1013299E-01 Eh
 * total energy  :   -79.4331781 Eh     change       -0.3267579E-02 Eh
 * total energy  :   -79.4355435 Eh     change       -0.2365427E-02 Eh
 * total energy  :   -79.4366893 Eh     change       -0.1145738E-02 Eh
 * total energy  :   -79.4373629 Eh     change       -0.6736351E-03 Eh
 * total energy  :   -79.4378085 Eh     change       -0.4455636E-03 Eh
 * total energy  :   -79.4380874 Eh     change       -0.2789104E-03 Eh
 * total energy  :   -79.4382770 Eh     change       -0.1896373E-03 Eh
 * total energy  :   -79.4925469 Eh     change       -0.1258385E-03 Eh
 * total energy  :   -79.4926425 Eh     change       -0.9563049E-04 Eh
 * total energy  :   -79.4927084 Eh     change       -0.6590503E-04 Eh
 * total energy  :   -79.4927592 Eh     change       -0.5081990E-04 Eh
 * total energy  :   -79.4927862 Eh     change       -0.2697017E-04 Eh
 * total energy  :   -79.4928117 Eh     change       -0.2553507E-04 Eh
 * total energy  :   -79.4928225 Eh     change       -0.1077533E-04 Eh
 * total energy  :   -79.4928289 Eh     change       -0.6350327E-05 Eh
 * total energy  :   -79.4928316 Eh     change       -0.2753750E-05 Eh
   *** GEOMETRY OPTIMIZATION CONVERGED AFTER 53 ITERATIONS ***

 final structure:
================
47
 xtb: 6.5.1 (579679a)
C           -4.45470025538395        0.96493288743413        0.86695477985290
N           -3.01996729194051        0.76631738817857        0.64509985748705
C           -2.49710831122755       -0.20188020064142       -0.11144181231158
C           -3.23097050991969       -0.99133843389680       -1.15516825756836
C           -2.22444601945028       -1.47730898803138       -2.21585014222030
C           -3.86858886797936       -2.20349001745211       -0.44701418494114
N           -4.27103022956625       -0.19054616482573       -1.76606582521776
N           -1.24649853612493       -0.62230338162562        0.15199716172803
C           -0.36761078612035        0.07024071762341        0.79622139505223
C            0.87332863272970       -0.69374689672881        1.21619708014923
O            0.90144491825661       -1.90618427865247        1.08942505291691
N            1.87706268587376        0.04102954110486        1.70625397227974
C            3.12071671414698       -0.58576286730410        2.14675400794835
C            4.19633050548723       -0.44120746617951        1.09161173214223
C            5.36129507164277        0.26940446832628        1.36559039953438
C            6.34965463425815        0.40083914682424        0.39920515329015
C            6.14127171728312       -0.18479595920490       -0.83611842900796
F            7.08861502184816       -0.05855560715135       -1.77623307798876
C            4.99406852983954       -0.89674996930864       -1.14088471907803
C            4.01936747935565       -1.02320518317224       -0.16260411903896
C           -0.67855426324008        1.51187383493330        1.02984459257220
O            0.09535277505334        2.06234543530542        2.04479911274105
C           -2.16460629527972        1.63390888801180        1.37223488686837
C           -0.49976457393804        2.30676523867230       -0.29510966663133
O           -2.59768941760166        2.47589775907445        2.10204079312177
H           -4.99418937186545        0.66343314345645       -0.02896108526162
H           -4.76121988691976        0.35575690656588        1.71684235304237
H           -4.62190996035293        2.01788835758385        1.08575642305504
H           -2.76513052213445       -2.02661368764578       -2.98358711496170
H           -1.72623500131879       -0.62473985400218       -2.67326590817533
H           -1.47767009280796       -2.12967567064204       -1.76607417580294
H           -4.62171724982326       -1.86909874092073        0.26356994033603
H           -4.34195097649958       -2.83340507262409       -1.19787004343142
H           -3.10583503599906       -2.77759372307185        0.07663176185914
H           -4.84414898467154       -0.76998691148725       -2.36286836405039
H           -3.86587674236936        0.54729287276736       -2.32352052928952
H            1.80524397332818        1.04265632166954        1.77888404007508
H            3.42593356644618       -0.10352125528173        3.07784938231425
H            2.91015125794028       -1.64306260682819        2.33665502342777
H            5.50194634707548        0.72435729486493        2.33882108507944
H            7.26001384935274        0.95101069011641        0.59857492226897
H            4.86756815503609       -1.33822964691479       -2.12080765863138
H            3.11202488919879       -1.57551664482246       -0.37557077705364
H           -0.30372778838344        2.87771268832030        2.38393793821306
H           -1.04415532507549        1.82531849102700       -1.10346655928765
H            0.56199582067655        2.33933018643478       -0.52888967472933
H           -0.86808724883778        3.32020697012190       -0.15268972267358

          :  Hamiltonian                  GFN1-xTB          :
         :: total energy             -79.492831607073 Eh    ::
         :: gradient norm              0.000577230087 Eh/a0 ::
         :: HOMO-LUMO gap              0.779364807327 eV    ::
         :: SCC energy               -80.385624693812 Eh    ::
         :: -> Gsolv                  -0.108166446286 Eh    ::
         :: repulsion energy           0.923773601712 Eh    ::

    * Orbital Energies and Occupations

         #    Occupation            Energy/Eh            Energy/eV
      -------------------------------------------------------------
         1        2.0000           -0.8845350             -24.0694
       ...           ...                  ...                  ...
        55        2.0000           -0.5229553             -14.2303
        56        2.0000           -0.5220085             -14.2046
        57        2.0000           -0.5168308             -14.0637
        58        2.0000           -0.5110474             -13.9063
        59        2.0000           -0.5109253             -13.9030
        60        2.0000           -0.5048068             -13.7365
        61        2.0000           -0.4959906             -13.4966
        62        2.0000           -0.4807173             -13.0810
        63        2.0000           -0.4781277             -13.0105
        64        2.0000           -0.4663234             -12.6893
        65        2.0000           -0.4587698             -12.4838
        66        2.0000           -0.4447821             -12.1031
        67        2.0000           -0.4430094             -12.0549 (HOMO)
        68        0.0000           -0.4143683             -11.2755 (LUMO)
        69                         -0.3410492              -9.2804
        70                         -0.3010135              -8.1910
        71                         -0.2806865              -7.6379
        72                         -0.2751888              -7.4883
        73                         -0.2413654              -6.5679
        74                         -0.1601524              -4.3580
        75                         -0.1557233              -4.2374
        76                         -0.1536721              -4.1816
        77                         -0.1449787              -3.9451
        78                         -0.1384833              -3.7683
       ...                                ...                  ...
       144                          0.6865414              18.6817
      -------------------------------------------------------------
                  HL-Gap            0.0286411 Eh            0.7794 eV

Wiberg/Mayer (AO) data.
largest (>0.10) Wiberg bond orders for each atom

     #   Z sym  total        # sym  WBO       # sym  WBO       # sym  WBO
 ---------------------------------------------------------------------------
     1   6 C    3.881 --    28 H    0.975    27 H    0.966    26 H    0.954
                             2 N    0.902
     2   7 N    3.545 --     3 C    1.344    23 C    1.022     1 C    0.902
     3   6 C    3.877 --     2 N    1.344     8 N    1.268     4 C    1.007
     4   6 C    3.957 --     3 C    1.007     7 N    0.998     5 C    0.964
                             6 C    0.938
     5   6 C    3.985 --    30 H    0.984    29 H    0.981    31 H    0.981
                             4 C    0.964
     6   6 C    3.978 --    34 H    0.984    32 H    0.984    33 H    0.975
                             4 C    0.938
     7   7 N    3.020 --     4 C    0.998    36 H    0.929    35 H    0.924
     8   7 N    3.153 --     9 C    1.630     3 C    1.268
     9   6 C    3.900 --     8 N    1.630    21 C    1.005    10 C    0.960
    10   6 C    3.922 --    11 O    1.583    12 N    1.302     9 C    0.960
    11   8 O    1.908 --    10 C    1.583    12 N    0.204
    12   7 N    3.418 --    10 C    1.302    13 C    0.932    37 H    0.877
                            11 O    0.204
    13   6 C    3.929 --    14 C    0.988    38 H    0.971    39 H    0.964
                            12 N    0.932
    14   6 C    3.983 --    15 C    1.423    20 C    1.413    13 C    0.988
    15   6 C    3.993 --    16 C    1.439    14 C    1.423    40 H    0.970
                            19 C    0.109
    16   6 C    3.990 --    15 C    1.439    17 C    1.403    41 H    0.968
                            20 C    0.111
    17   6 C    3.862 --    16 C    1.403    19 C    1.396    18 F    0.930
    18   9 F    1.060 --    17 C    0.930
    19   6 C    3.991 --    20 C    1.449    17 C    1.396    42 H    0.969
                            15 C    0.109
    20   6 C    3.993 --    19 C    1.449    14 C    1.413    43 H    0.970
                            16 C    0.111
    21   6 C    3.933 --     9 C    1.005    22 O    0.989    23 C    0.920
                            24 C    0.898
    22   8 O    1.928 --    21 C    0.989    44 H    0.811
    23   6 C    3.861 --    25 O    1.771     2 N    1.022    21 C    0.920
    24   6 C    3.970 --    45 H    0.984    47 H    0.978    46 H    0.976
                            21 C    0.898
    25   8 O    2.037 --    23 C    1.771
    26   1 H    1.018 --     1 C    0.954
    27   1 H    0.994 --     1 C    0.966
    28   1 H    0.997 --     1 C    0.975
    29   1 H    0.998 --     5 C    0.981
    30   1 H    0.999 --     5 C    0.984
    31   1 H    1.005 --     5 C    0.981
    32   1 H    0.999 --     6 C    0.984
    33   1 H    0.993 --     6 C    0.975
    34   1 H    0.999 --     6 C    0.984
    35   1 H    0.940 --     7 N    0.924
    36   1 H    0.944 --     7 N    0.929
    37   1 H    0.936 --    12 N    0.877
    38   1 H    0.998 --    13 C    0.971
    39   1 H    1.006 --    13 C    0.964
    40   1 H    0.998 --    15 C    0.970
    41   1 H    0.997 --    16 C    0.968
    42   1 H    0.997 --    19 C    0.969
    43   1 H    1.003 --    20 C    0.970
    44   1 H    0.835 --    22 O    0.811
    45   1 H    0.997 --    24 C    0.984
    46   1 H    0.996 --    24 C    0.976
    47   1 H    0.993 --    24 C    0.978
 ---------------------------------------------------------------------------

           -------------------------------------------------
          | TOTAL ENERGY              -79.492831607073 Eh   |
          | GRADIENT NORM               0.000577230087 Eh/α |
          | HOMO-LUMO GAP               0.779364807327 eV   |
           -------------------------------------------------

 * finished run on 2023/06/20 at 15:35:18.888
