   * xtb version 6.5.1 (579679a) compiled by 'ehlert@majestix' on 2022-07-11
          program call               : /lustre/hpc/kemi/ree/PhD/git/ReactivityQM/dep/xtb-6.5.1/bin/xtb --gfn 1 /lustre/hpc/kemi/ree/PhD/git/ReactivityQM/calculations/R02methylcation/reac01prodE08/conf05/R02methylcation_reac01prodE08_conf05_gfn1.xyz --opt --vfukui --chrg -2 --uhf 0 --alpb DMSO

   ID    Z sym.   atoms
    1    6 C      1, 3, 5, 7-10, 12, 14, 15, 18, 19, 22, 24
    2    8 O      2, 4, 13, 20, 23, 25
    3    7 N      6, 11, 16, 17, 21
    4    1 H      26-42

      * Solvation model:               ALPB
        Solvent                        DMSO
        Solvent mass                       7.8130E+01 g/mol
          :  Hamiltonian                  GFN1-xTB          :
 * total energy  :   -83.6242948 Eh     change       -0.1834636E-08 Eh
 * total energy  :   -83.6377618 Eh     change       -0.1346693E-01 Eh
 * total energy  :   -83.6428751 Eh     change       -0.5113302E-02 Eh
 * total energy  :   -83.6437105 Eh     change       -0.8354260E-03 Eh
 * total energy  :   -83.6442271 Eh     change       -0.5166640E-03 Eh
 * total energy  :   -83.6444150 Eh     change       -0.1878063E-03 Eh
 * total energy  :   -83.6445649 Eh     change       -0.1499345E-03 Eh
 * total energy  :   -83.6446684 Eh     change       -0.1034976E-03 Eh
 * total energy  :   -83.6447665 Eh     change       -0.9806199E-04 Eh
 * total energy  :   -83.6448621 Eh     change       -0.9567814E-04 Eh
 * total energy  :   -83.6476857 Eh     change       -0.2435960E-04 Eh
 * total energy  :   -83.6476979 Eh     change       -0.1225672E-04 Eh
 * total energy  :   -83.6477105 Eh     change       -0.1261401E-04 Eh
 * total energy  :   -83.6477181 Eh     change       -0.7524549E-05 Eh
 * total energy  :   -83.6477263 Eh     change       -0.8182643E-05 Eh
 * total energy  :   -83.6477314 Eh     change       -0.5149068E-05 Eh
 * total energy  :   -83.6477367 Eh     change       -0.5326827E-05 Eh
 * total energy  :   -83.6477440 Eh     change       -0.7313041E-05 Eh
 * total energy  :   -83.6477462 Eh     change       -0.2201040E-05 Eh
   *** GEOMETRY OPTIMIZATION CONVERGED AFTER 68 ITERATIONS ***

 final structure:
================
42
 xtb: 6.5.1 (579679a)
C            5.40540955334212        3.41279761662398        0.18031932409526
O            4.65779841304967        2.44927029410868       -0.54391084460840
C            3.68251606991769        1.80949972406786        0.15733524905809
O            3.47962969575236        2.09418622259448        1.33388232685842
C            2.95035113044228        0.80480939103210       -0.59404295335333
N            1.97119335137227        0.18148809360760        0.15984568574342
C            1.24064791668979       -0.74620739407658       -0.34264454541648
C            0.18362402123103       -1.42171063101214        0.52392527161868
C            0.24524610783184       -2.95037598248994        0.38696180085654
C            0.44119602843190       -1.03510189395355        1.98414513009195
N           -1.15065800213446       -0.91736756413824        0.18207196586930
C           -1.83154301198953       -1.20864296887210       -0.95681257267252
O           -1.33492198106625       -1.80452493113866       -1.91811927010862
C           -3.21533619904639       -0.53729837939490       -1.04548563468110
C           -4.21489339828254       -1.45286885857645       -1.77320675897522
N           -2.95064613200395        0.70240075600529       -1.78268000093544
N           -3.27099262652274        1.71177229383882       -0.92467903263503
C           -3.69446633505798        1.24540004816613        0.18887863440429
C           -4.18145599417302        1.99561172899929        1.37861214207360
O           -3.69936761788229       -0.16676188390302        0.24002233531532
N            1.39659783808344       -1.15263673564635       -1.64804178028072
C            2.32105798449707       -0.63061007019153       -2.50642734988765
O            2.40506152562185       -1.05986501795202       -3.65876320280205
C            3.19734950082047        0.46939300379097       -1.95005711519660
O            4.05172581449275        0.98795779344365       -2.69721664777475
H            5.91380234974917        2.95004795741582        1.03223232989456
H            6.14367533474053        3.82795998417240       -0.50468284813000
H            4.75686883680298        4.21258357385752        0.55249706316280
H            0.00194320965922       -3.27152463298489       -0.62382207719491
H           -0.46567450626637       -3.40672910940925        1.07352988727326
H            1.24660116486175       -3.29845240885882        0.63619054100661
H            1.43225627711047       -1.37137876915080        2.28486630016496
H            0.39207503636738        0.04712300527061        2.10458585860376
H           -0.29934533054855       -1.50053785496141        2.63146871010514
H           -1.72080841062186       -0.65506678431151        0.97405840296245
H           -4.42791858365885       -2.33203367678361       -1.16739342008700
H           -5.13979304556662       -0.90784970769835       -1.95013457811998
H           -3.79009844412189       -1.76306695881942       -2.72663277277778
H           -4.07554061614632        3.06422580490198        1.19628322788435
H           -5.23331813902999        1.77633881893918        1.57755816296291
H           -3.61345567568127        1.73067497683188        2.27318728502628
H            0.79360588893166       -1.88292687333712       -2.00857922939864

          :  Hamiltonian                  GFN1-xTB          :
         :: total energy             -83.647746244883 Eh    ::
         :: gradient norm              0.000308265850 Eh/a0 ::
         :: HOMO-LUMO gap              0.386165788227 eV    ::
         :: SCC energy               -84.385629882902 Eh    ::
         :: -> Gsolv                  -0.278962145984 Eh    ::
         :: repulsion energy           0.764458610618 Eh    ::

    * Orbital Energies and Occupations

         #    Occupation            Energy/Eh            Energy/eV
      -------------------------------------------------------------
         1        2.0000           -0.7938200             -21.6009
       ...           ...                  ...                  ...
        56        2.0000           -0.4478684             -12.1871
        57        2.0000           -0.4457965             -12.1307
        58        2.0000           -0.4311866             -11.7332
        59        2.0000           -0.4274406             -11.6313
        60        2.0000           -0.4117864             -11.2053
        61        2.0000           -0.4044266             -11.0050
        62        2.0000           -0.4018033             -10.9336
        63        2.0000           -0.3993244             -10.8662
        64        2.0000           -0.3786086             -10.3025
        65        2.0000           -0.3697481             -10.0614
        66        2.0000           -0.3571848              -9.7195
        67        2.0000           -0.3498297              -9.5194
        68        1.9989           -0.2762226              -7.5164 (HOMO)
        69        0.0011           -0.2620312              -7.1302 (LUMO)
        70                         -0.2277672              -6.1979
        71                         -0.2080893              -5.6624
        72                         -0.1890587              -5.1445
        73                         -0.1622980              -4.4164
        74                         -0.1204311              -3.2771
        75                         -0.1092817              -2.9737
        76                         -0.1076131              -2.9283
        77                         -0.1048001              -2.8518
        78                         -0.0999840              -2.7207
        79                         -0.0890212              -2.4224
       ...                                ...                  ...
       134                          0.7568070              20.5938
      -------------------------------------------------------------
                  HL-Gap            0.0141913 Eh            0.3862 eV

Wiberg/Mayer (AO) data.
largest (>0.10) Wiberg bond orders for each atom

     #   Z sym  total        # sym  WBO       # sym  WBO       # sym  WBO
 ---------------------------------------------------------------------------
     1   6 C    3.902 --    27 H    0.987    26 H    0.980    28 H    0.980
                             2 O    0.929
     2   8 O    2.154 --     3 C    1.039     1 C    0.929     4 O    0.107
     3   6 C    3.848 --     4 O    1.569     5 C    1.123     2 O    1.039
     4   8 O    1.845 --     3 C    1.569     2 O    0.107
     5   6 C    3.918 --    24 C    1.275     6 N    1.150     3 C    1.123
                            25 O    0.128
     6   7 N    3.025 --     7 C    1.630     5 C    1.150
     7   6 C    3.932 --     6 N    1.630    21 N    1.108     8 C    0.970
     8   6 C    3.953 --    10 C    1.001     9 C    0.988     7 C    0.970
                            11 N    0.930
     9   6 C    3.992 --     8 C    0.988    31 H    0.987    30 H    0.985
                            29 H    0.978
    10   6 C    3.995 --     8 C    1.001    34 H    0.986    32 H    0.985
                            33 H    0.983
    11   7 N    3.296 --    12 C    1.223     8 C    0.930    35 H    0.902
                            13 O    0.139
    12   6 C    3.867 --    13 O    1.540    11 N    1.223    14 C    0.921
    13   8 O    1.870 --    12 C    1.540    11 N    0.139
    14   6 C    3.896 --    16 N    0.978    15 C    0.973    20 O    0.922
                            12 C    0.921
    15   6 C    3.996 --    36 H    0.988    37 H    0.987    38 H    0.986
                            14 C    0.973
    16   7 N    2.622 --    17 N    1.191    14 C    0.978    18 C    0.206
    17   7 N    3.019 --    18 C    1.669    16 N    1.191
    18   6 C    3.862 --    17 N    1.669    19 C    1.017    20 O    0.918
                            16 N    0.206
    19   6 C    3.996 --    18 C    1.017    39 H    0.987    41 H    0.978
                            40 H    0.976
    20   8 O    2.063 --    14 C    0.922    18 C    0.918
    21   7 N    3.448 --    22 C    1.181     7 C    1.108    42 H    0.879
                            23 O    0.137
    22   6 C    3.885 --    23 O    1.560    21 N    1.181    24 C    0.971
    23   8 O    1.840 --    22 C    1.560    21 N    0.137
    24   6 C    3.943 --    25 O    1.508     5 C    1.275    22 C    0.971
    25   8 O    1.812 --    24 C    1.508     5 C    0.128
    26   1 H    1.015 --     1 C    0.980
    27   1 H    1.016 --     1 C    0.987
    28   1 H    1.015 --     1 C    0.980
    29   1 H    1.015 --     9 C    0.978
    30   1 H    1.004 --     9 C    0.985
    31   1 H    1.004 --     9 C    0.987
    32   1 H    1.010 --    10 C    0.985
    33   1 H    1.016 --    10 C    0.983
    34   1 H    1.002 --    10 C    0.986
    35   1 H    0.961 --    11 N    0.902
    36   1 H    1.010 --    15 C    0.988
    37   1 H    1.020 --    15 C    0.987
    38   1 H    1.019 --    15 C    0.986
    39   1 H    1.010 --    19 C    0.987
    40   1 H    1.010 --    19 C    0.976
    41   1 H    1.009 --    19 C    0.978
    42   1 H    0.966 --    21 N    0.879
 ---------------------------------------------------------------------------

           -------------------------------------------------
          | TOTAL ENERGY              -83.647746244883 Eh   |
          | GRADIENT NORM               0.000308265850 Eh/α |
          | HOMO-LUMO GAP               0.386165788227 eV   |
           -------------------------------------------------

 * finished run on 2023/06/21 at 17:18:50.505
