                         Program Version 5.0.1 -  RELEASE  -
|  1> # ORCA input file
|  2> ! SP r2SCAN-3c CPCM
|  3>
|  4> %maxcore 1875.0
|  5> %pal nprocs 4 end
|  6> %cpcm smd true SMDsolvent "DMSO" end
|  7>
|  8> *xyz 1 1
|  9> C       4.387464   -1.276605    1.226104
| 10> O       3.083918   -0.851278    0.803939
| 11> C       3.036548    0.112997   -0.099389
| 12> O       4.025455    0.635280   -0.580797
| 13> C       1.661950    0.511632   -0.486382
| 14> C       1.445527    1.489591   -1.422829
| 15> O       2.409536    2.152068   -2.052219
| 16> C       0.075731    1.864823   -1.776081
| 17> O      -0.220366    2.732117   -2.576469
| 18> N      -0.916436    1.125043   -1.110560
| 19> C      -2.281574    1.500292   -1.477476
| 20> C      -0.605381    0.184314   -0.161010
| 21> C      -1.635474   -0.647046    0.596560
| 22> C      -0.960961   -1.310931    1.800635
| 23> C      -2.287500   -1.712447   -0.285937
| 24> N      -2.725223    0.224033    1.181463
| 25> N       0.616702   -0.115137    0.130166
| 26> H       4.236843   -2.144506    1.864652
| 27> H       4.994231   -1.539406    0.356557
| 28> H       4.874723   -0.472982    1.782622
| 29> H       3.294620    1.841769   -1.746203
| 30> H      -2.333527    1.029566    1.658264
| 31> H      -2.920216    0.625596   -1.511571
| 32> H      -2.249760    1.955502   -2.468190
| 33> H      -2.664414    2.228659   -0.764427
| 34> H      -1.697360   -1.872322    2.372504
| 35> H      -0.186663   -1.992482    1.452558
| 36> H      -0.502306   -0.558768    2.439858
| 37> H      -2.974276   -2.311321    0.309644
| 38> H      -1.507862   -2.361262   -0.683936
| 39> H      -2.836129   -1.276262   -1.116748
| 40> H      -3.385980    0.545030    0.483648
| 41> H      -3.251844   -0.315561    1.861050
| 42> **                         ****END OF INPUT****

CARTESIAN COORDINATES (ANGSTROEM)
---------------------------------
  C      4.387464   -1.276605    1.226104
  O      3.083918   -0.851278    0.803939
  C      3.036548    0.112997   -0.099389
  O      4.025455    0.635280   -0.580797
  C      1.661950    0.511632   -0.486382
  C      1.445527    1.489591   -1.422829
  O      2.409536    2.152068   -2.052219
  C      0.075731    1.864823   -1.776081
  O     -0.220366    2.732117   -2.576469
  N     -0.916436    1.125043   -1.110560
  C     -2.281574    1.500292   -1.477476
  C     -0.605381    0.184314   -0.161010
  C     -1.635474   -0.647046    0.596560
  C     -0.960961   -1.310931    1.800635
  C     -2.287500   -1.712447   -0.285937
  N     -2.725223    0.224033    1.181463
  N      0.616702   -0.115137    0.130166
  H      4.236843   -2.144506    1.864652
  H      4.994231   -1.539406    0.356557
  H      4.874723   -0.472982    1.782622
  H      3.294620    1.841769   -1.746203
  H     -2.333527    1.029566    1.658264
  H     -2.920216    0.625596   -1.511571
  H     -2.249760    1.955502   -2.468190
  H     -2.664414    2.228659   -0.764427
  H     -1.697360   -1.872322    2.372504
  H     -0.186663   -1.992482    1.452558
  H     -0.502306   -0.558768    2.439858
  H     -2.974276   -2.311321    0.309644
  H     -1.507862   -2.361262   -0.683936
  H     -2.836129   -1.276262   -1.116748
  H     -3.385980    0.545030    0.483648
  H     -3.251844   -0.315561    1.861050

 Total Charge           Charge          ....    1
 Multiplicity           Mult            ....    1
 Number of Electrons    NEL             ....  128
 Basis Dimension        Dim             ....  438

ORBITAL ENERGIES
----------------

  NO   OCC          E(Eh)            E(eV)
   0   2.0000     -19.014170      -517.4019
   1   2.0000     -19.001968      -517.0698
   2   2.0000     -18.960388      -515.9384
   3   2.0000     -18.938677      -515.3476
   4   2.0000     -14.276611      -388.4863
   5   2.0000     -14.248213      -387.7136
   6   2.0000     -14.172325      -385.6486
   7   2.0000     -10.178129      -276.9610
   8   2.0000     -10.154592      -276.3205
   9   2.0000     -10.137526      -275.8561
  10   2.0000     -10.130928      -275.6766
  11   2.0000     -10.130757      -275.6719
  12   2.0000     -10.096514      -274.7401
  13   2.0000     -10.083157      -274.3767
  14   2.0000     -10.072775      -274.0941
  15   2.0000     -10.039383      -273.1855
  16   2.0000     -10.032383      -272.9950
  17   2.0000      -1.093813       -29.7642
  18   2.0000      -1.059898       -28.8413
  19   2.0000      -1.029649       -28.0182
  20   2.0000      -1.002477       -27.2788
  21   2.0000      -0.985651       -26.8209
  22   2.0000      -0.964761       -26.2525
  23   2.0000      -0.897574       -24.4242
  24   2.0000      -0.799811       -21.7640
  25   2.0000      -0.751452       -20.4481
  26   2.0000      -0.729616       -19.8539
  27   2.0000      -0.696694       -18.9580
  28   2.0000      -0.679282       -18.4842
  29   2.0000      -0.652883       -17.7658
  30   2.0000      -0.642340       -17.4790
  31   2.0000      -0.587670       -15.9913
  32   2.0000      -0.563360       -15.3298
  33   2.0000      -0.558234       -15.1903
  34   2.0000      -0.544719       -14.8226
  35   2.0000      -0.542921       -14.7736
  36   2.0000      -0.524703       -14.2779
  37   2.0000      -0.499903       -13.6031
  38   2.0000      -0.484427       -13.1819
  39   2.0000      -0.471184       -12.8216
  40   2.0000      -0.460211       -12.5230
  41   2.0000      -0.458224       -12.4689
  42   2.0000      -0.450055       -12.2466
  43   2.0000      -0.428890       -11.6707
  44   2.0000      -0.416747       -11.3403
  45   2.0000      -0.411486       -11.1971
  46   2.0000      -0.397666       -10.8210
  47   2.0000      -0.390052       -10.6138
  48   2.0000      -0.385929       -10.5017
  49   2.0000      -0.378325       -10.2948
  50   2.0000      -0.372951       -10.1485
  51   2.0000      -0.369879       -10.0649
  52   2.0000      -0.363214        -9.8836
  53   2.0000      -0.358745        -9.7619
  54   2.0000      -0.350342        -9.5333
  55   2.0000      -0.348774        -9.4906
  56   2.0000      -0.333112        -9.0644
  57   2.0000      -0.331276        -9.0145
  58   2.0000      -0.291550        -7.9335
  59   2.0000      -0.281072        -7.6483
  60   2.0000      -0.278501        -7.5784
  61   2.0000      -0.253871        -6.9082
  62   2.0000      -0.247497        -6.7347
  63   2.0000      -0.217880        -5.9288
  64   0.0000      -0.100397        -2.7320
  65   0.0000      -0.053559        -1.4574
  66   0.0000       0.002213         0.0602
  67   0.0000       0.037993         1.0339
  68   0.0000       0.059301         1.6137

MULLIKEN ATOMIC CHARGES
-----------------------
   0 C :   -0.309332
   1 O :   -0.184648
   2 C :    0.220627
   3 O :   -0.479504
   4 C :    0.101262
   5 C :    0.089859
   6 O :   -0.354492
   7 C :    0.121028
   8 O :   -0.434818
   9 N :    0.264967
  10 C :   -0.508592
  11 C :    0.141518
  12 C :    0.042621
  13 C :   -0.560202
  14 C :   -0.453833
  15 N :   -0.484220
  16 N :   -0.114114
  17 H :    0.181081
  18 H :    0.180211
  19 H :    0.182257
  20 H :    0.375427
  21 H :    0.395410
  22 H :    0.196722
  23 H :    0.211201
  24 H :    0.221286
  25 H :    0.184907
  26 H :    0.205958
  27 H :    0.193980
  28 H :    0.196619
  29 H :    0.204592
  30 H :    0.180773
  31 H :    0.395109
  32 H :    0.396339
Sum of atomic charges:    1.0000000

LOEWDIN ATOMIC CHARGES
----------------------
   0 C :   -0.030268
   1 O :   -0.554795
   2 C :    0.408283
   3 O :   -0.460655
   4 C :    0.198390
   5 C :    0.291873
   6 O :   -0.432677
   7 C :    0.387066
   8 O :   -0.451985
   9 N :   -0.631342
  10 C :   -0.080040
  11 C :    0.362398
  12 C :    0.099649
  13 C :   -0.327544
  14 C :   -0.338111
  15 N :   -0.366823
  16 N :   -0.570227
  17 H :    0.188820
  18 H :    0.186047
  19 H :    0.184841
  20 H :    0.316900
  21 H :    0.309910
  22 H :    0.193266
  23 H :    0.221292
  24 H :    0.199135
  25 H :    0.171577
  26 H :    0.189891
  27 H :    0.181165
  28 H :    0.180999
  29 H :    0.186230
  30 H :    0.172760
  31 H :    0.302178
  32 H :    0.311795

  Mayer bond orders larger than 0.100000
B(  0-C ,  1-O ) :   0.8200 B(  0-C , 17-H ) :   0.9606 B(  0-C , 18-H ) :   0.9555
B(  0-C , 19-H ) :   0.9520 B(  1-O ,  2-C ) :   1.2036 B(  2-C ,  3-O ) :   1.7245
B(  2-C ,  4-C ) :   1.0652 B(  4-C ,  5-C ) :   1.2853 B(  4-C , 16-N ) :   1.0220
B(  5-C ,  6-O ) :   1.1527 B(  5-C ,  7-C ) :   1.0260 B(  5-C , 11-C ) :   0.1068
B(  6-O , 20-H ) :   0.7682 B(  7-C ,  8-O ) :   1.8998 B(  7-C ,  9-N ) :   1.0457
B(  9-N , 10-C ) :   0.8246 B(  9-N , 11-C ) :   1.2596 B(  9-N , 16-N ) :   0.1037
B( 10-C , 22-H ) :   0.9320 B( 10-C , 23-H ) :   0.9292 B( 10-C , 24-H ) :   0.9305
B( 11-C , 12-C ) :   0.8841 B( 11-C , 16-N ) :   1.6872 B( 12-C , 13-C ) :   0.9469
B( 12-C , 14-C ) :   1.0215 B( 12-C , 15-N ) :   0.7541 B( 12-C , 16-N ) :  -0.1099
B( 13-C , 25-H ) :   0.9573 B( 13-C , 26-H ) :   0.9586 B( 13-C , 27-H ) :   0.9502
B( 14-C , 28-H ) :   0.9497 B( 14-C , 29-H ) :   0.9586 B( 14-C , 30-H ) :   0.9210
B( 15-N , 21-H ) :   0.8415 B( 15-N , 31-H ) :   0.8251 B( 15-N , 32-H ) :   0.8481

Dispersion correction           -0.013476694
FINAL SINGLE POINT ENERGY      -855.595747290029

DIPOLE MOMENT
-------------
                                X             Y             Z
Electronic contribution:      9.98314       9.82466      -7.15776
Nuclear contribution   :    -16.60142     -11.98173      11.21668
                        -----------------------------------------
Total Dipole Moment    :     -6.61829      -2.15707       4.05893
                        -----------------------------------------
Magnitude (a.u.)       :      8.05789
Magnitude (Debye)      :     20.48152

Rotational constants in cm-1:     0.020919     0.012607     0.008329
Rotational constants in MHz :   627.146301   377.937775   249.708794

                             ****ORCA TERMINATED NORMALLY****
TOTAL RUN TIME: 0 days 0 hours 1 minutes 11 seconds 467 msec
