   * xtb version 6.5.1 (579679a) compiled by 'ehlert@majestix' on 2022-07-11
          program call               : /lustre/hpc/kemi/ree/PhD/git/ReactivityQM/dep/xtb-6.5.1/bin/xtb --gfn 1 /lustre/hpc/kemi/ree/PhD/git/ReactivityQM/calculations/R01/reac02prodN11/conf11/R01_reac02prodN11_conf11_gfn1.xyz --opt --vfukui --chrg 1 --uhf 0 --alpb DMSO

   ID    Z sym.   atoms
    1    6 C      1, 3, 5, 6, 8, 11-15
    2    8 O      2, 4, 7, 9
    3    7 N      10, 16, 17
    4    1 H      18-33

      * Solvation model:               ALPB
        Solvent                        DMSO
        Solvent mass                       7.8130E+01 g/mol
          :  Hamiltonian                  GFN1-xTB          :
 * total energy  :   -57.7926853 Eh     change       -0.4863665E-10 Eh
 * total energy  :   -57.8052375 Eh     change       -0.1255223E-01 Eh
 * total energy  :   -57.8096580 Eh     change       -0.4420479E-02 Eh
 * total energy  :   -57.8105318 Eh     change       -0.8737809E-03 Eh
 * total energy  :   -57.8109808 Eh     change       -0.4490494E-03 Eh
 * total energy  :   -57.8111336 Eh     change       -0.1527969E-03 Eh
 * total energy  :   -57.8112439 Eh     change       -0.1102437E-03 Eh
 * total energy  :   -57.8113298 Eh     change       -0.8591440E-04 Eh
 * total energy  :   -57.8113932 Eh     change       -0.6339148E-04 Eh
 * total energy  :   -57.8114458 Eh     change       -0.5260117E-04 Eh
 * total energy  :   -57.8678007 Eh     change       -0.6195548E-04 Eh
 * total energy  :   -57.8678659 Eh     change       -0.6522671E-04 Eh
 * total energy  :   -57.8679604 Eh     change       -0.9453220E-04 Eh
 * total energy  :   -57.8680001 Eh     change       -0.3964203E-04 Eh
 * total energy  :   -57.8680273 Eh     change       -0.2722617E-04 Eh
 * total energy  :   -57.8680437 Eh     change       -0.1637091E-04 Eh
 * total energy  :   -57.8680486 Eh     change       -0.4969609E-05 Eh
 * total energy  :   -57.8680506 Eh     change       -0.1989174E-05 Eh
 * total energy  :   -57.8680548 Eh     change       -0.4137316E-05 Eh
   *** GEOMETRY OPTIMIZATION CONVERGED AFTER 111 ITERATIONS ***

 final structure:
================
33
 xtb: 6.5.1 (579679a)
C            4.38746399657809       -1.27660522467640        1.22610382138650
O            3.08391808136044       -0.85127788189710        0.80393861550603
C            3.03654839096197        0.11299685085157       -0.09938855505662
O            4.02545485310861        0.63527974249658       -0.58079742575508
C            1.66194958327485        0.51163193244968       -0.48638153794138
C            1.44552660050992        1.48959080440948       -1.42282931248421
O            2.40953630397197        2.15206847550563       -2.05221908121172
C            0.07573085986471        1.86482330794695       -1.77608078092105
O           -0.22036561791808        2.73211664046631       -2.57646861763603
N           -0.91643560048238        1.12504306235037       -1.11055999604480
C           -2.28157371988795        1.50029183288602       -1.47747647927268
C           -0.60538140963320        0.18431369917512       -0.16100956644234
C           -1.63547431903586       -0.64704617671435        0.59655985661828
C           -0.96096094468802       -1.31093079666174        1.80063497001297
C           -2.28749994332645       -1.71244667111885       -0.28593748004847
N           -2.72522281706852        0.22403275893886        1.18146341520437
N            0.61670193338968       -0.11513660040643        0.13016557024799
H            4.23684292625609       -2.14450592653194        1.86465207541745
H            4.99423086902272       -1.53940622961563        0.35655702292155
H            4.87472308776239       -0.47298191377689        1.78262245423470
H            3.29461969548317        1.84176922281845       -1.74620265430058
H           -2.33352713884416        1.02956587247535        1.65826380787429
H           -2.92021619364086        0.62559606970961       -1.51157112471358
H           -2.24975963598044        1.95550168721075       -2.46819017979030
H           -2.66441358625229        2.22865940024123       -0.76442674804286
H           -1.69735992006846       -1.87232192876987        2.37250397418015
H           -0.18666255197230       -1.99248194706909        1.45255779897172
H           -0.50230551402511       -0.55876846671554        2.43985842790625
H           -2.97427613606774       -2.31132061915688        0.30964360477871
H           -1.50786201184529       -2.36126195823365       -0.68393559924513
H           -2.83612876072038       -1.27626157783822       -1.11674817010561
H           -3.38597952806287        0.54503038983799        0.48364768586268
H           -3.25184383202358       -0.31556083059366        1.86105020788283

          :  Hamiltonian                  GFN1-xTB          :
         :: total energy             -57.868054752607 Eh    ::
         :: gradient norm              0.000472404955 Eh/a0 ::
         :: HOMO-LUMO gap              2.863727682769 eV    ::
         :: SCC energy               -58.444244209694 Eh    ::
         :: -> Gsolv                  -0.133253989861 Eh    ::
         :: repulsion energy           0.595530589796 Eh    ::

    * Orbital Energies and Occupations

         #    Occupation            Energy/Eh            Energy/eV
      -------------------------------------------------------------
         1        2.0000           -0.8977694             -24.4295
       ...           ...                  ...                  ...
        35        2.0000           -0.5537468             -15.0682
        36        2.0000           -0.5485607             -14.9271
        37        2.0000           -0.5459872             -14.8571
        38        2.0000           -0.5454213             -14.8417
        39        2.0000           -0.5342841             -14.5386
        40        2.0000           -0.5283386             -14.3768
        41        2.0000           -0.5218029             -14.1990
        42        2.0000           -0.5068623             -13.7924
        43        2.0000           -0.5004517             -13.6180
        44        2.0000           -0.4918873             -13.3849
        45        2.0000           -0.4782810             -13.0147
        46        2.0000           -0.4603583             -12.5270
        47        2.0000           -0.4442993             -12.0900 (HOMO)
        48                         -0.3390593              -9.2263 (LUMO)
        49                         -0.3068623              -8.3501
        50                         -0.2550615              -6.9406
        51                         -0.2082638              -5.6671
        52                         -0.1753729              -4.7721
        53                         -0.1720942              -4.6829
        54                         -0.1596571              -4.3445
        55                         -0.1463127              -3.9814
        56                         -0.1423103              -3.8725
        57                         -0.1365969              -3.7170
        58                         -0.1191512              -3.2423
       ...                                ...                  ...
       100                          0.7130973              19.4044
      -------------------------------------------------------------
                  HL-Gap            0.1052401 Eh            2.8637 eV

Wiberg/Mayer (AO) data.
largest (>0.10) Wiberg bond orders for each atom

     #   Z sym  total        # sym  WBO       # sym  WBO       # sym  WBO
 ---------------------------------------------------------------------------
     1   6 C    3.861 --    18 H    0.986    19 H    0.979    20 H    0.979
                             2 O    0.886
     2   8 O    2.220 --     3 C    1.143     1 C    0.886     4 O    0.132
     3   6 C    3.852 --     4 O    1.611     2 O    1.143     5 C    1.014
     4   8 O    1.949 --     3 C    1.611     2 O    0.132
     5   6 C    3.960 --     6 C    1.476    17 N    1.182     3 C    1.014
     6   6 C    3.923 --     5 C    1.476     7 O    1.141     8 C    1.060
     7   8 O    2.107 --     6 C    1.141    21 H    0.772
     8   6 C    3.908 --     9 O    1.610    10 N    1.090     6 C    1.060
     9   8 O    1.928 --     8 C    1.610    10 N    0.137
    10   7 N    3.492 --    12 C    1.172     8 C    1.090    11 C    0.931
                             9 O    0.137
    11   6 C    3.920 --    23 H    0.974    25 H    0.973    24 H    0.966
                            10 N    0.931
    12   6 C    3.942 --    17 N    1.581    10 N    1.172    13 C    0.979
    13   6 C    3.884 --    14 C    1.000    15 C    0.991    12 C    0.979
                            16 N    0.873
    14   6 C    3.981 --    13 C    1.000    28 H    0.981    26 H    0.981
                            27 H    0.976
    15   6 C    3.981 --    13 C    0.991    29 H    0.979    30 H    0.976
                            31 H    0.974
    16   7 N    3.564 --    22 H    0.886    32 H    0.886    33 H    0.884
                            13 C    0.873
    17   7 N    3.039 --    12 C    1.581     5 C    1.182
    18   1 H    1.009 --     1 C    0.986
    19   1 H    1.006 --     1 C    0.979
    20   1 H    1.004 --     1 C    0.979
    21   1 H    0.846 --     7 O    0.772
    22   1 H    0.905 --    16 N    0.886
    23   1 H    1.001 --    11 C    0.974
    24   1 H    1.002 --    11 C    0.966
    25   1 H    0.996 --    11 C    0.973
    26   1 H    0.995 --    14 C    0.981
    27   1 H    1.008 --    14 C    0.976
    28   1 H    1.001 --    14 C    0.981
    29   1 H    0.992 --    15 C    0.979
    30   1 H    0.995 --    15 C    0.976
    31   1 H    0.998 --    15 C    0.974
    32   1 H    0.920 --    16 N    0.886
    33   1 H    0.904 --    16 N    0.884
 ---------------------------------------------------------------------------

           -------------------------------------------------
          | TOTAL ENERGY              -57.868054752607 Eh   |
          | GRADIENT NORM               0.000472404955 Eh/α |
          | HOMO-LUMO GAP               2.863727682769 eV   |
           -------------------------------------------------

 * finished run on 2023/06/20 at 15:11:43.082
