   * xtb version 6.5.1 (579679a) compiled by 'ehlert@majestix' on 2022-07-11
          program call               : /lustre/hpc/kemi/ree/PhD/git/ReactivityQM/dep/xtb-6.5.1/bin/xtb --gfn 1 /lustre/hpc/kemi/ree/PhD/git/ReactivityQM/calculations/RaltegravirCLI/reac02prodE08/conf16/RaltegravirCLI_reac02prodE08_conf16_gfn1.xyz --opt --vfukui --chrg -1 --uhf 0 --alpb DMSO

   ID    Z sym.   atoms
    1    6 C      1-5, 7, 9, 11-14, 17, 18, 20, 22-24
    2    7 N      6, 10, 15, 16
    3    8 O      8, 19, 21
    4    9 F      25
    5    1 H      26-47

      * Solvation model:               ALPB
        Solvent                        DMSO
        Solvent mass                       7.8130E+01 g/mol
          :  Hamiltonian                  GFN1-xTB          :
 * total energy  :   -80.1725899 Eh     change       -0.2958984E-09 Eh
 * total energy  :   -80.1819840 Eh     change       -0.9394094E-02 Eh
 * total energy  :   -80.1843780 Eh     change       -0.2393993E-02 Eh
 * total energy  :   -80.1848362 Eh     change       -0.4581805E-03 Eh
 * total energy  :   -80.1852493 Eh     change       -0.4131660E-03 Eh
 * total energy  :   -80.1854904 Eh     change       -0.2410286E-03 Eh
 * total energy  :   -80.1857106 Eh     change       -0.2202111E-03 Eh
 * total energy  :   -80.1858528 Eh     change       -0.1422013E-03 Eh
 * total energy  :   -80.1859249 Eh     change       -0.7215925E-04 Eh
 * total energy  :   -80.1859802 Eh     change       -0.5521382E-04 Eh
 * total energy  :   -80.1861282 Eh     change       -0.1066870E-04 Eh
 * total energy  :   -80.1861397 Eh     change       -0.1149762E-04 Eh
 * total energy  :   -80.1861505 Eh     change       -0.1085849E-04 Eh
 * total energy  :   -80.1861689 Eh     change       -0.1837944E-04 Eh
 * total energy  :   -80.1861845 Eh     change       -0.1557821E-04 Eh
 * total energy  :   -80.1861949 Eh     change       -0.1039995E-04 Eh
 * total energy  :   -80.1862019 Eh     change       -0.7016628E-05 Eh
 * total energy  :   -80.1862074 Eh     change       -0.5532896E-05 Eh
 * total energy  :   -80.1862116 Eh     change       -0.4139689E-05 Eh
   *** GEOMETRY OPTIMIZATION CONVERGED AFTER 24 ITERATIONS ***

 final structure:
================
47
 xtb: 6.5.1 (579679a)
C            6.06104604420355        0.70392198373959        1.68054148402205
C            6.01174883148373        0.78298701516144        0.12680101987471
C            4.66974273546913        1.29183294116547       -0.35499258111851
C            3.77269685269028        0.51029367761417       -1.02933983099010
C            2.42779001191062        1.08484730545012       -1.41455703624738
N            1.35991232302680        0.39248542201583       -0.68767396701452
C            0.09455629643632        0.85771498952430       -0.74115175546441
O           -0.18166480485432        1.92087757967090       -1.30556641307991
C           -0.94966256071167        0.04135580809752       -0.06337799692054
N           -2.22600670415245        0.50960683408346       -0.24435756603779
C           -3.25770186127098       -0.05908131416703        0.28734152025627
C           -4.61629672705780        0.53974604570200       -0.06451822993935
C           -4.40546605299015        1.86099084636265       -0.82233663388509
C           -5.39419640884141       -0.43289561267841       -0.96220942365862
N           -5.39232808344843        0.79193121240107        1.15118312633683
N           -3.13651106407864       -1.17621019454303        1.08599289900852
C           -4.24866034532728       -1.86943340005587        1.73112051576607
C           -1.88811154537264       -1.75263856479641        1.31127857339714
O           -1.76306808640142       -2.77260485531919        2.00553959142675
C           -0.77187706475105       -1.09298776030280        0.70159256707468
O            0.43908056673447       -1.66794656344030        0.94578515785608
C            4.05946528232278       -0.81465377421658       -1.41977924670396
C            5.35417085143426       -1.32091964441321       -1.14829620132118
C            6.25042287303100       -0.56536488014493       -0.48118895819024
F            7.52362749304424       -1.05593088375265       -0.27327486315386
H            5.89963805106695        1.69253595461666        2.11019458647102
H            5.28451314409860        0.03112759234254        2.04516307447102
H            7.03295413954059        0.33167096615595        2.00590900393791
H            6.81915433713645        1.47836248942044       -0.17089831172714
H            4.42818598982970        2.31817514510413       -0.09556054084950
H            2.36567984281879        2.15493167925326       -1.17969556784792
H            2.25543322897052        0.97155271454392       -2.49544425802994
H            1.56267683179721       -0.53398169221250       -0.34619839950742
H           -3.87160486586181        1.68315080380192       -1.75562842492680
H           -5.37289563659291        2.30740817146596       -1.04481957966869
H           -3.82674645278111        2.55555388748967       -0.21450524876886
H           -5.64539082869134       -1.34670455091289       -0.42818530858378
H           -6.32018339600380        0.03569972201268       -1.29270717469353
H           -4.79951102901989       -0.68952370367755       -1.83871576573602
H           -6.33182252894251        1.05532568726864        0.89211867660183
H           -4.98775116776640        1.56482378294570        1.66371283739782
H           -3.90769548304134       -2.23408903224525        2.70135566642747
H           -5.08494207982281       -1.19053182395622        1.87182315531416
H           -4.55464063159933       -2.72309705269339        1.12396784274807
H            0.28016231274133       -2.45753210236711        1.49474024621264
H            3.34131057774226       -1.40794227234321       -1.97067870183870
H            5.64076579184977       -2.30484157917238       -1.50606155869730

          :  Hamiltonian                  GFN1-xTB          :
         :: total energy             -80.186211559941 Eh    ::
         :: gradient norm              0.000788765174 Eh/a0 ::
         :: HOMO-LUMO gap              0.098070553017 eV    ::
         :: SCC energy               -81.043284606372 Eh    ::
         :: -> Gsolv                  -0.102423451073 Eh    ::
         :: repulsion energy           0.886210342905 Eh    ::

    * Orbital Energies and Occupations

         #    Occupation            Energy/Eh            Energy/eV
      -------------------------------------------------------------
         1        2.0000           -0.8039357             -21.8762
       ...           ...                  ...                  ...
        56        2.0000           -0.4555393             -12.3959
        57        2.0000           -0.4442205             -12.0879
        58        2.0000           -0.4414785             -12.0132
        59        2.0000           -0.4345610             -11.8250
        60        2.0000           -0.4297087             -11.6930
        61        2.0000           -0.4237445             -11.5307
        62        2.0000           -0.4204323             -11.4405
        63        2.0000           -0.4128193             -11.2334
        64        2.0000           -0.4067753             -11.0689
        65        2.0000           -0.4049534             -11.0193
        66        2.0000           -0.3970881             -10.8053
        67        2.0000           -0.3850295             -10.4772
        68        1.7391           -0.2947409              -8.0203 (HOMO)
        69        0.2609           -0.2911368              -7.9222 (LUMO)
        70                         -0.2522469              -6.8640
        71                         -0.2016327              -5.4867
        72                         -0.2008109              -5.4643
        73                         -0.1316123              -3.5814
        74                         -0.1287635              -3.5038
        75                         -0.1236329              -3.3642
        76                         -0.1157091              -3.1486
        77                         -0.1090568              -2.9676
        78                         -0.0951040              -2.5879
        79                         -0.0940122              -2.5582
       ...                                ...                  ...
       144                          0.7078995              19.2629
      -------------------------------------------------------------
                  HL-Gap            0.0036040 Eh            0.0981 eV

Wiberg/Mayer (AO) data.
largest (>0.10) Wiberg bond orders for each atom

     #   Z sym  total        # sym  WBO       # sym  WBO       # sym  WBO
 ---------------------------------------------------------------------------
     1   6 C    3.972 --    27 H    0.989    26 H    0.988    28 H    0.987
                             2 C    0.964
     2   6 C    3.992 --    24 C    1.007     3 C    1.005     1 C    0.964
                            29 H    0.961
     3   6 C    3.814 --     4 C    1.592     2 C    1.005    30 H    0.974
     4   6 C    3.985 --     3 C    1.592    22 C    1.307     5 C    0.996
     5   6 C    3.943 --     4 C    0.996    31 H    0.976    32 H    0.969
                             6 N    0.932
     6   7 N    3.316 --     7 C    1.255     5 C    0.932    33 H    0.897
                             8 O    0.163
     7   6 C    3.880 --     8 O    1.529     6 N    1.255     9 C    1.023
     8   8 O    1.802 --     7 C    1.529     6 N    0.163
     9   6 C    3.868 --    20 C    1.424    10 N    1.186     7 C    1.023
    10   7 N    3.029 --    11 C    1.580     9 C    1.186
    11   6 C    3.895 --    10 N    1.580    16 N    1.146    12 C    0.975
    12   6 C    3.966 --    13 C    0.992    14 C    0.987    15 N    0.977
                            11 C    0.975
    13   6 C    3.995 --    12 C    0.992    35 H    0.986    36 H    0.984
                            34 H    0.983
    14   6 C    3.993 --    12 C    0.987    39 H    0.986    38 H    0.984
                            37 H    0.982
    15   7 N    2.991 --    12 C    0.977    40 H    0.942    41 H    0.942
    16   7 N    3.424 --    11 C    1.146    18 C    1.095    17 C    0.937
                            19 O    0.116
    17   6 C    3.932 --    44 H    0.978    42 H    0.977    43 H    0.971
                            16 N    0.937
    18   6 C    3.873 --    19 O    1.490    20 C    1.151    16 N    1.095
    19   8 O    1.819 --    18 C    1.490    16 N    0.116
    20   6 C    3.828 --     9 C    1.424    18 C    1.151    21 O    1.042
    21   8 O    2.024 --    20 C    1.042    45 H    0.815
    22   6 C    3.765 --     4 C    1.307    23 C    1.271    46 H    0.977
    23   6 C    3.990 --    24 C    1.628    22 C    1.271    47 H    0.971
    24   6 C    3.695 --    23 C    1.628     2 C    1.007    25 F    0.859
    25   9 F    0.966 --    24 C    0.859
    26   1 H    1.010 --     1 C    0.988
    27   1 H    1.017 --     1 C    0.989
    28   1 H    1.010 --     1 C    0.987
    29   1 H    1.007 --     2 C    0.961
    30   1 H    1.002 --     3 C    0.974
    31   1 H    1.017 --     5 C    0.976
    32   1 H    1.012 --     5 C    0.969
    33   1 H    0.966 --     6 N    0.897
    34   1 H    1.015 --    13 C    0.983
    35   1 H    1.005 --    13 C    0.986
    36   1 H    1.012 --    13 C    0.984
    37   1 H    1.005 --    14 C    0.982
    38   1 H    1.001 --    14 C    0.984
    39   1 H    1.004 --    14 C    0.986
    40   1 H    0.957 --    15 N    0.942
    41   1 H    0.959 --    15 N    0.942
    42   1 H    1.012 --    17 C    0.977
    43   1 H    1.031 --    17 C    0.971
    44   1 H    1.004 --    17 C    0.978
    45   1 H    0.861 --    21 O    0.815
    46   1 H    1.001 --    22 C    0.977
    47   1 H    1.006 --    23 C    0.971
 ---------------------------------------------------------------------------

           -------------------------------------------------
          | TOTAL ENERGY              -80.186211559941 Eh   |
          | GRADIENT NORM               0.000788765174 Eh/α |
          | HOMO-LUMO GAP               0.098070553017 eV   |
           -------------------------------------------------

 * finished run on 2023/06/20 at 15:07:04.075
