   * xtb version 6.5.1 (579679a) compiled by 'ehlert@majestix' on 2022-07-11
          program call               : /lustre/hpc/kemi/ree/PhD/git/ReactivityQM/dep/xtb-6.5.1/bin/xtb --gfn 1 /lustre/hpc/kemi/ree/PhD/git/ReactivityQM/calculations/R02/reac01prodN16/conf15/R02_reac01prodN16_conf15_gfn1.xyz --opt --vfukui --chrg 1 --uhf 0 --alpb DMSO

   ID    Z sym.   atoms
    1    6 C      1, 2, 5, 6, 9-12, 14, 15, 18-20, 22
    2    7 N      3, 4, 8, 13, 24
    3    8 O      7, 16, 17, 21, 23, 25
    4    1 H      26-43

      * Solvation model:               ALPB
        Solvent                        DMSO
        Solvent mass                       7.8130E+01 g/mol
          :  Hamiltonian                  GFN1-xTB          :
 * total energy  :   -83.1081616 Eh     change       -0.8313350E-11 Eh
 * total energy  :   -83.1203350 Eh     change       -0.1217339E-01 Eh
 * total energy  :   -83.1242110 Eh     change       -0.3876013E-02 Eh
 * total energy  :   -83.1252261 Eh     change       -0.1015116E-02 Eh
 * total energy  :   -83.1261670 Eh     change       -0.9408940E-03 Eh
 * total energy  :   -83.1268177 Eh     change       -0.6507432E-03 Eh
 * total energy  :   -83.1274463 Eh     change       -0.6285415E-03 Eh
 * total energy  :   -83.1279994 Eh     change       -0.5530703E-03 Eh
 * total energy  :   -83.1283470 Eh     change       -0.3476248E-03 Eh
 * total energy  :   -83.1285656 Eh     change       -0.2186012E-03 Eh
 * total energy  :   -83.1297118 Eh     change       -0.1750081E-04 Eh
 * total energy  :   -83.1297425 Eh     change       -0.3074968E-04 Eh
 * total energy  :   -83.1297556 Eh     change       -0.1306474E-04 Eh
 * total energy  :   -83.1297746 Eh     change       -0.1901197E-04 Eh
 * total energy  :   -83.1297764 Eh     change       -0.1821600E-05 Eh
 * total energy  :   -83.1297918 Eh     change       -0.1532714E-04 Eh
 * total energy  :   -83.1298035 Eh     change       -0.1168415E-04 Eh
 * total energy  :   -83.1298128 Eh     change       -0.9339143E-05 Eh
 * total energy  :   -83.1298167 Eh     change       -0.3878566E-05 Eh
   *** GEOMETRY OPTIMIZATION CONVERGED AFTER 44 ITERATIONS ***

 final structure:
================
43
 xtb: 6.5.1 (579679a)
C           -5.81430357977907        2.54993393468815       -0.31831049815706
C           -5.40868989026871        1.27356110225128        0.30849824833754
N           -6.13801576741709        0.46094963117829        1.00760157346856
N           -5.33510787041417       -0.57899093202208        1.36614876979220
C           -4.16468273141929       -0.33876308709045        0.86438493728001
C           -2.93900868580349       -1.16402811144863        0.97460405903136
O           -2.91649359356118       -2.22478172616441        1.56988778579091
N           -1.88652109996177       -0.60487903724351        0.32275195364928
C           -0.53174965297313       -1.15162958006316        0.40560443517278
C           -0.02435703384468       -1.07863513521264        1.84916293105947
C           -0.50640395171505       -2.59546801492318       -0.12306810283840
C            0.34928902748277       -0.32858421991971       -0.50475001595848
N            1.57359850335364       -0.09846246348784       -0.16732322874285
C            2.39434189528630        0.61167919196239       -1.01371798082094
C            3.74067560590782        0.88764615812747       -0.58165146327865
O            4.59883950084724        1.55427043208531       -1.04406778163479
O            4.04876091035594        0.23639510173107        0.75240745222344
C            5.17971133265450        0.86564325769459        1.42145120533378
C            4.12155186413264       -1.21982388786407        0.73523193176504
C            1.92749450248301        1.08132102688359       -2.22332298866605
O            2.65819624789178        1.77267635359608       -3.07137134538767
C            0.53888295613939        0.80043120525064       -2.62690489155615
O            0.08268421283003        1.17370846951530       -3.68800381883480
N           -0.17222194275248        0.08441347683109       -1.69801302188903
O           -4.14762486144414        0.82708832983753        0.18118604333499
H           -6.83455087303091        2.79412463785091       -0.03086915672330
H           -5.75112824742528        2.46466336147530       -1.40335576685633
H           -5.14015173948046        3.34620969010114       -0.00499812324760
H           -1.98365552648251        0.34978179423068        0.01996221885216
H           -0.65551783965596       -1.68980695009586        2.49227968939693
H           -0.04157988994542       -0.04753433941810        2.19752613075320
H            0.99784637423864       -1.44848891150034        1.89361354942778
H            0.52518904221115       -2.93910819753882       -0.17205676313336
H           -1.06801586134893       -3.24818425585005        0.54263917876222
H           -0.94268786127888       -2.63266941931731       -1.11949282409734
H            5.20552123611661        0.45927012586108        2.42893237509692
H            6.09811696133309        0.64428260516131        0.87793658466901
H            4.97939521816577        1.93448345860624        1.43659853356033
H            4.19620604405703       -1.53645663499989        1.77285128208468
H            4.99106253548058       -1.53696553823054        0.15980317407530
H            3.19458519338720       -1.57567829973331        0.29408735401968
H            2.13218821355741        2.00069461749511       -3.86397300275876
H           -1.13166587790983       -0.13429022030049       -1.93164262236056

          :  Hamiltonian                  GFN1-xTB          :
         :: total energy             -83.129816668720 Eh    ::
         :: gradient norm              0.000459009163 Eh/a0 ::
         :: HOMO-LUMO gap              2.020352205533 eV    ::
         :: SCC energy               -83.936594336652 Eh    ::
         :: -> Gsolv                  -0.125726906518 Eh    ::
         :: repulsion energy           0.833497744527 Eh    ::

    * Orbital Energies and Occupations

         #    Occupation            Energy/Eh            Energy/eV
      -------------------------------------------------------------
         1        2.0000           -0.9274096             -25.2361
       ...           ...                  ...                  ...
        55        2.0000           -0.5271993             -14.3458
        56        2.0000           -0.5234331             -14.2433
        57        2.0000           -0.5181251             -14.0989
        58        2.0000           -0.5121596             -13.9366
        59        2.0000           -0.5086170             -13.8402
        60        2.0000           -0.4935923             -13.4313
        61        2.0000           -0.4854803             -13.2106
        62        2.0000           -0.4832356             -13.1495
        63        2.0000           -0.4720201             -12.8443
        64        2.0000           -0.4686347             -12.7522
        65        2.0000           -0.4638875             -12.6230
        66        2.0000           -0.4562137             -12.4142
        67        2.0000           -0.4542628             -12.3611 (HOMO)
        68                         -0.3800163             -10.3408 (LUMO)
        69                         -0.3177750              -8.6471
        70                         -0.3164855              -8.6120
        71                         -0.2895542              -7.8792
        72                         -0.2596453              -7.0653
        73                         -0.2047866              -5.5725
        74                         -0.1990403              -5.4162
        75                         -0.1818021              -4.9471
        76                         -0.1726761              -4.6988
        77                         -0.1430730              -3.8932
        78                         -0.1421912              -3.8692
       ...                                ...                  ...
       136                          0.7622546              20.7420
      -------------------------------------------------------------
                  HL-Gap            0.0742466 Eh            2.0204 eV

Wiberg/Mayer (AO) data.
largest (>0.10) Wiberg bond orders for each atom

     #   Z sym  total        # sym  WBO       # sym  WBO       # sym  WBO
 ---------------------------------------------------------------------------
     1   6 C    3.985 --     2 C    1.032    26 H    0.982    28 H    0.965
                            27 H    0.960
     2   6 C    3.867 --     3 N    1.608    25 O    1.071     1 C    1.032
     3   7 N    2.982 --     2 C    1.608     4 N    1.201
     4   7 N    3.002 --     5 C    1.621     3 N    1.201
     5   6 C    3.874 --     4 N    1.621    25 O    1.045     6 C    0.997
     6   6 C    3.912 --     7 O    1.605     8 N    1.225     5 C    0.997
     7   8 O    1.919 --     6 C    1.605     8 N    0.168
     8   7 N    3.319 --     6 C    1.225     9 C    0.931    29 H    0.892
                             7 O    0.168
     9   6 C    3.935 --    10 C    0.988    12 C    0.985    11 C    0.969
                             8 N    0.931
    10   6 C    3.986 --     9 C    0.988    31 H    0.984    32 H    0.983
                            30 H    0.980
    11   6 C    3.983 --    33 H    0.985    35 H    0.984    34 H    0.975
                             9 C    0.969
    12   6 C    3.921 --    13 N    1.587    24 N    1.168     9 C    0.985
    13   7 N    3.035 --    12 C    1.587    14 C    1.152
    14   6 C    3.959 --    20 C    1.427    13 N    1.152    15 C    1.113
    15   6 C    3.805 --    16 O    1.819    14 C    1.113    17 O    0.731
    16   8 O    2.094 --    15 C    1.819
    17   8 O    2.483 --    18 C    0.819    19 C    0.811    15 C    0.731
    18   6 C    3.789 --    37 H    0.979    36 H    0.977    38 H    0.976
                            17 O    0.819
    19   6 C    3.786 --    40 H    0.981    39 H    0.976    41 H    0.969
                            17 O    0.811
    20   6 C    3.911 --    14 C    1.427    21 O    1.178    22 C    1.026
    21   8 O    2.150 --    20 C    1.178    42 H    0.783
    22   6 C    3.913 --    23 O    1.619    24 N    1.146    20 C    1.026
    23   8 O    1.946 --    22 C    1.619    24 N    0.141
    24   7 N    3.477 --    12 C    1.168    22 C    1.146    43 H    0.870
                            23 O    0.141
    25   8 O    2.315 --     2 C    1.071     5 C    1.045
    26   1 H    0.998 --     1 C    0.982
    27   1 H    0.996 --     1 C    0.960
    28   1 H    0.996 --     1 C    0.965
    29   1 H    0.935 --     8 N    0.892
    30   1 H    1.004 --    10 C    0.980
    31   1 H    1.001 --    10 C    0.984
    32   1 H    1.008 --    10 C    0.983
    33   1 H    1.001 --    11 C    0.985
    34   1 H    1.008 --    11 C    0.975
    35   1 H    0.999 --    11 C    0.984
    36   1 H    0.994 --    18 C    0.977
    37   1 H    0.996 --    18 C    0.979
    38   1 H    0.996 --    18 C    0.976
    39   1 H    0.995 --    19 C    0.976
    40   1 H    0.991 --    19 C    0.981
    41   1 H    1.016 --    19 C    0.969
    42   1 H    0.820 --    21 O    0.783
    43   1 H    0.915 --    24 N    0.870
 ---------------------------------------------------------------------------

           -------------------------------------------------
          | TOTAL ENERGY              -83.129816668720 Eh   |
          | GRADIENT NORM               0.000459009163 Eh/α |
          | HOMO-LUMO GAP               2.020352205533 eV   |
           -------------------------------------------------

 * finished run on 2023/06/20 at 15:43:13.069
