   * xtb version 6.5.1 (579679a) compiled by 'ehlert@majestix' on 2022-07-11
          program call               : /lustre/hpc/kemi/ree/PhD/git/ReactivityQM/dep/xtb-6.5.1/bin/xtb --gfn 1 /lustre/hpc/kemi/ree/PhD/git/ReactivityQM/calculations/R02oxygendeprot/reac01prodN14/conf08/R02oxygendeprot_reac01prodN14_conf08_gfn1.xyz --opt --vfukui --chrg 0 --uhf 0 --alpb DMSO

   ID    Z sym.   atoms
    1    6 C      1, 3, 5, 6, 8, 9, 12-15, 17, 19, 22, 23
    2    8 O      2, 4, 7, 10, 18, 24
    3    7 N      11, 16, 20, 21, 25
    4    1 H      26-42

      * Solvation model:               ALPB
        Solvent                        DMSO
        Solvent mass                       7.8130E+01 g/mol
          :  Hamiltonian                  GFN1-xTB          :
 * total energy  :   -82.8971507 Eh     change       -0.1520561E-11 Eh
 * total energy  :   -82.9124245 Eh     change       -0.1527382E-01 Eh
 * total energy  :   -82.9222365 Eh     change       -0.9812017E-02 Eh
 * total energy  :   -82.9245789 Eh     change       -0.2342395E-02 Eh
 * total energy  :   -82.9269825 Eh     change       -0.2403582E-02 Eh
 * total energy  :   -82.9284161 Eh     change       -0.1433660E-02 Eh
 * total energy  :   -82.9299510 Eh     change       -0.1534841E-02 Eh
 * total energy  :   -82.9311785 Eh     change       -0.1227495E-02 Eh
 * total energy  :   -82.9321450 Eh     change       -0.9665545E-03 Eh
 * total energy  :   -82.9327935 Eh     change       -0.6484810E-03 Eh
 * total energy  :   -82.9806557 Eh     change       -0.9357130E-05 Eh
 * total energy  :   -82.9806674 Eh     change       -0.1174013E-04 Eh
 * total energy  :   -82.9806800 Eh     change       -0.1255101E-04 Eh
 * total energy  :   -82.9806898 Eh     change       -0.9804701E-05 Eh
 * total energy  :   -82.9806992 Eh     change       -0.9436328E-05 Eh
 * total energy  :   -82.9807090 Eh     change       -0.9786325E-05 Eh
 * total energy  :   -82.9807144 Eh     change       -0.5391950E-05 Eh
 * total energy  :   -82.9807200 Eh     change       -0.5586145E-05 Eh
 * total energy  :   -82.9807243 Eh     change       -0.4310732E-05 Eh
   *** GEOMETRY OPTIMIZATION CONVERGED AFTER 101 ITERATIONS ***

 final structure:
================
42
 xtb: 6.5.1 (579679a)
C           -4.78504658483248        3.44568820624158        0.53893285861234
O           -3.77547924923843        2.49693845274567        0.19493829774197
C           -4.14088925207554        1.20044274587240        0.23934910204285
O           -5.25877244401844        0.84570043519018        0.55885291810979
C           -3.05100358751899        0.30981317794096       -0.12187010227139
C           -3.12827175162993       -1.07028272618101       -0.20273192055670
O           -3.90071350221870       -1.96870069811338       -0.03681870787703
C           -1.16724695021479       -2.34512634097043        0.48853873463815
C           -0.86927883556509       -1.61805257475829        1.75419926060269
O           -1.30218033832360       -3.51648821523418        0.34072916984396
N           -1.60782458587124       -1.46431811385554       -0.63826895054244
C           -1.00360180376386       -0.13854629145004       -0.82738162211583
C            0.31045446232924        0.09308737086619       -1.53311350372249
C            0.48445688623555       -0.87887585924425       -2.70694459454217
C            0.32272825632199        1.54088987732031       -2.03162611073573
N            1.45396001821370       -0.04184031119731       -0.61665118162797
C            1.78853470968749       -1.20211407275292       -0.03143207161830
O            1.09677619561493       -2.21435163402477       -0.05607564510593
C            3.07471957047564       -1.15061554083423        0.69578800460985
N            3.63785648931517       -2.09667285140610        1.38127043784493
N            4.80426911872668       -1.58949848056471        1.86522328615090
C            4.88338188962125       -0.36424881594270        1.44592492273897
C            5.96119519112004        0.61438500632628        1.70276132511408
O            3.81940727041039       -0.02382713365516        0.69992121405635
N           -1.81466084837906        0.79706849927839       -0.52854254833890
H           -5.13843761833824        3.27290022578429        1.55931477061009
H           -4.32589037506620        4.42966009723107        0.46335545195989
H           -5.62938510197353        3.37067298039622       -0.15201284167516
H           -0.13669052378533       -2.18287619360924        2.32532072001275
H           -0.51345555301671       -0.60914799183710        1.57110859089593
H           -1.79695228314352       -1.57407426597297        2.32678025519462
H           -1.63927999728497       -2.03087532884470       -1.48241962229748
H           -0.33016499422068       -0.74237520780549       -3.41569107425251
H            1.42766327856539       -0.67103365917804       -3.20859432403141
H            0.49019997703548       -1.91103076256098       -2.36139063196270
H            1.26212136201349        1.74748257385775       -2.53995185977460
H           -0.49987905954672        1.69787338850149       -2.72727701449224
H            0.20881783818705        2.22682458102664       -1.19358629606414
H            2.10797394672600        0.72285962522416       -0.58493694627805
H            5.55359003788661        1.49119924151062        2.20570021866201
H            6.72934788003234        0.15973934059040        2.32382473266144
H            6.39765086151095        0.94174724409590        0.75941329777377

          :  Hamiltonian                  GFN1-xTB          :
         :: total energy             -82.980724288728 Eh    ::
         :: gradient norm              0.000686769024 Eh/a0 ::
         :: HOMO-LUMO gap              2.496972738983 eV    ::
         :: SCC energy               -83.775820382293 Eh    ::
         :: -> Gsolv                  -0.066271615219 Eh    ::
         :: repulsion energy           0.822730266088 Eh    ::

    * Orbital Energies and Occupations

         #    Occupation            Energy/Eh            Energy/eV
      -------------------------------------------------------------
         1        2.0000           -0.8706982             -23.6929
       ...           ...                  ...                  ...
        55        2.0000           -0.5072649             -13.8034
        56        2.0000           -0.5055226             -13.7560
        57        2.0000           -0.5012099             -13.6386
        58        2.0000           -0.4878643             -13.2755
        59        2.0000           -0.4857420             -13.2177
        60        2.0000           -0.4853720             -13.2076
        61        2.0000           -0.4764365             -12.9645
        62        2.0000           -0.4703555             -12.7990
        63        2.0000           -0.4653018             -12.6615
        64        2.0000           -0.4585800             -12.4786
        65        2.0000           -0.4563545             -12.4180
        66        2.0000           -0.4548944             -12.3783
        67        2.0000           -0.4160395             -11.3210 (HOMO)
        68                         -0.3242774              -8.8240 (LUMO)
        69                         -0.3061562              -8.3309
        70                         -0.2963095              -8.0630
        71                         -0.2708979              -7.3715
        72                         -0.2610827              -7.1044
        73                         -0.2058378              -5.6011
        74                         -0.1646675              -4.4808
        75                         -0.1508129              -4.1038
        76                         -0.1437546              -3.9118
        77                         -0.1415691              -3.8523
        78                         -0.1368957              -3.7251
       ...                                ...                  ...
       134                          0.8443549              22.9761
      -------------------------------------------------------------
                  HL-Gap            0.0917621 Eh            2.4970 eV

Wiberg/Mayer (AO) data.
largest (>0.10) Wiberg bond orders for each atom

     #   Z sym  total        # sym  WBO       # sym  WBO       # sym  WBO
 ---------------------------------------------------------------------------
     1   6 C    3.881 --    27 H    0.986    26 H    0.981    28 H    0.980
                             2 O    0.907
     2   8 O    2.168 --     3 C    1.071     1 C    0.907     4 O    0.119
     3   6 C    3.864 --     4 O    1.610     5 C    1.088     2 O    1.071
     4   8 O    1.887 --     3 C    1.610     2 O    0.119
     5   6 C    3.886 --     6 C    1.341    25 N    1.119     3 C    1.088
                             7 O    0.136
     6   6 C    3.869 --     7 O    1.687     5 C    1.341    11 N    0.669
     7   8 O    2.032 --     6 C    1.687     5 C    0.136
     8   6 C    3.823 --    10 O    1.810     9 C    1.013    11 N    0.860
     9   6 C    3.986 --     8 C    1.013    30 H    0.978    29 H    0.968
                            31 H    0.943
    10   8 O    2.043 --     8 C    1.810
    11   7 N    3.559 --    12 C    0.894    32 H    0.870     8 C    0.860
                             6 C    0.669
    12   6 C    3.894 --    25 N    1.761    13 C    0.982    11 N    0.894
    13   6 C    3.934 --    15 C    0.995    14 C    0.984    12 C    0.982
                            16 N    0.912
    14   6 C    3.987 --    13 C    0.984    33 H    0.984    34 H    0.982
                            35 H    0.978
    15   6 C    3.989 --    13 C    0.995    36 H    0.983    37 H    0.983
                            38 H    0.982
    16   7 N    3.359 --    17 C    1.281    13 C    0.912    39 H    0.888
                            18 O    0.169
    17   6 C    3.915 --    18 O    1.540    16 N    1.281    19 C    1.002
    18   8 O    1.915 --    17 C    1.540    16 N    0.169
    19   6 C    3.876 --    20 N    1.616    24 O    1.047    17 C    1.002
    20   7 N    3.002 --    19 C    1.616    21 N    1.204
    21   7 N    2.982 --    22 C    1.605    20 N    1.204
    22   6 C    3.866 --    21 N    1.605    24 O    1.073    23 C    1.033
    23   6 C    3.985 --    22 C    1.033    41 H    0.982    40 H    0.962
                            42 H    0.962
    24   8 O    2.317 --    22 C    1.073    19 C    1.047
    25   7 N    3.048 --    12 C    1.761     5 C    1.119
    26   1 H    1.009 --     1 C    0.981
    27   1 H    1.013 --     1 C    0.986
    28   1 H    1.009 --     1 C    0.980
    29   1 H    1.002 --     9 C    0.968
    30   1 H    1.003 --     9 C    0.978
    31   1 H    0.995 --     9 C    0.943
    32   1 H    0.928 --    11 N    0.870
    33   1 H    0.998 --    14 C    0.984
    34   1 H    0.998 --    14 C    0.982
    35   1 H    1.005 --    14 C    0.978
    36   1 H    0.997 --    15 C    0.983
    37   1 H    1.003 --    15 C    0.983
    38   1 H    1.006 --    15 C    0.982
    39   1 H    0.932 --    16 N    0.888
    40   1 H    0.996 --    23 C    0.962
    41   1 H    0.998 --    23 C    0.982
    42   1 H    0.996 --    23 C    0.962
 ---------------------------------------------------------------------------

           -------------------------------------------------
          | TOTAL ENERGY              -82.980724288728 Eh   |
          | GRADIENT NORM               0.000686769024 Eh/α |
          | HOMO-LUMO GAP               2.496972738983 eV   |
           -------------------------------------------------

 * finished run on 2023/06/21 at 17:33:34.412
