                         Program Version 5.0.1 -  RELEASE  -
|  1> # ORCA input file
|  2> ! SP r2SCAN-3c CPCM
|  3>
|  4> %maxcore 1875.0
|  5> %pal nprocs 4 end
|  6> %cpcm smd true SMDsolvent "DMSO" end
|  7>
|  8> *xyz 1 1
|  9> C       2.442619    0.403599    0.921072
| 10> C       1.524062    0.376132   -0.228418
| 11> N       1.802013    0.630056   -1.485162
| 12> N       0.676458    0.483572   -2.179788
| 13> C      -0.260623    0.143467   -1.325171
| 14> C      -1.623919   -0.110712   -1.668796
| 15> C      -2.052428   -0.630656    1.319728
| 16> O      -2.148423   -0.079101   -2.725651
| 17> Cl     -2.785902   -0.557878   -0.309390
| 18> O       0.235450    0.064434   -0.072338
| 19> H       3.449864    0.641172    0.586197
| 20> H       2.106943    1.149608    1.642424
| 21> H       2.434336   -0.564958    1.421596
| 22> H      -1.276492   -1.389665    1.336102
| 23> H      -2.872495   -0.902257    1.980487
| 24> H      -1.651461    0.343186    1.583046
| 25> **                         ****END OF INPUT****

CARTESIAN COORDINATES (ANGSTROEM)
---------------------------------
  C      2.442619    0.403599    0.921072
  C      1.524062    0.376132   -0.228418
  N      1.802013    0.630056   -1.485162
  N      0.676458    0.483572   -2.179788
  C     -0.260623    0.143467   -1.325171
  C     -1.623919   -0.110712   -1.668796
  C     -2.052428   -0.630656    1.319728
  O     -2.148423   -0.079101   -2.725651
  Cl    -2.785902   -0.557878   -0.309390
  O      0.235450    0.064434   -0.072338
  H      3.449864    0.641172    0.586197
  H      2.106943    1.149608    1.642424
  H      2.434336   -0.564958    1.421596
  H     -1.276492   -1.389665    1.336102
  H     -2.872495   -0.902257    1.980487
  H     -1.651461    0.343186    1.583046

 Total Charge           Charge          ....    1
 Multiplicity           Mult            ....    1
 Number of Electrons    NEL             ....   82
 Basis Dimension        Dim             ....  248

ORBITAL ENERGIES
----------------

  NO   OCC          E(Eh)            E(eV)
   0   2.0000    -101.356285     -2758.0447
   1   2.0000     -19.105585      -519.8894
   2   2.0000     -19.050212      -518.3826
   3   2.0000     -14.253386      -387.8544
   4   2.0000     -14.233570      -387.3151
   5   2.0000     -10.254135      -279.0292
   6   2.0000     -10.195219      -277.4260
   7   2.0000     -10.187531      -277.2168
   8   2.0000     -10.129750      -275.6445
   9   2.0000     -10.060393      -273.7572
  10   2.0000      -9.510382      -258.7906
  11   2.0000      -7.255759      -197.4392
  12   2.0000      -7.250029      -197.2833
  13   2.0000      -7.243950      -197.1179
  14   2.0000      -1.197801       -32.5938
  15   2.0000      -1.130474       -30.7618
  16   2.0000      -1.022420       -27.8215
  17   2.0000      -0.951305       -25.8863
  18   2.0000      -0.870994       -23.7010
  19   2.0000      -0.756587       -20.5878
  20   2.0000      -0.733645       -19.9635
  21   2.0000      -0.709614       -19.3096
  22   2.0000      -0.643737       -17.5170
  23   2.0000      -0.621820       -16.9206
  24   2.0000      -0.561956       -15.2916
  25   2.0000      -0.535583       -14.5739
  26   2.0000      -0.509448       -13.8628
  27   2.0000      -0.494286       -13.4502
  28   2.0000      -0.485585       -13.2134
  29   2.0000      -0.470716       -12.8088
  30   2.0000      -0.454811       -12.3760
  31   2.0000      -0.439671       -11.9641
  32   2.0000      -0.416474       -11.3328
  33   2.0000      -0.406670       -11.0660
  34   2.0000      -0.397133       -10.8065
  35   2.0000      -0.383516       -10.4360
  36   2.0000      -0.366481        -9.9725
  37   2.0000      -0.352175        -9.5832
  38   2.0000      -0.350062        -9.5257
  39   2.0000      -0.300208        -8.1691
  40   2.0000      -0.292626        -7.9628
  41   0.0000      -0.167644        -4.5618
  42   0.0000      -0.097155        -2.6437
  43   0.0000      -0.070296        -1.9128
  44   0.0000      -0.056656        -1.5417
  45   0.0000      -0.009860        -0.2683

MULLIKEN ATOMIC CHARGES
-----------------------
   0 C :   -0.624298
   1 C :    0.426410
   2 N :   -0.192513
   3 N :   -0.122858
   4 C :    0.325662
   5 C :    0.148351
   6 C :   -0.298080
   7 O :   -0.227130
   8 Cl:    0.213505
   9 O :   -0.014251
  10 H :    0.216446
  11 H :    0.218436
  12 H :    0.216378
  13 H :    0.234694
  14 H :    0.243858
  15 H :    0.235391
Sum of atomic charges:    1.0000000

LOEWDIN ATOMIC CHARGES
----------------------
   0 C :   -0.302317
   1 C :    0.427155
   2 N :   -0.295790
   3 N :   -0.265214
   4 C :    0.368504
   5 C :    0.280519
   6 C :   -0.314971
   7 O :   -0.303400
   8 Cl:    0.590035
   9 O :   -0.390069
  10 H :    0.199334
  11 H :    0.204500
  12 H :    0.203489
  13 H :    0.197507
  14 H :    0.202947
  15 H :    0.197769

  Mayer bond orders larger than 0.100000
B(  0-C ,  1-C ) :   0.8700 B(  0-C , 10-H ) :   0.9731 B(  0-C , 11-H ) :   0.9251
B(  0-C , 12-H ) :   0.9290 B(  1-C ,  2-N ) :   1.4818 B(  1-C ,  9-O ) :   1.1148
B(  2-N ,  3-N ) :   1.3151 B(  3-N ,  4-C ) :   1.4651 B(  4-C ,  5-C ) :   1.0426
B(  4-C ,  9-O ) :   1.0711 B(  5-C ,  7-O ) :   2.0236 B(  5-C ,  8-Cl) :   0.6972
B(  6-C ,  8-Cl) :   0.8390 B(  6-C , 13-H ) :   0.9258 B(  6-C , 14-H ) :   0.9017
B(  6-C , 15-H ) :   0.9256 B(  7-O ,  8-Cl) :   0.1070

Dispersion correction           -0.005222101
FINAL SINGLE POINT ENERGY      -913.906489614776

DIPOLE MOMENT
-------------
                                X             Y             Z
Electronic contribution:     -9.38553      -0.99869      -7.26177
Nuclear contribution   :      8.24650       0.15574      11.32765
                        -----------------------------------------
Total Dipole Moment    :     -1.13902      -0.84295       4.06588
                        -----------------------------------------
Magnitude (a.u.)       :      4.30573
Magnitude (Debye)      :     10.94430

Rotational constants in cm-1:     0.067208     0.028216     0.020023
Rotational constants in MHz :  2014.859144   845.907794   600.281734

                             ****ORCA TERMINATED NORMALLY****
TOTAL RUN TIME: 0 days 0 hours 0 minutes 22 seconds 179 msec
