   * xtb version 6.5.1 (579679a) compiled by 'ehlert@majestix' on 2022-07-11
          program call               : /lustre/hpc/kemi/ree/PhD/git/ReactivityQM/dep/xtb-6.5.1/bin/xtb --gfn 1 /lustre/hpc/kemi/ree/PhD/git/ReactivityQM/calculations/RaltegravirCLI/reac01prodN06/conf05/RaltegravirCLI_reac01prodN06_conf05_gfn1.xyz --opt --vfukui --chrg 1 --uhf 0 --alpb DMSO

   ID    Z sym.   atoms
    1    6 C      1, 2, 5-7
    2    7 N      3, 4
    3    8 O      8, 10
    4   17 Cl     9
    5    1 H      11-16

      * Solvation model:               ALPB
        Solvent                        DMSO
        Solvent mass                       7.8130E+01 g/mol
          :  Hamiltonian                  GFN1-xTB          :
 * total energy  :   -33.2693670 Eh     change       -0.5291128E-09 Eh
 * total energy  :   -33.2809244 Eh     change       -0.1155744E-01 Eh
 * total energy  :   -33.2877649 Eh     change       -0.6840467E-02 Eh
 * total energy  :   -33.2944336 Eh     change       -0.6668663E-02 Eh
 * total energy  :   -33.2961795 Eh     change       -0.1745928E-02 Eh
 * total energy  :   -33.2978312 Eh     change       -0.1651695E-02 Eh
 * total energy  :   -33.2988288 Eh     change       -0.9976017E-03 Eh
 * total energy  :   -33.2994370 Eh     change       -0.6081590E-03 Eh
 * total energy  :   -33.2997459 Eh     change       -0.3089247E-03 Eh
 * total energy  :   -33.3003447 Eh     change       -0.5987712E-03 Eh
 * total energy  :   -33.3942802 Eh     change       -0.5912288E-04 Eh
 * total energy  :   -33.3943236 Eh     change       -0.4338484E-04 Eh
 * total energy  :   -33.3943334 Eh     change       -0.9739483E-05 Eh
 * total energy  :   -33.3943493 Eh     change       -0.1595337E-04 Eh
 * total energy  :   -33.3943580 Eh     change       -0.8673612E-05 Eh
 * total energy  :   -33.3943695 Eh     change       -0.1155936E-04 Eh
 * total energy  :   -33.3943749 Eh     change       -0.5371969E-05 Eh
 * total energy  :   -33.3943776 Eh     change       -0.2660960E-05 Eh
 * total energy  :   -33.3943791 Eh     change       -0.1563526E-05 Eh
   *** GEOMETRY OPTIMIZATION CONVERGED AFTER 59 ITERATIONS ***

 final structure:
================
16
 xtb: 6.5.1 (579679a)
C            2.44261895215830        0.40359906749462        0.92107184105363
C            1.52406218308017        0.37613242664096       -0.22841792456270
N            1.80201295819179        0.63005628761889       -1.48516200602432
N            0.67645750368026        0.48357219775215       -2.17978805203407
C           -0.26062310851926        0.14346749327906       -1.32517114780919
C           -1.62391947867387       -0.11071247767016       -1.66879578070564
C           -2.05242828524905       -0.63065595235204        1.31972787590890
O           -2.14842337093199       -0.07910090969908       -2.72565084281102
Cl          -2.78590156245170       -0.55787840203678       -0.30938977414541
O            0.23544998343835        0.06443412541716       -0.07233751925173
H            3.44986353835487        0.64117249388450        0.58619686663796
H            2.10694256396836        1.14960784440099        1.64242363901808
H            2.43433593379195       -0.56495768906529        1.42159649847903
H           -1.27649165000191       -1.38966491323691        1.33610233934423
H           -2.87249451097545       -0.90225680132635        1.98048684257319
H           -1.65146064986079        0.34318620889829        1.58304614432895

          :  Hamiltonian                  GFN1-xTB          :
         :: total energy             -33.394379138368 Eh    ::
         :: gradient norm              0.000324204228 Eh/a0 ::
         :: HOMO-LUMO gap              2.775665039924 eV    ::
         :: SCC energy               -33.688428229448 Eh    ::
         :: -> Gsolv                  -0.093375507415 Eh    ::
         :: repulsion energy           0.301353072075 Eh    ::

    * Orbital Energies and Occupations

         #    Occupation            Energy/Eh            Energy/eV
      -------------------------------------------------------------
         1        2.0000           -1.0661197             -29.0106
       ...           ...                  ...                  ...
        15        2.0000           -0.6297804             -17.1372
        16        2.0000           -0.6111056             -16.6290
        17        2.0000           -0.6050228             -16.4635
        18        2.0000           -0.5927013             -16.1282
        19        2.0000           -0.5777310             -15.7209
        20        2.0000           -0.5723879             -15.5755
        21        2.0000           -0.5587783             -15.2051
        22        2.0000           -0.5567056             -15.1487
        23        2.0000           -0.5434865             -14.7890
        24        2.0000           -0.5419216             -14.7464
        25        2.0000           -0.5270357             -14.3414
        26        2.0000           -0.5015470             -13.6478
        27        2.0000           -0.4970119             -13.5244 (HOMO)
        28                         -0.3950081             -10.7487 (LUMO)
        29                         -0.3160009              -8.5988
        30                         -0.3043087              -8.2807
        31                         -0.3008122              -8.1855
        32                         -0.2725489              -7.4164
        33                         -0.1840504              -5.0083
        34                         -0.1837907              -5.0012
        35                         -0.1620991              -4.4109
        36                         -0.1620036              -4.4083
        37                         -0.1566175              -4.2618
        38                         -0.1118300              -3.0430
       ...                                ...                  ...
        57                          0.7525689              20.4784
      -------------------------------------------------------------
                  HL-Gap            0.1020038 Eh            2.7757 eV

Wiberg/Mayer (AO) data.
largest (>0.10) Wiberg bond orders for each atom

     #   Z sym  total        # sym  WBO       # sym  WBO       # sym  WBO
 ---------------------------------------------------------------------------
     1   6 C    3.974 --     2 C    1.046    11 H    0.978    13 H    0.950
                            12 H    0.948
     2   6 C    3.845 --     3 N    1.504    10 O    1.099     1 C    1.046
     3   7 N    3.001 --     2 C    1.504     4 N    1.303
     4   7 N    3.022 --     5 C    1.501     3 N    1.303
     5   6 C    3.884 --     4 N    1.501     6 C    1.113    10 O    1.038
     6   6 C    3.869 --     8 O    1.841     5 C    1.113     9 Cl   0.777
     7   6 C    3.864 --    14 H    0.980    16 H    0.980    15 H    0.969
                             9 Cl   0.898
     8   8 O    2.156 --     6 C    1.841     9 Cl   0.138
     9  17 Cl   1.893 --     7 C    0.898     6 C    0.777     8 O    0.138
    10   8 O    2.337 --     2 C    1.099     5 C    1.038
    11   1 H    0.993 --     1 C    0.978
    12   1 H    0.989 --     1 C    0.948
    13   1 H    0.989 --     1 C    0.950
    14   1 H    1.000 --     7 C    0.980
    15   1 H    0.992 --     7 C    0.969
    16   1 H    1.000 --     7 C    0.980
 ---------------------------------------------------------------------------

           -------------------------------------------------
          | TOTAL ENERGY              -33.394379138368 Eh   |
          | GRADIENT NORM               0.000324204228 Eh/α |
          | HOMO-LUMO GAP               2.775665039924 eV   |
           -------------------------------------------------

 * finished run on 2023/06/20 at 14:55:29.390
