   * xtb version 6.5.1 (579679a) compiled by 'ehlert@majestix' on 2022-07-11
          program call               : /lustre/hpc/kemi/ree/PhD/git/ReactivityQM/dep/xtb-6.5.1/bin/xtb --gfn 1 /lustre/hpc/kemi/ree/PhD/git/ReactivityQM/calculations/RaltegravirCLI/reac01prodE05/conf08/RaltegravirCLI_reac01prodE05_conf08_gfn1.xyz --opt --vfukui --chrg -1 --uhf 0 --alpb DMSO

   ID    Z sym.   atoms
    1    6 C      1, 2, 5-7
    2    7 N      3, 4
    3    8 O      8, 10
    4   17 Cl     9
    5    1 H      11-16

      * Solvation model:               ALPB
        Solvent                        DMSO
        Solvent mass                       7.8130E+01 g/mol
          :  Hamiltonian                  GFN1-xTB          :
 * total energy  :   -34.1226034 Eh     change       -0.3488765E-11 Eh
 * total energy  :   -34.1323827 Eh     change       -0.9779271E-02 Eh
 * total energy  :   -34.1370398 Eh     change       -0.4657118E-02 Eh
 * total energy  :   -34.1385077 Eh     change       -0.1467945E-02 Eh
 * total energy  :   -34.1398181 Eh     change       -0.1310367E-02 Eh
 * total energy  :   -34.1408399 Eh     change       -0.1021750E-02 Eh
 * total energy  :   -34.1420022 Eh     change       -0.1162309E-02 Eh
 * total energy  :   -34.1439034 Eh     change       -0.1901220E-02 Eh
 * total energy  :   -34.1442748 Eh     change       -0.3713952E-03 Eh
 * total energy  :   -34.1462692 Eh     change       -0.1994414E-02 Eh
 * total energy  :   -34.1536771 Eh     change       -0.1861735E-03 Eh
 * total energy  :   -34.1537586 Eh     change       -0.8154105E-04 Eh
 * total energy  :   -34.1537987 Eh     change       -0.4008110E-04 Eh
 * total energy  :   -34.1538293 Eh     change       -0.3059034E-04 Eh
 * total energy  :   -34.1538574 Eh     change       -0.2809966E-04 Eh
 * total energy  :   -34.1538770 Eh     change       -0.1959677E-04 Eh
 * total energy  :   -34.1538885 Eh     change       -0.1151277E-04 Eh
 * total energy  :   -34.1538957 Eh     change       -0.7216950E-05 Eh
 * total energy  :   -34.1539002 Eh     change       -0.4440551E-05 Eh
   *** GEOMETRY OPTIMIZATION CONVERGED AFTER 23 ITERATIONS ***

 final structure:
================
16
 xtb: 6.5.1 (579679a)
C            2.58400146456143        0.41292809802120       -0.47918899765222
C            1.21977761605587        0.16197490879968        0.06225295588173
N            0.92078988009898        0.05825090130530        1.29365410868228
N           -0.47558334221504       -0.20326454402064        1.38283402640452
C           -0.95066847713366       -0.19245686827905       -0.03975512737375
C           -1.82690480618983       -1.33097162870884       -0.49925954615004
C           -1.39403016406493        0.86460618175098        0.90504619735996
O           -2.50970352285749        1.05943791896060        1.39953274377013
Cl          -0.42423087286650        2.56378579782147        0.54464617447847
O            0.20398416743128        0.00633138581267       -0.82907599876950
H            3.24760663886061       -0.40858102873112       -0.21208697459602
H            2.99318494852677        1.33145047375824       -0.06033154600580
H            2.54217875972590        0.49852642084977       -1.56207000418560
H           -2.64194067999686       -1.46097425491305        0.21008882396994
H           -2.23933021420773       -1.10857453409147       -1.48191818376756
H           -1.24913239572877       -2.25246922833571       -0.56086365204656

          :  Hamiltonian                  GFN1-xTB          :
         :: total energy             -34.153900172846 Eh    ::
         :: gradient norm              0.000733456614 Eh/a0 ::
         :: HOMO-LUMO gap              3.336399409672 eV    ::
         :: SCC energy               -34.407664697772 Eh    ::
         :: -> Gsolv                  -0.097905361402 Eh    ::
         :: repulsion energy           0.261537563435 Eh    ::

    * Orbital Energies and Occupations

         #    Occupation            Energy/Eh            Energy/eV
      -------------------------------------------------------------
         1        2.0000           -0.8414401             -22.8968
       ...           ...                  ...                  ...
        16        2.0000           -0.5169985             -14.0682
        17        2.0000           -0.5129189             -13.9572
        18        2.0000           -0.5045311             -13.7290
        19        2.0000           -0.5006516             -13.6234
        20        2.0000           -0.4945374             -13.4570
        21        2.0000           -0.4722298             -12.8500
        22        2.0000           -0.4450520             -12.1105
        23        2.0000           -0.4401544             -11.9772
        24        2.0000           -0.4345171             -11.8238
        25        2.0000           -0.4288958             -11.6708
        26        2.0000           -0.4205444             -11.4436
        27        2.0000           -0.4064860             -11.0610
        28        2.0000           -0.3487313              -9.4895 (HOMO)
        29                         -0.2261209              -6.1531 (LUMO)
        30                         -0.1973635              -5.3705
        31                         -0.1269462              -3.4544
        32                         -0.1171887              -3.1889
        33                         -0.0828846              -2.2554
        34                         -0.0613528              -1.6695
        35                         -0.0575549              -1.5661
        36                         -0.0520808              -1.4172
        37                         -0.0489266              -1.3314
        38                          0.0045770               0.1245
        39                          0.0248357               0.6758
       ...                                ...                  ...
        57                          0.6551747              17.8282
      -------------------------------------------------------------
                  HL-Gap            0.1226104 Eh            3.3364 eV

Wiberg/Mayer (AO) data.
largest (>0.10) Wiberg bond orders for each atom

     #   Z sym  total        # sym  WBO       # sym  WBO       # sym  WBO
 ---------------------------------------------------------------------------
     1   6 C    3.993 --     2 C    1.017    13 H    0.986    12 H    0.972
                            11 H    0.970
     2   6 C    3.897 --     3 N    1.758    10 O    1.028     1 C    1.017
     3   7 N    2.971 --     2 C    1.758     4 N    1.003    10 O    0.114
     4   7 N    2.948 --     3 N    1.003     5 C    0.877     7 C    0.845
     5   6 C    3.812 --     6 C    0.996    10 O    0.914     7 C    0.895
                             4 N    0.877
     6   6 C    3.995 --     5 C    0.996    14 H    0.984    16 H    0.982
                            15 H    0.982
     7   6 C    3.870 --     8 O    1.477     5 C    0.895     4 N    0.845
                             9 Cl   0.572
     8   8 O    1.790 --     7 C    1.477     9 Cl   0.119
     9  17 Cl   0.759 --     7 C    0.572     8 O    0.119
    10   8 O    2.153 --     2 C    1.028     5 C    0.914     3 N    0.114
    11   1 H    1.004 --     1 C    0.970
    12   1 H    1.004 --     1 C    0.972
    13   1 H    1.003 --     1 C    0.986
    14   1 H    1.009 --     6 C    0.984
    15   1 H    1.007 --     6 C    0.982
    16   1 H    1.008 --     6 C    0.982
 ---------------------------------------------------------------------------

           -------------------------------------------------
          | TOTAL ENERGY              -34.153900172846 Eh   |
          | GRADIENT NORM               0.000733456614 Eh/α |
          | HOMO-LUMO GAP               3.336399409672 eV   |
           -------------------------------------------------

 * finished run on 2023/06/20 at 14:53:34.801
