   * xtb version 6.5.1 (579679a) compiled by 'ehlert@majestix' on 2022-07-11
          program call               : /lustre/hpc/kemi/ree/PhD/git/ReactivityQM/dep/xtb-6.5.1/bin/xtb --gfn 1 /lustre/hpc/kemi/ree/PhD/git/ReactivityQM/calculations/R02methylcation/reac01prodE06/conf15/R02methylcation_reac01prodE06_conf15_gfn1.xyz --opt --vfukui --chrg -2 --uhf 0 --alpb DMSO

   ID    Z sym.   atoms
    1    6 C      1, 3, 5, 6, 8, 11-15, 17, 19, 22, 23
    2    8 O      2, 4, 7, 9, 18, 24
    3    7 N      10, 16, 20, 21, 25
    4    1 H      26-42

      * Solvation model:               ALPB
        Solvent                        DMSO
        Solvent mass                       7.8130E+01 g/mol
          :  Hamiltonian                  GFN1-xTB          :
 * total energy  :   -83.6065637 Eh     change       -0.1061267E-09 Eh
 * total energy  :   -83.6179150 Eh     change       -0.1135129E-01 Eh
 * total energy  :   -83.6219075 Eh     change       -0.3992523E-02 Eh
 * total energy  :   -83.6228248 Eh     change       -0.9172414E-03 Eh
 * total energy  :   -83.6233813 Eh     change       -0.5565355E-03 Eh
 * total energy  :   -83.6236063 Eh     change       -0.2249353E-03 Eh
 * total energy  :   -83.6237563 Eh     change       -0.1500562E-03 Eh
 * total energy  :   -83.6238718 Eh     change       -0.1155076E-03 Eh
 * total energy  :   -83.6239632 Eh     change       -0.9135683E-04 Eh
 * total energy  :   -83.6240448 Eh     change       -0.8160809E-04 Eh
 * total energy  :   -83.6247328 Eh     change       -0.1494969E-04 Eh
 * total energy  :   -83.6247445 Eh     change       -0.1166534E-04 Eh
 * total energy  :   -83.6246961 Eh     change        0.4837076E-04 Eh
 * total energy  :   -83.6247681 Eh     change       -0.7200151E-04 Eh
 * total energy  :   -83.6247650 Eh     change        0.3160132E-05 Eh
 * total energy  :   -83.6247737 Eh     change       -0.8760819E-05 Eh
 * total energy  :   -83.6247786 Eh     change       -0.4886029E-05 Eh
 * total energy  :   -83.6247846 Eh     change       -0.6034204E-05 Eh
 * total energy  :   -83.6247872 Eh     change       -0.2567762E-05 Eh
   *** GEOMETRY OPTIMIZATION CONVERGED AFTER 44 ITERATIONS ***

 final structure:
================
42
 xtb: 6.5.1 (579679a)
C           -3.53593569897872       -3.29272465542138       -1.27162072608792
O           -2.88839558183352       -2.07379386814618       -0.96545308672964
C           -3.31032926001880       -1.45241256453386        0.19933261506278
O           -4.18156395945835       -1.99284881750262        0.87807410570487
C           -2.61014189447668       -0.20540799715373        0.45425044827320
C           -2.89002325869423        0.53761961566566        1.64301069706775
O           -3.84372060842604        0.31319293905640        2.44991432447520
C           -1.90859262372062        1.61628587183517        1.95753292252717
O           -1.87050836268851        2.24309289006418        3.02709267893776
N           -0.90901633034279        1.82788365633826        1.02758623301460
C           -1.10121025419363        1.44196489112159       -0.36877018506899
C           -2.03287305779269        2.48271491273440       -1.04521328694378
C            0.30357692733490        1.37523466162341       -1.05907143011190
C            0.15868012173105        0.83796200391165       -2.48999931469378
C            1.04388910544185        2.71958022502563       -1.08210963595345
N            1.05175329961500        0.41188612686872       -0.25374193534176
C            2.35194925805551        0.06093395897038       -0.44555126617307
O            3.03720969368172        0.39757806199246       -1.42611403175877
C            2.83324567040649       -0.79398963866204        0.62885012992091
N            2.13346469018575       -1.20402661768438        1.67273681204873
N            2.96616858779648       -1.99428044226871        2.41584005713664
C            4.10481254906067       -2.02537515589981        1.80387652326105
C            5.33078256939044       -2.74436635723337        2.22608467733065
O            4.10703067653769       -1.29631246171686        0.66703265047252
N           -1.66492477576023        0.12986094739609       -0.46925224024699
H           -3.36872965167663       -4.04095125967793       -0.48730367102590
H           -3.11842965039886       -3.65551977545346       -2.21119787933689
H           -4.61649330435328       -3.14824289361146       -1.38748008708930
H           -0.38682867041414        2.67691225787864        1.17617758813558
H           -2.17584555401457        2.23550174127862       -2.09452089730769
H           -3.00296998466459        2.46148440081424       -0.54842703535628
H           -1.62295425191315        3.48692869952834       -0.96327623232155
H            1.13771451999444        0.61634813630183       -2.91218328809933
H           -0.44437079397212       -0.07171783729664       -2.48042897227164
H           -0.32656977111069        1.57786912663792       -3.12423386008534
H            0.48390589616998        3.45217190245076       -1.65985482629707
H            2.02110220992607        2.59496871964728       -1.54788328944672
H            1.19195796512724        3.10454018219390       -0.07425907889085
H            0.62716066082351        0.15746585329150        0.63391657636410
H            5.10756012374109       -3.37274748523965        3.08452933963192
H            5.70673015655243       -3.36153619424915        1.41132021724096
H            6.11173561733021       -2.03372476087025        2.49733766002673

          :  Hamiltonian                  GFN1-xTB          :
         :: total energy             -83.624787210100 Eh    ::
         :: gradient norm              0.000342077140 Eh/a0 ::
         :: HOMO-LUMO gap              0.086372117797 eV    ::
         :: SCC energy               -84.347876132820 Eh    ::
         :: -> Gsolv                  -0.282412119127 Eh    ::
         :: repulsion energy           0.750364622712 Eh    ::

    * Orbital Energies and Occupations

         #    Occupation            Energy/Eh            Energy/eV
      -------------------------------------------------------------
         1        2.0000           -0.8196589             -22.3041
       ...           ...                  ...                  ...
        56        2.0000           -0.4451742             -12.1138
        57        2.0000           -0.4429320             -12.0528
        58        2.0000           -0.4216554             -11.4738
        59        2.0000           -0.4195098             -11.4154
        60        2.0000           -0.4135911             -11.2544
        61        2.0000           -0.4097051             -11.1486
        62        2.0000           -0.4059044             -11.0452
        63        2.0000           -0.3983226             -10.8389
        64        2.0000           -0.3926623             -10.6849
        65        2.0000           -0.3811048             -10.3704
        66        2.0000           -0.3652465              -9.9389
        67        2.0000           -0.3342668              -9.0959
        68        1.6833           -0.2762867              -7.5181 (HOMO)
        69        0.3167           -0.2731126              -7.4318 (LUMO)
        70                         -0.2393832              -6.5139
        71                         -0.2235472              -6.0830
        72                         -0.1654920              -4.5033
        73                         -0.1527032              -4.1553
        74                         -0.1303914              -3.5481
        75                         -0.1141314              -3.1057
        76                         -0.1084206              -2.9503
        77                         -0.1011487              -2.7524
        78                         -0.0881010              -2.3974
        79                         -0.0839767              -2.2851
       ...                                ...                  ...
       134                          0.7543767              20.5276
      -------------------------------------------------------------
                  HL-Gap            0.0031741 Eh            0.0864 eV

Wiberg/Mayer (AO) data.
largest (>0.10) Wiberg bond orders for each atom

     #   Z sym  total        # sym  WBO       # sym  WBO       # sym  WBO
 ---------------------------------------------------------------------------
     1   6 C    3.914 --    27 H    0.987    26 H    0.980    28 H    0.980
                             2 O    0.943
     2   8 O    2.113 --     3 C    0.989     1 C    0.943
     3   6 C    3.814 --     4 O    1.557     5 C    1.123     2 O    0.989
     4   8 O    1.831 --     3 C    1.557
     5   6 C    3.915 --    25 N    1.274     6 C    1.224     3 C    1.123
     6   6 C    3.874 --     7 O    1.416     5 C    1.224     8 C    1.011
     7   8 O    1.663 --     6 C    1.416
     8   6 C    3.857 --     9 O    1.532    10 N    1.144     6 C    1.011
     9   8 O    1.797 --     8 C    1.532    10 N    0.124
    10   7 N    3.245 --     8 C    1.144    11 C    0.925    29 H    0.917
                             9 O    0.124
    11   6 C    3.942 --    25 N    1.024    12 C    0.964    13 C    0.948
                            10 N    0.925
    12   6 C    3.975 --    32 H    0.984    31 H    0.984    30 H    0.983
                            11 C    0.964
    13   6 C    3.933 --    14 C    0.996    15 C    0.994    11 C    0.948
                            16 N    0.931
    14   6 C    3.994 --    13 C    0.996    35 H    0.985    33 H    0.983
                            34 H    0.980
    15   6 C    3.993 --    13 C    0.994    36 H    0.984    38 H    0.982
                            37 H    0.980
    16   7 N    3.278 --    17 C    1.204    13 C    0.931    39 H    0.901
                            18 O    0.148
    17   6 C    3.832 --    18 O    1.474    16 N    1.204    19 C    1.072
    18   8 O    1.755 --    17 C    1.474    16 N    0.148
    19   6 C    3.737 --    20 N    1.476    17 C    1.072    24 O    1.004
    20   7 N    2.844 --    19 C    1.476    21 N    1.184
    21   7 N    2.980 --    22 C    1.627    20 N    1.184
    22   6 C    3.836 --    21 N    1.627    24 O    1.060    23 C    1.026
    23   6 C    3.992 --    22 C    1.026    40 H    0.985    41 H    0.972
                            42 H    0.967
    24   8 O    2.226 --    22 C    1.060    19 C    1.004
    25   7 N    2.650 --     5 C    1.274    11 C    1.024
    26   1 H    1.018 --     1 C    0.980
    27   1 H    1.019 --     1 C    0.987
    28   1 H    1.018 --     1 C    0.980
    29   1 H    0.969 --    10 N    0.917
    30   1 H    1.012 --    12 C    0.983
    31   1 H    1.011 --    12 C    0.984
    32   1 H    1.007 --    12 C    0.984
    33   1 H    1.018 --    14 C    0.983
    34   1 H    1.035 --    14 C    0.980
    35   1 H    1.008 --    14 C    0.985
    36   1 H    1.007 --    15 C    0.984
    37   1 H    1.016 --    15 C    0.980
    38   1 H    1.006 --    15 C    0.982
    39   1 H    0.992 --    16 N    0.901
    40   1 H    1.003 --    23 C    0.985
    41   1 H    1.000 --    23 C    0.972
    42   1 H    1.000 --    23 C    0.967
 ---------------------------------------------------------------------------

           -------------------------------------------------
          | TOTAL ENERGY              -83.624787210100 Eh   |
          | GRADIENT NORM               0.000342077140 Eh/α |
          | HOMO-LUMO GAP               0.086372117797 eV   |
           -------------------------------------------------

 * finished run on 2023/06/21 at 17:15:11.302
