   * xtb version 6.5.1 (579679a) compiled by 'ehlert@majestix' on 2022-07-11
          program call               : /lustre/hpc/kemi/ree/PhD/git/ReactivityQM/dep/xtb-6.5.1/bin/xtb --gfn 1 /lustre/hpc/kemi/ree/PhD/git/ReactivityQM/calculations/R03/reac02prodE02/conf08/R03_reac02prodE02_conf08_gfn1.xyz --opt --vfukui --chrg -1 --uhf 0 --alpb DMSO

   ID    Z sym.   atoms
    1    6 C      1, 3, 4, 6, 8-11, 13, 15, 18, 19, 22, 23, 25
    2    8 O      2, 5, 14, 20, 24, 26
    3    7 N      7, 12, 16, 17, 21
    4    1 H      27-46

      * Solvation model:               ALPB
        Solvent                        DMSO
        Solvent mass                       7.8130E+01 g/mol
          :  Hamiltonian                  GFN1-xTB          :
 * total energy  :   -87.0234625 Eh     change       -0.5168488E-10 Eh
 * total energy  :   -87.0364863 Eh     change       -0.1302387E-01 Eh
 * total energy  :   -87.0417483 Eh     change       -0.5261960E-02 Eh
 * total energy  :   -87.0434721 Eh     change       -0.1723812E-02 Eh
 * total energy  :   -87.0444020 Eh     change       -0.9299041E-03 Eh
 * total energy  :   -87.0448693 Eh     change       -0.4673056E-03 Eh
 * total energy  :   -87.0451434 Eh     change       -0.2740313E-03 Eh
 * total energy  :   -87.0453082 Eh     change       -0.1647982E-03 Eh
 * total energy  :   -87.0454064 Eh     change       -0.9822801E-04 Eh
 * total energy  :   -87.0454823 Eh     change       -0.7587281E-04 Eh
 * total energy  :   -87.0464172 Eh     change       -0.3963189E-04 Eh
 * total energy  :   -87.0464284 Eh     change       -0.1117464E-04 Eh
 * total energy  :   -87.0464366 Eh     change       -0.8187847E-05 Eh
 * total energy  :   -87.0464532 Eh     change       -0.1659513E-04 Eh
 * total energy  :   -87.0464635 Eh     change       -0.1026507E-04 Eh
 * total energy  :   -87.0464721 Eh     change       -0.8650024E-05 Eh
 * total energy  :   -87.0464817 Eh     change       -0.9531227E-05 Eh
 * total energy  :   -87.0464855 Eh     change       -0.3813974E-05 Eh
 * total energy  :   -87.0464897 Eh     change       -0.4230689E-05 Eh
   *** GEOMETRY OPTIMIZATION CONVERGED AFTER 63 ITERATIONS ***

 final structure:
================
46
 xtb: 6.5.1 (579679a)
C           -0.53337560080780        2.99391419264807        0.59418309758438
O           -1.04478673733261        2.45950286505553       -0.60097219683076
C           -2.48871781345628        2.02283831856158       -0.49765162943091
C           -2.94265477293968        2.05510594193062       -2.00028511458270
O           -3.19576970253246        2.72244348626782        0.31818049686788
C           -2.41306667977669        0.47828329013916       -0.11222312770077
N           -1.18772347729898       -0.09033840036907        0.07694878539705
C           -1.02672488663377       -1.31843360132626        0.45326130352960
C            0.42687261061646       -1.80368028080767        0.55244135399703
C            0.74068739779438       -2.79937244994132       -0.57700564637398
C            0.78298269228904       -2.35962229275489        1.93813952419139
N            1.25061631248869       -0.61139177204519        0.32529561480824
C            2.58825214412645       -0.60414952316358        0.26008161986546
O            3.32582630365398       -1.56179453817810        0.44687119491741
C            3.10830224079353        0.75333857652971       -0.06621758579350
N            2.41094709719274        1.82331082905428       -0.29301049392108
N            3.29801642894247        2.82557419137392       -0.55280029083051
C            4.48139386193904        2.30216270039241       -0.46891802537359
C            5.78275050225449        2.97829111963991       -0.66399429508852
O            4.43039763487491        0.99650197096293       -0.16590797723419
N           -2.10162394098562       -2.13655222794949        0.69922263399586
C           -2.02158419149738       -3.49283197591416        1.23497324533286
C           -3.40146314575516       -1.66953355016452        0.50331587023302
O           -4.38723248429001       -2.38783690101063        0.70763236632056
C           -3.51705473360130       -0.30482693129335        0.06156645219253
O           -4.79053366753223        0.12820800386995       -0.15087954279208
H            0.44480723088506        3.43371373167044        0.37615203850233
H           -0.39652362031501        2.21837500416366        1.36651247785345
H           -1.18665719201189        3.77840232903621        1.00870776792746
H           -2.92884700049606        3.08981654241685       -2.33965803383942
H           -3.95656944748679        1.66729096262525       -2.07248004337698
H           -2.27500183684652        1.45903763849933       -2.61982612350240
H            0.11184219406289       -3.68237776514716       -0.51730313923211
H            1.78014495076980       -3.11464866226245       -0.50672965034578
H            0.57872926751736       -2.31968388681792       -1.54157233529587
H            1.86467276251562       -2.44189048340402        2.02699763665790
H            0.36434295785529       -3.34908164649323        2.08971861098147
H            0.41554534236462       -1.69070685408014        2.71505485333322
H            0.72982146052136        0.23783880014558        0.09318102345070
H            6.39904216401205        2.86411822329931        0.22721883952000
H            6.31579792378403        2.52930990659804       -1.50231328911119
H            5.61917908197964        4.03501696352950       -0.86234222041710
H           -1.89337864549867       -3.45607688896234        2.31669742338966
H           -1.20865419911076       -4.04919720260614        0.78321314682085
H           -2.96045325444223       -3.99789188651646        1.00780695427291
H           -5.39257553258928       -0.61047486720350        0.03630842913272

          :  Hamiltonian                  GFN1-xTB          :
         :: total energy             -87.046489695369 Eh    ::
         :: gradient norm              0.000576318955 Eh/a0 ::
         :: HOMO-LUMO gap              1.087455849041 eV    ::
         :: SCC energy               -87.841796749880 Eh    ::
         :: -> Gsolv                  -0.131503234925 Eh    ::
         :: repulsion energy           0.825752708028 Eh    ::

    * Orbital Energies and Occupations

         #    Occupation            Energy/Eh            Energy/eV
      -------------------------------------------------------------
         1        2.0000           -0.8577020             -23.3393
       ...           ...                  ...                  ...
        59        2.0000           -0.4612211             -12.5505
        60        2.0000           -0.4558976             -12.4056
        61        2.0000           -0.4536719             -12.3450
        62        2.0000           -0.4465990             -12.1526
        63        2.0000           -0.4448406             -12.1047
        64        2.0000           -0.4385139             -11.9326
        65        2.0000           -0.4369900             -11.8911
        66        2.0000           -0.4337542             -11.8031
        67        2.0000           -0.4200208             -11.4293
        68        2.0000           -0.4043879             -11.0040
        69        2.0000           -0.3932986             -10.7022
        70        2.0000           -0.3611667              -9.8278
        71        2.0000           -0.3414646              -9.2917 (HOMO)
        72                         -0.3015013              -8.2043 (LUMO)
        73                         -0.2751380              -7.4869
        74                         -0.2513338              -6.8391
        75                         -0.2499954              -6.8027
        76                         -0.1900083              -5.1704
        77                         -0.1427621              -3.8848
        78                         -0.1407848              -3.8309
        79                         -0.1394015              -3.7933
        80                         -0.1218012              -3.3144
        81                         -0.1100666              -2.9951
        82                         -0.0977675              -2.6604
       ...                                ...                  ...
       144                          0.7252204              19.7343
      -------------------------------------------------------------
                  HL-Gap            0.0399633 Eh            1.0875 eV

Wiberg/Mayer (AO) data.
largest (>0.10) Wiberg bond orders for each atom

     #   Z sym  total        # sym  WBO       # sym  WBO       # sym  WBO
 ---------------------------------------------------------------------------
     1   6 C    3.935 --    27 H    0.983    28 H    0.979     2 O    0.975
                            29 H    0.975
     2   8 O    1.945 --     1 C    0.975     3 C    0.791
     3   6 C    3.897 --     5 O    1.257     4 C    0.924     6 C    0.872
                             2 O    0.791
     4   6 C    3.991 --    32 H    0.991    31 H    0.987    30 H    0.986
                             3 C    0.924
     5   8 O    1.539 --     3 C    1.257
     6   6 C    3.912 --    25 C    1.511     7 N    1.204     3 C    0.872
     7   7 N    3.075 --     8 C    1.562     6 C    1.204
     8   6 C    3.936 --     7 N    1.562    21 N    1.174     9 C    0.972
     9   6 C    3.937 --    11 C    0.987    10 C    0.980     8 C    0.972
                            12 N    0.931
    10   6 C    3.990 --    35 H    0.985     9 C    0.980    34 H    0.979
                            33 H    0.976
    11   6 C    3.990 --     9 C    0.987    38 H    0.985    37 H    0.981
                            36 H    0.977
    12   7 N    3.371 --    13 C    1.288     9 C    0.931    39 H    0.862
                            14 O    0.185
    13   6 C    3.922 --    14 O    1.567    12 N    1.288    15 C    0.984
    14   8 O    1.893 --    13 C    1.567    12 N    0.185
    15   6 C    3.872 --    16 N    1.617    20 O    1.059    13 C    0.984
    16   7 N    3.024 --    15 C    1.617    17 N    1.194
    17   7 N    2.982 --    18 C    1.611    16 N    1.194
    18   6 C    3.874 --    17 N    1.611    20 O    1.082    19 C    1.030
    19   6 C    3.988 --    18 C    1.030    42 H    0.983    40 H    0.965
                            41 H    0.964
    20   8 O    2.324 --    18 C    1.082    15 C    1.059
    21   7 N    3.491 --     8 C    1.174    23 C    1.104    22 C    0.938
                            24 O    0.122
    22   6 C    3.933 --    43 H    0.977    44 H    0.975    45 H    0.972
                            21 N    0.938
    23   6 C    3.910 --    24 O    1.508    25 C    1.133    21 N    1.104
    24   8 O    1.861 --    23 C    1.508    21 N    0.122
    25   6 C    3.914 --     6 C    1.511    23 C    1.133    26 O    1.044
    26   8 O    2.031 --    25 C    1.044    46 H    0.829
    27   1 H    1.035 --     1 C    0.983
    28   1 H    1.024 --     1 C    0.979
    29   1 H    1.036 --     1 C    0.975
    30   1 H    1.018 --     4 C    0.986
    31   1 H    1.020 --     4 C    0.987
    32   1 H    1.013 --     4 C    0.991
    33   1 H    1.005 --    10 C    0.976
    34   1 H    1.009 --    10 C    0.979
    35   1 H    1.003 --    10 C    0.985
    36   1 H    1.009 --    11 C    0.977
    37   1 H    1.004 --    11 C    0.981
    38   1 H    1.003 --    11 C    0.985
    39   1 H    0.975 --    12 N    0.862
    40   1 H    0.997 --    19 C    0.965
    41   1 H    0.997 --    19 C    0.964
    42   1 H    0.999 --    19 C    0.983
    43   1 H    1.004 --    22 C    0.977
    44   1 H    1.010 --    22 C    0.975
    45   1 H    1.011 --    22 C    0.972
    46   1 H    0.871 --    26 O    0.829
 ---------------------------------------------------------------------------

           -------------------------------------------------
          | TOTAL ENERGY              -87.046489695369 Eh   |
          | GRADIENT NORM               0.000576318955 Eh/α |
          | HOMO-LUMO GAP               1.087455849041 eV   |
           -------------------------------------------------

 * finished run on 2023/06/20 at 15:15:33.269
