   * xtb version 6.5.1 (579679a) compiled by 'ehlert@majestix' on 2022-07-11
          program call               : /lustre/hpc/kemi/ree/PhD/git/ReactivityQM/dep/xtb-6.5.1/bin/xtb --gfn 1 /lustre/hpc/kemi/ree/PhD/git/ReactivityQM/calculations/R02methylcation/reac01prodN07/conf12/R02methylcation_reac01prodN07_conf12_gfn1.xyz --opt --vfukui --chrg 0 --uhf 0 --alpb DMSO

   ID    Z sym.   atoms
    1    6 C      1, 3, 5, 7-10, 12, 14, 17-19, 22, 24
    2    8 O      2, 4, 13, 20, 23, 25
    3    7 N      6, 11, 15, 16, 21
    4    1 H      26-42

      * Solvation model:               ALPB
        Solvent                        DMSO
        Solvent mass                       7.8130E+01 g/mol
          :  Hamiltonian                  GFN1-xTB          :
 * total energy  :   -82.9503659 Eh     change       -0.1918536E-08 Eh
 * total energy  :   -82.9673965 Eh     change       -0.1703052E-01 Eh
 * total energy  :   -82.9744269 Eh     change       -0.7030487E-02 Eh
 * total energy  :   -82.9756712 Eh     change       -0.1244278E-02 Eh
 * total energy  :   -82.9764633 Eh     change       -0.7920370E-03 Eh
 * total energy  :   -82.9767969 Eh     change       -0.3336380E-03 Eh
 * total energy  :   -82.9771378 Eh     change       -0.3409554E-03 Eh
 * total energy  :   -82.9773588 Eh     change       -0.2209491E-03 Eh
 * total energy  :   -82.9775250 Eh     change       -0.1662344E-03 Eh
 * total energy  :   -82.9776569 Eh     change       -0.1318394E-03 Eh
 * total energy  :   -82.9804079 Eh     change       -0.1311157E-04 Eh
 * total energy  :   -82.9804227 Eh     change       -0.1478172E-04 Eh
 * total energy  :   -82.9804385 Eh     change       -0.1576485E-04 Eh
 * total energy  :   -82.9804516 Eh     change       -0.1317699E-04 Eh
 * total energy  :   -82.9804627 Eh     change       -0.1106545E-04 Eh
 * total energy  :   -82.9804707 Eh     change       -0.7953298E-05 Eh
 * total energy  :   -82.9804767 Eh     change       -0.6055943E-05 Eh
 * total energy  :   -82.9804879 Eh     change       -0.1121634E-04 Eh
 * total energy  :   -82.9804921 Eh     change       -0.4146260E-05 Eh
   *** GEOMETRY OPTIMIZATION CONVERGED AFTER 68 ITERATIONS ***

 final structure:
================
42
 xtb: 6.5.1 (579679a)
C           -1.21682396993657        2.70487636274163        2.59936300776849
O           -1.49554903433623        1.50662142723527        1.88976693979127
C           -2.70049876514489        0.91620104840343        2.17861087285270
O           -3.45084441261733        1.41906109121793        2.99736760293821
C           -2.91266708135343       -0.29823098897682        1.41282350008801
N           -1.88217709246761       -0.63321538596178        0.55450104059853
C           -1.95121446073757       -1.67723467035681       -0.18465285175505
C           -0.79909374722229       -2.01550387703844       -1.11164146220259
C           -1.24423519447367       -1.96970964821394       -2.57865744648944
C           -0.19184610895899       -3.37846969333492       -0.75565072410793
N            0.19221215087349       -0.96156764687486       -0.86785114703283
C            1.37779987718855       -0.87860128376724       -1.46044778856371
O            1.84314398680164       -1.61825834367509       -2.30524853826690
C            2.15747082082101        0.30674987435593       -0.94165527900760
N            1.78491498697623        1.18029103697381       -0.05521714620030
N            2.83587059157888        2.01481000898794        0.07125539764376
C            2.76599262269749        3.12012282021745        1.00135654884164
C            3.81001167131169        1.63473558041145       -0.72769162379583
C            5.14389125106607        2.22710729216282       -0.92505274243522
O            3.40546466757733        0.56254116733040       -1.37586648649663
N           -3.04246181271827       -2.51424297533282       -0.16657259463685
C           -4.13681073616384       -2.31381670926452        0.64403257437267
O           -5.06820034019975       -3.10993659435307        0.61078110431277
C           -4.08953066808785       -1.08510111313732        1.53026432316866
O           -5.05313965081541       -0.85292531679449        2.27718781469626
H           -1.95547949663272        3.47813982476201        2.36396439347364
H           -0.22853701383481        3.03393676356596        2.28212403264649
H           -1.21650531728601        2.52738985677680        3.67978088195737
H           -2.02570911910621       -2.70815662249391       -2.74677432689576
H           -1.62989754631867       -0.98019952340161       -2.81981830582417
H           -0.40311256050310       -2.19329380444197       -3.23210539677999
H            0.64490436262225       -3.59979825400307       -1.41541284402299
H           -0.94427487687138       -4.15617746322987       -0.87117030368117
H            0.15939810872605       -3.37175654957853        0.27520072540799
H           -0.09489175961838       -0.27265992336465       -0.16937105790308
H            3.66657834935459        3.71728100920552        0.89791418839406
H            2.68965724236351        2.72024353218593        2.01175624680340
H            1.88373032428300        3.71392679443159        0.76745577339879
H            5.65674144477233        1.70065817794415       -1.72768283402065
H            5.72603883392523        2.14481112529404       -0.00593505974021
H            5.05418779619645        3.28479678068784       -1.17288930958820
H           -3.06450932370707       -3.32544718733160       -0.76224069970343

          :  Hamiltonian                  GFN1-xTB          :
         :: total energy             -82.980492077783 Eh    ::
         :: gradient norm              0.000517794744 Eh/a0 ::
         :: HOMO-LUMO gap              0.596869166600 eV    ::
         :: SCC energy               -83.768663890569 Eh    ::
         :: -> Gsolv                  -0.118936804315 Eh    ::
         :: repulsion energy           0.814141652791 Eh    ::

    * Orbital Energies and Occupations

         #    Occupation            Energy/Eh            Energy/eV
      -------------------------------------------------------------
         1        2.0000           -0.9332077             -25.3939
       ...           ...                  ...                  ...
        55        2.0000           -0.5083015             -13.8316
        56        2.0000           -0.5004804             -13.6188
        57        2.0000           -0.5003251             -13.6145
        58        2.0000           -0.4931646             -13.4197
        59        2.0000           -0.4800742             -13.0635
        60        2.0000           -0.4722676             -12.8511
        61        2.0000           -0.4639927             -12.6259
        62        2.0000           -0.4634483             -12.6111
        63        2.0000           -0.4494488             -12.2301
        64        2.0000           -0.4445899             -12.0979
        65        2.0000           -0.4289866             -11.6733
        66        2.0000           -0.3860221             -10.5042
        67        2.0000           -0.3737666             -10.1707 (HOMO)
        68        0.0000           -0.3518321              -9.5738 (LUMO)
        69                         -0.3406938              -9.2707
        70                         -0.2777892              -7.5590
        71                         -0.2496807              -6.7942
        72                         -0.2325845              -6.3289
        73                         -0.2038935              -5.5482
        74                         -0.1857220              -5.0538
        75                         -0.1747553              -4.7553
        76                         -0.1339903              -3.6461
        77                         -0.1326931              -3.6108
        78                         -0.1250700              -3.4033
       ...                                ...                  ...
       134                          0.7658800              20.8407
      -------------------------------------------------------------
                  HL-Gap            0.0219345 Eh            0.5969 eV

Wiberg/Mayer (AO) data.
largest (>0.10) Wiberg bond orders for each atom

     #   Z sym  total        # sym  WBO       # sym  WBO       # sym  WBO
 ---------------------------------------------------------------------------
     1   6 C    3.898 --    27 H    0.986    26 H    0.980    28 H    0.980
                             2 O    0.926
     2   8 O    2.131 --     3 C    1.017     1 C    0.926     4 O    0.108
     3   6 C    3.850 --     4 O    1.600     5 C    1.120     2 O    1.017
     4   8 O    1.876 --     3 C    1.600     2 O    0.108
     5   6 C    3.911 --    24 C    1.263     6 N    1.147     3 C    1.120
                            25 O    0.129
     6   7 N    3.070 --     7 C    1.623     5 C    1.147
     7   6 C    3.936 --     6 N    1.623    21 N    1.106     8 C    0.977
     8   6 C    3.923 --    10 C    0.983     9 C    0.982     7 C    0.977
                            11 N    0.915
     9   6 C    3.988 --    30 H    0.985    29 H    0.983     8 C    0.982
                            31 H    0.981
    10   6 C    3.988 --    34 H    0.985    33 H    0.983     8 C    0.983
                            32 H    0.981
    11   7 N    3.408 --    12 C    1.323     8 C    0.915    35 H    0.859
                            13 O    0.206
    12   6 C    3.930 --    13 O    1.589    11 N    1.323    14 C    0.946
    13   8 O    1.922 --    12 C    1.589    11 N    0.206
    14   6 C    3.834 --    15 N    1.613    20 O    1.063    12 C    0.946
    15   7 N    2.986 --    14 C    1.613    16 N    1.144
    16   7 N    3.632 --    18 C    1.428    15 N    1.144    17 C    0.912
    17   6 C    3.888 --    36 H    0.981    38 H    0.968    37 H    0.966
                            16 N    0.912
    18   6 C    3.845 --    16 N    1.428    20 O    1.155    19 C    1.039
    19   6 C    3.962 --    18 C    1.039    39 H    0.972    41 H    0.950
                            40 H    0.944
    20   8 O    2.386 --    18 C    1.155    14 C    1.063
    21   7 N    3.424 --    22 C    1.147     7 C    1.106    42 H    0.895
                            23 O    0.133
    22   6 C    3.874 --    23 O    1.594    21 N    1.147    24 C    0.962
    23   8 O    1.871 --    22 C    1.594    21 N    0.133
    24   6 C    3.942 --    25 O    1.535     5 C    1.263    22 C    0.962
    25   8 O    1.839 --    24 C    1.535     5 C    0.129
    26   1 H    1.012 --     1 C    0.980
    27   1 H    1.019 --     1 C    0.986
    28   1 H    1.013 --     1 C    0.980
    29   1 H    1.000 --     9 C    0.983
    30   1 H    1.002 --     9 C    0.985
    31   1 H    1.006 --     9 C    0.981
    32   1 H    1.006 --    10 C    0.981
    33   1 H    1.000 --    10 C    0.983
    34   1 H    1.002 --    10 C    0.985
    35   1 H    0.968 --    11 N    0.859
    36   1 H    0.990 --    17 C    0.981
    37   1 H    0.992 --    17 C    0.966
    38   1 H    0.994 --    17 C    0.968
    39   1 H    0.987 --    19 C    0.972
    40   1 H    0.986 --    19 C    0.944
    41   1 H    0.987 --    19 C    0.950
    42   1 H    0.943 --    21 N    0.895
 ---------------------------------------------------------------------------

           -------------------------------------------------
          | TOTAL ENERGY              -82.980492077783 Eh   |
          | GRADIENT NORM               0.000517794744 Eh/α |
          | HOMO-LUMO GAP               0.596869166600 eV   |
           -------------------------------------------------

 * finished run on 2023/06/21 at 17:38:00.019
