   * xtb version 6.5.1 (579679a) compiled by 'ehlert@majestix' on 2022-07-11
          program call               : /lustre/hpc/kemi/ree/PhD/git/ReactivityQM/dep/xtb-6.5.1/bin/xtb --gfn 1 /lustre/hpc/kemi/ree/PhD/git/ReactivityQM/calculations/RaltegravirCLI/reac02prodE04/conf16/RaltegravirCLI_reac02prodE04_conf16_gfn1.xyz --opt --vfukui --chrg -1 --uhf 0 --alpb DMSO

   ID    Z sym.   atoms
    1    6 C      1, 3, 5, 7-9, 12-16, 18, 19, 21-24
    2    7 N      2, 11, 20, 25
    3    8 O      4, 6, 10
    4    9 F      17
    5    1 H      26-47

      * Solvation model:               ALPB
        Solvent                        DMSO
        Solvent mass                       7.8130E+01 g/mol
          :  Hamiltonian                  GFN1-xTB          :
 * total energy  :   -80.1905396 Eh     change       -0.3151968E-10 Eh
 * total energy  :   -80.2039058 Eh     change       -0.1336624E-01 Eh
 * total energy  :   -80.2076588 Eh     change       -0.3752956E-02 Eh
 * total energy  :   -80.2083242 Eh     change       -0.6654318E-03 Eh
 * total energy  :   -80.2088272 Eh     change       -0.5029717E-03 Eh
 * total energy  :   -80.2089751 Eh     change       -0.1478719E-03 Eh
 * total energy  :   -80.2091031 Eh     change       -0.1280666E-03 Eh
 * total energy  :   -80.2091906 Eh     change       -0.8747169E-04 Eh
 * total energy  :   -80.2092636 Eh     change       -0.7301896E-04 Eh
 * total energy  :   -80.2093212 Eh     change       -0.5758109E-04 Eh
 * total energy  :   -80.2116335 Eh     change       -0.1316305E-04 Eh
 * total energy  :   -80.2116440 Eh     change       -0.1049542E-04 Eh
 * total energy  :   -80.2116552 Eh     change       -0.1124956E-04 Eh
 * total energy  :   -80.2116693 Eh     change       -0.1404987E-04 Eh
 * total energy  :   -80.2116807 Eh     change       -0.1140961E-04 Eh
 * total energy  :   -80.2116929 Eh     change       -0.1218568E-04 Eh
 * total energy  :   -80.2117044 Eh     change       -0.1153554E-04 Eh
 * total energy  :   -80.2117134 Eh     change       -0.9005785E-05 Eh
 * total energy  :   -80.2117168 Eh     change       -0.3391136E-05 Eh
   *** GEOMETRY OPTIMIZATION CONVERGED AFTER 68 ITERATIONS ***

 final structure:
================
47
 xtb: 6.5.1 (579679a)
C           -4.12283323855081       -0.65034179740282       -1.14948164670188
N           -2.80410809636835       -0.90676871053905       -0.57985784188038
C           -2.43178397286578       -2.33807618953387       -0.61167503498712
O           -3.28265107537721       -3.11911124421286       -1.12761031558806
C           -1.23196635055503       -2.61951406188649       -0.03708164314935
O           -0.76482377370282       -3.95702823119709        0.04265501291147
C           -0.30555761644806       -1.58148466822657        0.55021119626371
C            0.14884068619593       -1.95767510995145        1.97769971970085
C            0.93307641734206       -1.57054936475993       -0.36111907037404
O            1.68333105503717       -2.54174753680363       -0.46446923721497
N            1.05175927338572       -0.47463644288395       -1.15096770429138
C            2.25246351388136       -0.27357546224783       -1.94918698356432
C            3.36375598887868        0.29675757700778       -1.09374487571233
C            4.21589040781941       -0.55416178584905       -0.39234765216033
C            5.22015018231795       -0.03941218641058        0.41510635707824
C            5.34690192967690        1.33492225950538        0.50793460435166
F            6.32039805283316        1.84244672887692        1.28618948018568
C            4.51527288196116        2.20903408553999       -0.16727377000743
C            3.51716895032587        1.67565563887000       -0.97162805605549
N           -0.88818487565025       -0.25125700690148        0.58984739087475
C           -2.03771468133840        0.00611182826165        0.06085108410556
C           -2.49762213588962        1.46056055231361        0.25169040069186
C           -1.33588241696294        2.29901790772381        0.81267728961770
C           -3.66435344198218        1.50901456068633        1.24782071796906
N           -2.92337684443230        2.04807184248237       -1.02237707603743
H           -4.25343206863323        0.40389833911965       -1.37683645459753
H           -4.22317177595312       -1.21982634564401       -2.07809691693627
H           -4.90988569531764       -0.97745594980711       -0.46146641590684
H            0.13987998887939       -3.98919636528692       -0.31131694102072
H            0.68262870340907       -2.90736673122203        1.95816965611285
H           -0.72129646125102       -2.04719184882248        2.62775498356834
H            0.80597373219699       -1.18388801859423        2.37351606933430
H            0.57859319370983        0.36382812696537       -0.83322286535386
H            2.01022937217895        0.40983819883978       -2.76667541039129
H            2.54942169554679       -1.24151154599006       -2.36575779621380
H            4.09148723683810       -1.62845961273569       -0.47709455521104
H            5.89449919050207       -0.68659917244206        0.96088060011473
H            4.64748975381317        3.27808065316158       -0.06750805207567
H            2.85487926782928        2.34304777317888       -1.51065047951527
H           -1.64659459306537        3.33887498096528        0.90446606706005
H           -1.03096666978223        1.92962262289902        1.79137907515406
H           -0.47951580886067        2.24616957113422        0.14095276653903
H           -4.53914083924130        0.98769787576356        0.86280782680943
H           -3.94096740107625        2.54481611251603        1.44261935159047
H           -3.36690491318067        1.04642060742118        2.18920913686532
H           -3.30847421425814        2.96441032887924       -0.84307616617909
H           -2.11288251381289        2.17853721722673       -1.61365782576463

          :  Hamiltonian                  GFN1-xTB          :
         :: total energy             -80.211716803590 Eh    ::
         :: gradient norm              0.000409189793 Eh/a0 ::
         :: HOMO-LUMO gap              1.053920715123 eV    ::
         :: SCC energy               -81.070593353305 Eh    ::
         :: -> Gsolv                  -0.116507360107 Eh    ::
         :: repulsion energy           0.891029369697 Eh    ::

    * Orbital Energies and Occupations

         #    Occupation            Energy/Eh            Energy/eV
      -------------------------------------------------------------
         1        2.0000           -0.8572097             -23.3259
       ...           ...                  ...                  ...
        56        2.0000           -0.4652176             -12.6592
        57        2.0000           -0.4525207             -12.3137
        58        2.0000           -0.4474995             -12.1771
        59        2.0000           -0.4433773             -12.0649
        60        2.0000           -0.4415722             -12.0158
        61        2.0000           -0.4320664             -11.7571
        62        2.0000           -0.4192751             -11.4091
        63        2.0000           -0.4121950             -11.2164
        64        2.0000           -0.3955485             -10.7634
        65        2.0000           -0.3780184             -10.2864
        66        2.0000           -0.3722122             -10.1284
        67        2.0000           -0.3626190              -9.8674
        68        2.0000           -0.3041120              -8.2753 (HOMO)
        69                         -0.2653811              -7.2214 (LUMO)
        70                         -0.2585645              -7.0359
        71                         -0.2213252              -6.0226
        72                         -0.2097626              -5.7079
        73                         -0.1375999              -3.7443
        74                         -0.1235316              -3.3615
        75                         -0.1146819              -3.1207
        76                         -0.1112905              -3.0284
        77                         -0.1056546              -2.8750
        78                         -0.1001628              -2.7256
        79                         -0.0961109              -2.6153
       ...                                ...                  ...
       144                          0.7094668              19.3056
      -------------------------------------------------------------
                  HL-Gap            0.0387309 Eh            1.0539 eV

Wiberg/Mayer (AO) data.
largest (>0.10) Wiberg bond orders for each atom

     #   Z sym  total        # sym  WBO       # sym  WBO       # sym  WBO
 ---------------------------------------------------------------------------
     1   6 C    3.959 --    28 H    0.981    27 H    0.980    26 H    0.975
                             2 N    0.956
     2   7 N    3.381 --    21 C    1.229     1 C    0.956     3 C    0.883
                            20 N    0.174
     3   6 C    3.916 --     5 C    1.540     4 O    1.363     2 N    0.883
     4   8 O    1.703 --     3 C    1.363     5 C    0.181
     5   6 C    3.787 --     3 C    1.540     7 C    0.956     6 O    0.943
                             4 O    0.181
     6   8 O    1.906 --     5 C    0.943    29 H    0.861
     7   6 C    3.964 --    20 N    0.980     8 C    0.971     5 C    0.956
                             9 C    0.929
     8   6 C    3.997 --    32 H    0.988    31 H    0.987    30 H    0.986
                             7 C    0.971
     9   6 C    3.866 --    10 O    1.562    11 N    1.234     7 C    0.929
    10   8 O    1.884 --     9 C    1.562    11 N    0.140
    11   7 N    3.305 --     9 C    1.234    12 C    0.947    33 H    0.897
                            10 O    0.140
    12   6 C    3.960 --    13 C    0.994    34 H    0.978    35 H    0.973
                            11 N    0.947
    13   6 C    3.988 --    19 C    1.420    14 C    1.416    12 C    0.994
    14   6 C    3.992 --    15 C    1.445    13 C    1.416    36 H    0.969
                            18 C    0.111
    15   6 C    3.992 --    14 C    1.445    16 C    1.400    37 H    0.970
                            19 C    0.110
    16   6 C    3.858 --    18 C    1.403    15 C    1.400    17 F    0.919
    17   9 F    1.045 --    16 C    0.919
    18   6 C    3.992 --    19 C    1.441    16 C    1.403    38 H    0.970
                            14 C    0.111
    19   6 C    3.994 --    18 C    1.441    13 C    1.420    39 H    0.972
                            15 C    0.110
    20   7 N    2.977 --    21 C    1.607     7 C    0.980     2 N    0.174
    21   6 C    3.946 --    20 N    1.607     2 N    1.229    22 C    0.963
    22   6 C    3.964 --    23 C    0.993    24 C    0.991    25 N    0.976
                            21 C    0.963
    23   6 C    3.997 --    22 C    0.993    40 H    0.986    41 H    0.983
                            42 H    0.982
    24   6 C    3.996 --    22 C    0.991    45 H    0.986    44 H    0.985
                            43 H    0.982
    25   7 N    2.993 --    22 C    0.976    46 H    0.947    47 H    0.947
    26   1 H    1.034 --     1 C    0.975
    27   1 H    1.027 --     1 C    0.980
    28   1 H    1.016 --     1 C    0.981
    29   1 H    0.909 --     6 O    0.861
    30   1 H    1.016 --     8 C    0.986
    31   1 H    1.015 --     8 C    0.987
    32   1 H    1.011 --     8 C    0.988
    33   1 H    0.976 --    11 N    0.897
    34   1 H    1.007 --    12 C    0.978
    35   1 H    1.013 --    12 C    0.973
    36   1 H    1.013 --    14 C    0.969
    37   1 H    0.999 --    15 C    0.970
    38   1 H    0.999 --    18 C    0.970
    39   1 H    1.000 --    19 C    0.972
    40   1 H    1.006 --    23 C    0.986
    41   1 H    1.020 --    23 C    0.983
    42   1 H    1.019 --    23 C    0.982
    43   1 H    1.007 --    24 C    0.982
    44   1 H    1.003 --    24 C    0.985
    45   1 H    1.006 --    24 C    0.986
    46   1 H    0.962 --    25 N    0.947
    47   1 H    0.964 --    25 N    0.947
 ---------------------------------------------------------------------------

           -------------------------------------------------
          | TOTAL ENERGY              -80.211716803590 Eh   |
          | GRADIENT NORM               0.000409189793 Eh/α |
          | HOMO-LUMO GAP               1.053920715123 eV   |
           -------------------------------------------------

 * finished run on 2023/06/20 at 15:00:23.539
