   * xtb version 6.5.1 (579679a) compiled by 'ehlert@majestix' on 2022-07-11
          program call               : /lustre/hpc/kemi/ree/PhD/git/ReactivityQM/dep/xtb-6.5.1/bin/xtb --gfn 1 /lustre/hpc/kemi/ree/PhD/git/ReactivityQM/calculations/RaltegravirCLI/reac02prodN06/conf06/RaltegravirCLI_reac02prodN06_conf06_gfn1.xyz --opt --vfukui --chrg 1 --uhf 0 --alpb DMSO

   ID    Z sym.   atoms
    1    6 C      1, 3, 5, 7-9, 12-16, 18, 19, 21-24
    2    7 N      2, 11, 20, 25
    3    8 O      4, 6, 10
    4    9 F      17
    5    1 H      26-47

      * Solvation model:               ALPB
        Solvent                        DMSO
        Solvent mass                       7.8130E+01 g/mol
          :  Hamiltonian                  GFN1-xTB          :
 * total energy  :   -79.4544577 Eh     change       -0.1280114E-09 Eh
 * total energy  :   -79.4705858 Eh     change       -0.1612801E-01 Eh
 * total energy  :   -79.4774301 Eh     change       -0.6844364E-02 Eh
 * total energy  :   -79.4791336 Eh     change       -0.1703445E-02 Eh
 * total energy  :   -79.4803880 Eh     change       -0.1254398E-02 Eh
 * total energy  :   -79.4809076 Eh     change       -0.5196774E-03 Eh
 * total energy  :   -79.4813662 Eh     change       -0.4585797E-03 Eh
 * total energy  :   -79.4817016 Eh     change       -0.3354142E-03 Eh
 * total energy  :   -79.4819205 Eh     change       -0.2188470E-03 Eh
 * total energy  :   -79.4820839 Eh     change       -0.1633985E-03 Eh
 * total energy  :   -79.4866506 Eh     change       -0.1821873E-04 Eh
 * total energy  :   -79.4866611 Eh     change       -0.1042374E-04 Eh
 * total energy  :   -79.4866702 Eh     change       -0.9178583E-05 Eh
 * total energy  :   -79.4866774 Eh     change       -0.7168003E-05 Eh
 * total energy  :   -79.4866828 Eh     change       -0.5341206E-05 Eh
 * total energy  :   -79.4866892 Eh     change       -0.6446781E-05 Eh
 * total energy  :   -79.4866970 Eh     change       -0.7801734E-05 Eh
 * total energy  :   -79.4867042 Eh     change       -0.7228034E-05 Eh
 * total energy  :   -79.4867078 Eh     change       -0.3591514E-05 Eh
   *** GEOMETRY OPTIMIZATION CONVERGED AFTER 68 ITERATIONS ***

 final structure:
================
47
 xtb: 6.5.1 (579679a)
C           -2.48339160173135        0.52475229702322       -2.01538177945557
N           -1.92947532249995       -0.23244929966675       -0.88861163813253
C           -1.17850042253958       -1.32162666439448       -1.23192525946861
O           -1.04212703476540       -1.76080570115410       -2.36112372954377
C           -0.47727403463918       -1.98281754912307       -0.11223221686249
O            0.24742325588090       -3.01577774903599       -0.39862550648049
C           -0.45755128500821       -1.37143309992674        1.17556379449875
C           -0.12824847361324       -2.20078154236125        2.40576432243766
C            0.87790962593690       -0.37826277922500        0.79077609946528
O            0.65352742042189        0.75600884000344        0.49641533709523
N            2.01194825718154       -1.01801385973509        0.93668879776871
C            3.28529739950362       -0.26257017579614        0.95406294374359
C            3.70427513878806        0.11468990933879       -0.44586837801366
C            4.47756694625163       -0.76084122274667       -1.20562886893439
C            4.86702066331112       -0.41860835943052       -2.49239231865356
C            4.46603541828763        0.80639243295670       -2.99648838004592
F            4.83723252856579        1.14274370226920       -4.23753460629516
C            3.69825206483041        1.69797506644846       -2.26796253958498
C            3.31787505968129        1.34142827541603       -0.98286761278018
N           -1.49525956481320       -0.45612586205795        1.40615976556581
C           -2.13798718728613        0.11140182943169        0.44955935122508
C           -3.19432790760800        1.12883042756413        0.90220711917523
C           -2.97741664647972        2.52098670828983        0.29272641666249
C           -4.60649779798350        0.59146629951206        0.62958450860110
N           -3.07360850074530        1.27819661805433        2.34534869682581
H           -1.98956838531736        1.49318192136158       -2.07035122159481
H           -2.28565891891256       -0.03724704397627       -2.92648066705333
H           -3.55465650197434        0.65420036839642       -1.89802753823415
H            0.18015431750633       -3.25066394734394       -1.35235247626370
H            0.30268021893460       -1.57227311724352        3.18166939360111
H           -1.05710045624724       -2.63141136227414        2.77783158903303
H            0.55896156744202       -3.00547640822698        2.15742515331031
H            2.05767405748122       -2.01417778539567        1.06769971859924
H            4.01777950747668       -0.91664310278338        1.42725071950698
H            3.13375235802129        0.62641931750625        1.57087466816252
H            4.77845627641592       -1.71475368760948       -0.79070242707829
H            5.46796561160847       -1.08842362515333       -3.09337134321827
H            3.40438683110184        2.64703531126827       -2.69720036705731
H            2.71440029244563        2.02025584237351       -0.39300947653145
H           -1.91415941976818        2.75092596830305        0.24095869177321
H           -3.41233381100524        2.60356167091465       -0.69973985228924
H           -3.46166316998242        3.25352210646040        0.93831231531779
H           -5.32717116690660        1.26406621031220        1.09385619576885
H           -4.71604922711104       -0.39929383274019        1.06831017266618
H           -4.82374877051020        0.52881872710796       -0.43362194820596
H           -2.13189218266969        1.57904460306720        2.56690632632313
H           -3.20490502696000        0.37457432402620        2.78340005465056

          :  Hamiltonian                  GFN1-xTB          :
         :: total energy             -79.486707819119 Eh    ::
         :: gradient norm              0.000485844645 Eh/a0 ::
         :: HOMO-LUMO gap              0.661642288186 eV    ::
         :: SCC energy               -80.387418775897 Eh    ::
         :: -> Gsolv                  -0.104208220632 Eh    ::
         :: repulsion energy           0.932960528467 Eh    ::

    * Orbital Energies and Occupations

         #    Occupation            Energy/Eh            Energy/eV
      -------------------------------------------------------------
         1        2.0000           -0.8945816             -24.3428
       ...           ...                  ...                  ...
        55        2.0000           -0.5200779             -14.1520
        56        2.0000           -0.5167483             -14.0614
        57        2.0000           -0.5095761             -13.8663
        58        2.0000           -0.5022353             -13.6665
        59        2.0000           -0.4973859             -13.5346
        60        2.0000           -0.4943333             -13.4515
        61        2.0000           -0.4901960             -13.3389
        62        2.0000           -0.4849317             -13.1957
        63        2.0000           -0.4780015             -13.0071
        64        2.0000           -0.4724750             -12.8567
        65        2.0000           -0.4636981             -12.6179
        66        2.0000           -0.4518166             -12.2946
        67        2.0000           -0.4262107             -11.5978 (HOMO)
        68        0.0000           -0.4018958             -10.9361 (LUMO)
        69                         -0.3198970              -8.7048
        70                         -0.2915017              -7.9322
        71                         -0.2854114              -7.7664
        72                         -0.2824298              -7.6853
        73                         -0.2557117              -6.9583
        74                         -0.1613061              -4.3894
        75                         -0.1605583              -4.3690
        76                         -0.1572521              -4.2790
        77                         -0.1439906              -3.9182
        78                         -0.1412287              -3.8430
       ...                                ...                  ...
       144                          0.7463448              20.3091
      -------------------------------------------------------------
                  HL-Gap            0.0243149 Eh            0.6616 eV

Wiberg/Mayer (AO) data.
largest (>0.10) Wiberg bond orders for each atom

     #   Z sym  total        # sym  WBO       # sym  WBO       # sym  WBO
 ---------------------------------------------------------------------------
     1   6 C    3.905 --    27 H    0.973    26 H    0.971    28 H    0.970
                             2 N    0.919
     2   7 N    3.522 --     3 C    1.194    21 C    1.090     1 C    0.919
                             4 O    0.165
     3   6 C    3.926 --     4 O    1.590     2 N    1.194     5 C    1.007
     4   8 O    1.948 --     3 C    1.590     2 N    0.165
     5   6 C    3.846 --     6 O    1.269     7 C    1.155     3 C    1.007
                             9 C    0.113
     6   8 O    2.219 --     5 C    1.269    29 H    0.757
     7   6 C    3.958 --     5 C    1.155    20 N    1.060     8 C    0.980
                             9 C    0.588
     8   6 C    3.975 --    30 H    0.980     7 C    0.980    32 H    0.980
                            31 H    0.968
     9   6 C    3.904 --    10 O    1.701    11 N    1.378     7 C    0.588
                             5 C    0.113
    10   8 O    2.086 --     9 C    1.701    11 N    0.181
    11   7 N    3.403 --     9 C    1.378    33 H    0.882    12 C    0.881
                            10 O    0.181
    12   6 C    3.906 --    13 C    0.998    34 H    0.972    35 H    0.972
                            11 N    0.881
    13   6 C    3.984 --    14 C    1.415    19 C    1.414    12 C    0.998
    14   6 C    3.993 --    15 C    1.447    13 C    1.415    36 H    0.970
                            18 C    0.109
    15   6 C    3.990 --    14 C    1.447    16 C    1.396    37 H    0.968
                            19 C    0.109
    16   6 C    3.860 --    18 C    1.397    15 C    1.396    17 F    0.935
    17   9 F    1.066 --    16 C    0.935
    18   6 C    3.991 --    19 C    1.447    16 C    1.397    38 H    0.968
                            14 C    0.109
    19   6 C    3.991 --    18 C    1.447    13 C    1.414    39 H    0.968
                            15 C    0.109
    20   7 N    3.042 --    21 C    1.666     7 C    1.060
    21   6 C    3.896 --    20 N    1.666     2 N    1.090    22 C    0.961
    22   6 C    3.965 --    25 N    1.002    23 C    0.985    24 C    0.981
                            21 C    0.961
    23   6 C    3.992 --    22 C    0.985    40 H    0.985    41 H    0.982
                            42 H    0.981
    24   6 C    3.992 --    44 H    0.984    43 H    0.981    22 C    0.981
                            45 H    0.977
    25   7 N    2.964 --    22 C    1.002    46 H    0.941    47 H    0.940
    26   1 H    0.999 --     1 C    0.971
    27   1 H    1.000 --     1 C    0.973
    28   1 H    1.004 --     1 C    0.970
    29   1 H    0.803 --     6 O    0.757
    30   1 H    0.996 --     8 C    0.980
    31   1 H    0.996 --     8 C    0.968
    32   1 H    0.996 --     8 C    0.980
    33   1 H    0.927 --    11 N    0.882
    34   1 H    0.996 --    12 C    0.972
    35   1 H    0.997 --    12 C    0.972
    36   1 H    0.997 --    14 C    0.970
    37   1 H    0.996 --    15 C    0.968
    38   1 H    0.996 --    18 C    0.968
    39   1 H    1.006 --    19 C    0.968
    40   1 H    1.000 --    23 C    0.985
    41   1 H    1.003 --    23 C    0.982
    42   1 H    1.005 --    23 C    0.981
    43   1 H    1.003 --    24 C    0.981
    44   1 H    1.000 --    24 C    0.984
    45   1 H    1.003 --    24 C    0.977
    46   1 H    0.965 --    25 N    0.941
    47   1 H    0.968 --    25 N    0.940
 ---------------------------------------------------------------------------

           -------------------------------------------------
          | TOTAL ENERGY              -79.486707819119 Eh   |
          | GRADIENT NORM               0.000485844645 Eh/α |
          | HOMO-LUMO GAP               0.661642288186 eV   |
           -------------------------------------------------

 * finished run on 2023/06/20 at 15:23:06.562
