   * xtb version 6.5.1 (579679a) compiled by 'ehlert@majestix' on 2022-07-11
          program call               : /lustre/hpc/kemi/ree/PhD/git/ReactivityQM/dep/xtb-6.5.1/bin/xtb --gfn 1 /lustre/hpc/kemi/ree/PhD/git/ReactivityQM/calculations/R02deprot/reac01prodN16/conf01/R02deprot_reac01prodN16_conf01_gfn1.xyz --opt --vfukui --chrg 0 --uhf 0 --alpb DMSO

   ID    Z sym.   atoms
    1    6 C      1, 3, 5, 7-10, 12, 14, 17, 18, 21, 23, 24
    2    8 O      2, 4, 13, 19, 22, 25
    3    7 N      6, 11, 15, 16, 20
    4    1 H      26-42

      * Solvation model:               ALPB
        Solvent                        DMSO
        Solvent mass                       7.8130E+01 g/mol
          :  Hamiltonian                  GFN1-xTB          :
 * total energy  :   -82.9431639 Eh     change       -0.1493561E-10 Eh
 * total energy  :   -82.9557632 Eh     change       -0.1259937E-01 Eh
 * total energy  :   -82.9608929 Eh     change       -0.5129641E-02 Eh
 * total energy  :   -82.9620049 Eh     change       -0.1112037E-02 Eh
 * total energy  :   -82.9627228 Eh     change       -0.7179381E-03 Eh
 * total energy  :   -82.9632230 Eh     change       -0.5001877E-03 Eh
 * total energy  :   -82.9638127 Eh     change       -0.5896529E-03 Eh
 * total energy  :   -82.9643837 Eh     change       -0.5709790E-03 Eh
 * total energy  :   -82.9647544 Eh     change       -0.3706998E-03 Eh
 * total energy  :   -82.9651720 Eh     change       -0.4176028E-03 Eh
 * total energy  :   -82.9699578 Eh     change       -0.2945321E-04 Eh
 * total energy  :   -82.9699812 Eh     change       -0.2335956E-04 Eh
 * total energy  :   -82.9700057 Eh     change       -0.2448919E-04 Eh
 * total energy  :   -82.9700215 Eh     change       -0.1585570E-04 Eh
 * total energy  :   -82.9700406 Eh     change       -0.1907301E-04 Eh
 * total energy  :   -82.9700510 Eh     change       -0.1037983E-04 Eh
 * total energy  :   -82.9700614 Eh     change       -0.1039910E-04 Eh
 * total energy  :   -82.9700691 Eh     change       -0.7750973E-05 Eh
 * total energy  :   -82.9700736 Eh     change       -0.4503415E-05 Eh
   *** GEOMETRY OPTIMIZATION CONVERGED AFTER 97 ITERATIONS ***

 final structure:
================
42
 xtb: 6.5.1 (579679a)
C           -4.18570360989841        2.72545784378309       -1.50699429466984
O           -3.70908643981001        1.62899908592902       -0.71389958197297
C           -2.53222168713473        1.77424039069425       -0.13469877170836
O           -1.83291943806579        2.75012687589165       -0.22298918452467
C           -2.13813445746307        0.54353531456242        0.65634925740938
N           -0.91596176537286        0.17937071490629        0.60750305302286
C           -0.55714272480715       -0.99509537553640        1.29341715850377
C            0.72841018785624       -1.63974073962293        0.83985811587326
C            1.36093704220895       -2.43954418552820        1.98211610072110
C            0.38394507264127       -2.55161811348722       -0.35271795846943
N            1.62139999089209       -0.57162657677037        0.40052438865218
C            2.85669274872698       -0.78624656208512       -0.09517191698168
O            3.41021270503562       -1.86828178233944       -0.17958952673408
C            3.48305646647316        0.49509273391539       -0.51289206809376
N            2.93171741171664        1.67013050471798       -0.45889253049057
N            3.85309424306429        2.55828290205193       -0.92615282273017
C            4.90885714412028        1.86788603528411       -1.23474278378757
C            6.18703340439747        2.36835193211465       -1.78615655430494
O            4.73667882472259        0.55915895621948       -0.99715419697037
N           -1.24733498389102       -1.51552428009782        2.23374073620843
C           -2.47152457299040       -0.93316597170700        2.58034551094960
O           -2.94249309353210       -0.98524109040270        3.68565348196405
C           -3.18222967091092       -0.24924927103416        1.41674306360915
C           -3.73957817198938       -1.32710581697045        0.45537692985394
O           -4.20806924828611        0.57112537890338        1.89165557246497
H           -3.53158165968009        2.86852113642523       -2.36927365130516
H           -5.18874251489873        2.45812769733693       -1.83077999131206
H           -4.20464057430276        3.63712779173583       -0.90644666225935
H            1.64555830079761       -1.76913909144028        2.79176402733277
H            2.24213757431137       -2.96874368844422        1.62581498455614
H            0.63718007474232       -3.16113581781090        2.35691848087469
H           -0.04362107647469       -1.96012164174087       -1.16040414350503
H            1.28751519480334       -3.04452998285229       -0.70703626105824
H           -0.33592639841200       -3.30546496004364       -0.03983223401301
H            1.22553846074655        0.35828178613693        0.33185990441455
H            6.36023838904101        1.93839348679148       -2.77267283745570
H            6.15284870862765        3.45221157181123       -1.86332284041686
H            7.01294887006603        2.07188221088231       -1.14007660603161
H           -4.48027838358981       -1.91749274095554        0.98997923809614
H           -4.21515135061447       -0.83465041557671       -0.38958375271125
H           -2.93804720099715       -1.97210933121010        0.10354674489892
H           -4.42561179188799        0.31951908553623        2.80414042209290

          :  Hamiltonian                  GFN1-xTB          :
         :: total energy             -82.970073630416 Eh    ::
         :: gradient norm              0.000441225350 Eh/a0 ::
         :: HOMO-LUMO gap              1.794969132441 eV    ::
         :: SCC energy               -83.746069281504 Eh    ::
         :: -> Gsolv                  -0.049333762132 Eh    ::
         :: repulsion energy           0.802182909620 Eh    ::

    * Orbital Energies and Occupations

         #    Occupation            Energy/Eh            Energy/eV
      -------------------------------------------------------------
         1        2.0000           -0.8652211             -23.5439
       ...           ...                  ...                  ...
        55        2.0000           -0.5076759             -13.8146
        56        2.0000           -0.5072409             -13.8027
        57        2.0000           -0.5045030             -13.7282
        58        2.0000           -0.5029808             -13.6868
        59        2.0000           -0.4988938             -13.5756
        60        2.0000           -0.4915994             -13.3771
        61        2.0000           -0.4841875             -13.1754
        62        2.0000           -0.4679089             -12.7324
        63        2.0000           -0.4649095             -12.6508
        64        2.0000           -0.4616510             -12.5622
        65        2.0000           -0.4540267             -12.3547
        66        2.0000           -0.4489663             -12.2170
        67        2.0000           -0.4385814             -11.9344 (HOMO)
        68                         -0.3726175             -10.1394 (LUMO)
        69                         -0.3122422              -8.4965
        70                         -0.3104285              -8.4472
        71                         -0.2584042              -7.0315
        72                         -0.2560830              -6.9684
        73                         -0.2426128              -6.6018
        74                         -0.2002877              -5.4501
        75                         -0.1453283              -3.9546
        76                         -0.1434644              -3.9039
        77                         -0.1399494              -3.8082
        78                         -0.1233227              -3.3558
       ...                                ...                  ...
       134                          0.7244544              19.7134
      -------------------------------------------------------------
                  HL-Gap            0.0659639 Eh            1.7950 eV

Wiberg/Mayer (AO) data.
largest (>0.10) Wiberg bond orders for each atom

     #   Z sym  total        # sym  WBO       # sym  WBO       # sym  WBO
 ---------------------------------------------------------------------------
     1   6 C    3.856 --    27 H    0.985    28 H    0.979    26 H    0.979
                             2 O    0.881
     2   8 O    2.235 --     3 C    1.148     1 C    0.881     4 O    0.148
     3   6 C    3.852 --     4 O    1.689     2 O    1.148     5 C    0.940
     4   8 O    1.953 --     3 C    1.689     2 O    0.148
     5   6 C    3.932 --     6 N    1.770    23 C    0.959     3 C    0.940
     6   7 N    3.063 --     5 C    1.770     7 C    1.054
     7   6 C    3.922 --    20 N    1.707     6 N    1.054     8 C    0.992
     8   6 C    3.938 --     7 C    0.992     9 C    0.986    10 C    0.957
                            11 N    0.932
     9   6 C    3.988 --     8 C    0.986    29 H    0.985    31 H    0.983
                            30 H    0.980
    10   6 C    3.984 --    32 H    0.985    34 H    0.985    33 H    0.977
                             8 C    0.957
    11   7 N    3.345 --    12 C    1.253     8 C    0.932    35 H    0.883
                            13 O    0.177
    12   6 C    3.917 --    13 O    1.593    11 N    1.253    14 C    0.988
    13   8 O    1.910 --    12 C    1.593    11 N    0.177
    14   6 C    3.875 --    15 N    1.611    19 O    1.064    12 C    0.988
    15   7 N    3.016 --    14 C    1.611    16 N    1.200
    16   7 N    2.981 --    17 C    1.605    15 N    1.200
    17   6 C    3.871 --    16 N    1.605    19 O    1.083    18 C    1.031
    18   6 C    3.986 --    17 C    1.031    37 H    0.983    38 H    0.964
                            36 H    0.962
    19   8 O    2.330 --    17 C    1.083    14 C    1.064
    20   7 N    3.079 --     7 C    1.707    21 C    1.065
    21   6 C    3.866 --    22 O    1.743    20 N    1.065    23 C    0.935
    22   8 O    1.996 --    21 C    1.743
    23   6 C    3.932 --    25 O    0.983     5 C    0.959    21 C    0.935
                            24 C    0.920
    24   6 C    3.983 --    41 H    0.986    40 H    0.980    39 H    0.978
                            23 C    0.920
    25   8 O    1.901 --    23 C    0.983    42 H    0.826
    26   1 H    1.004 --     1 C    0.979
    27   1 H    1.008 --     1 C    0.985
    28   1 H    1.004 --     1 C    0.979
    29   1 H    1.002 --     9 C    0.985
    30   1 H    1.009 --     9 C    0.980
    31   1 H    1.009 --     9 C    0.983
    32   1 H    1.001 --    10 C    0.985
    33   1 H    1.005 --    10 C    0.977
    34   1 H    1.001 --    10 C    0.985
    35   1 H    0.966 --    11 N    0.883
    36   1 H    0.997 --    18 C    0.962
    37   1 H    0.998 --    18 C    0.983
    38   1 H    0.997 --    18 C    0.964
    39   1 H    0.999 --    24 C    0.978
    40   1 H    1.008 --    24 C    0.980
    41   1 H    1.000 --    24 C    0.986
    42   1 H    0.858 --    25 O    0.826
 ---------------------------------------------------------------------------

           -------------------------------------------------
          | TOTAL ENERGY              -82.970073630416 Eh   |
          | GRADIENT NORM               0.000441225350 Eh/α |
          | HOMO-LUMO GAP               1.794969132441 eV   |
           -------------------------------------------------

 * finished run on 2023/06/20 at 18:26:45.929
