   * xtb version 6.5.1 (579679a) compiled by 'ehlert@majestix' on 2022-07-11
          program call               : /lustre/hpc/kemi/ree/PhD/git/ReactivityQM/dep/xtb-6.5.1/bin/xtb --gfn 1 /lustre/hpc/kemi/ree/PhD/git/ReactivityQM/calculations/RaltegravirCLI/reac01prodN08/conf09/RaltegravirCLI_reac01prodN08_conf09_gfn1.xyz --opt --vfukui --chrg 1 --uhf 0 --alpb DMSO

   ID    Z sym.   atoms
    1    6 C      1, 3, 5, 8, 9
    2   17 Cl     2
    3    8 O      4, 10
    4    7 N      6, 7
    5    1 H      11-16

      * Solvation model:               ALPB
        Solvent                        DMSO
        Solvent mass                       7.8130E+01 g/mol
          :  Hamiltonian                  GFN1-xTB          :
 * total energy  :   -33.3859581 Eh     change       -0.2287948E-11 Eh
 * total energy  :   -33.3919768 Eh     change       -0.6018711E-02 Eh
 * total energy  :   -33.3943668 Eh     change       -0.2390042E-02 Eh
 * total energy  :   -33.3946286 Eh     change       -0.2617234E-03 Eh
 * total energy  :   -33.3947283 Eh     change       -0.9977555E-04 Eh
 * total energy  :   -33.3947742 Eh     change       -0.4584000E-04 Eh
 * total energy  :   -33.3947979 Eh     change       -0.2373096E-04 Eh
 * total energy  :   -33.3948127 Eh     change       -0.1475022E-04 Eh
 * total energy  :   -33.3948240 Eh     change       -0.1132788E-04 Eh
 * total energy  :   -33.3948309 Eh     change       -0.6864288E-05 Eh
 * total energy  :   -33.3947396 Eh     change        0.1182905E-03 Eh
 * total energy  :   -33.3948844 Eh     change       -0.1447548E-03 Eh
 * total energy  :   -33.3948952 Eh     change       -0.1082195E-04 Eh
 * total energy  :   -33.3949149 Eh     change       -0.1970731E-04 Eh
 * total energy  :   -33.3949314 Eh     change       -0.1649893E-04 Eh
 * total energy  :   -33.3949435 Eh     change       -0.1203332E-04 Eh
 * total energy  :   -33.3949538 Eh     change       -0.1038765E-04 Eh
 * total energy  :   -33.3949590 Eh     change       -0.5157855E-05 Eh
 * total energy  :   -33.3949604 Eh     change       -0.1398261E-05 Eh
   *** GEOMETRY OPTIMIZATION CONVERGED AFTER 22 ITERATIONS ***

 final structure:
================
16
 xtb: 6.5.1 (579679a)
C            3.89902925032773        0.31948531577195       -0.54464145050421
Cl           2.48440029536277       -0.15724736906257        0.43631968663893
C            1.08622388852555        0.56533822276053       -0.52168511116010
O            1.34151033440953        1.13656517536292       -1.52055837344309
C           -0.14336959297517        0.28530187299425        0.14971737513162
N           -0.31996265195830       -0.37960959093712        1.26823774867519
N           -1.62953625679908       -0.40049781218568        1.50547922065848
C           -2.21274466954194        0.25481628702166        0.52211540120638
C           -3.65165621380165        0.51377958997870        0.34589887180749
O           -1.32212175965181        0.70426436048847       -0.35355324022706
H            4.38407904649005        1.16437049100722       -0.06400949858798
H            4.55966030349146       -0.54113870640376       -0.58973511415958
H            3.55215788560796        0.59174856567691       -1.54027148721248
H           -4.23125867374127       -0.17896667245813        0.95180599186105
H           -3.92016749221681        0.41937227393070       -0.70528986881873
H           -3.87624269352034        1.53510899604939        0.66016984814075

          :  Hamiltonian                  GFN1-xTB          :
         :: total energy             -33.394960394003 Eh    ::
         :: gradient norm              0.000250551246 Eh/a0 ::
         :: HOMO-LUMO gap              2.763433777694 eV    ::
         :: SCC energy               -33.689657934179 Eh    ::
         :: -> Gsolv                  -0.083576295357 Eh    ::
         :: repulsion energy           0.301410071175 Eh    ::

    * Orbital Energies and Occupations

         #    Occupation            Energy/Eh            Energy/eV
      -------------------------------------------------------------
         1        2.0000           -1.0706328             -29.1334
       ...           ...                  ...                  ...
        15        2.0000           -0.6237464             -16.9730
        16        2.0000           -0.6126599             -16.6713
        17        2.0000           -0.6071820             -16.5223
        18        2.0000           -0.5846881             -15.9102
        19        2.0000           -0.5773028             -15.7092
        20        2.0000           -0.5709890             -15.5374
        21        2.0000           -0.5586508             -15.2017
        22        2.0000           -0.5568654             -15.1531
        23        2.0000           -0.5503877             -14.9768
        24        2.0000           -0.5456854             -14.8489
        25        2.0000           -0.5278549             -14.3637
        26        2.0000           -0.5000893             -13.6081
        27        2.0000           -0.4971747             -13.5288 (HOMO)
        28                         -0.3956204             -10.7654 (LUMO)
        29                         -0.3197061              -8.6996
        30                         -0.3005388              -8.1781
        31                         -0.2994318              -8.1480
        32                         -0.2727826              -7.4228
        33                         -0.1884024              -5.1267
        34                         -0.1835170              -4.9938
        35                         -0.1656176              -4.5067
        36                         -0.1612273              -4.3872
        37                         -0.1585936              -4.3156
        38                         -0.1120992              -3.0504
       ...                                ...                  ...
        57                          0.7630058              20.7624
      -------------------------------------------------------------
                  HL-Gap            0.1015543 Eh            2.7634 eV

Wiberg/Mayer (AO) data.
largest (>0.10) Wiberg bond orders for each atom

     #   Z sym  total        # sym  WBO       # sym  WBO       # sym  WBO
 ---------------------------------------------------------------------------
     1   6 C    3.858 --    11 H    0.980    12 H    0.976    13 H    0.968
                             2 Cl   0.910
     2  17 Cl   1.909 --     1 C    0.910     3 C    0.783     4 O    0.146
     3   6 C    3.874 --     4 O    1.846     5 C    1.110     2 Cl   0.783
     4   8 O    2.168 --     3 C    1.846     2 Cl   0.146
     5   6 C    3.889 --     6 N    1.497     3 C    1.110    10 O    1.047
     6   7 N    3.023 --     5 C    1.497     7 N    1.314
     7   7 N    2.993 --     8 C    1.484     6 N    1.314
     8   6 C    3.848 --     7 N    1.484    10 O    1.126     9 C    1.044
     9   6 C    3.973 --     8 C    1.044    14 H    0.975    15 H    0.962
                            16 H    0.940
    10   8 O    2.363 --     8 C    1.126     5 C    1.047
    11   1 H    0.994 --     1 C    0.980
    12   1 H    0.993 --     1 C    0.976
    13   1 H    0.994 --     1 C    0.968
    14   1 H    0.992 --     9 C    0.975
    15   1 H    0.990 --     9 C    0.962
    16   1 H    0.988 --     9 C    0.940
 ---------------------------------------------------------------------------

           -------------------------------------------------
          | TOTAL ENERGY              -33.394960394003 Eh   |
          | GRADIENT NORM               0.000250551246 Eh/α |
          | HOMO-LUMO GAP               2.763433777694 eV   |
           -------------------------------------------------

 * finished run on 2023/06/20 at 14:55:57.271
