   * xtb version 6.5.1 (579679a) compiled by 'ehlert@majestix' on 2022-07-11
          program call               : /lustre/hpc/kemi/ree/PhD/git/ReactivityQM/dep/xtb-6.5.1/bin/xtb --gfn 1 /lustre/hpc/kemi/ree/PhD/git/ReactivityQM/calculations/R03/reac02prodN08/conf17/R03_reac02prodN08_conf17_gfn1.xyz --opt --vfukui --chrg 1 --uhf 0 --alpb DMSO

   ID    Z sym.   atoms
    1    6 C      1, 3, 4, 6, 8-11, 13, 15, 18, 19, 22, 23, 25
    2    8 O      2, 5, 14, 20, 24, 26
    3    7 N      7, 12, 16, 17, 21
    4    1 H      27-46

      * Solvation model:               ALPB
        Solvent                        DMSO
        Solvent mass                       7.8130E+01 g/mol
          :  Hamiltonian                  GFN1-xTB          :
 * total energy  :   -86.1878701 Eh     change       -0.6335199E-10 Eh
 * total energy  :   -86.2074508 Eh     change       -0.1958070E-01 Eh
 * total energy  :   -86.2215988 Eh     change       -0.1414798E-01 Eh
 * total energy  :   -86.2265799 Eh     change       -0.4981054E-02 Eh
 * total energy  :   -86.2308061 Eh     change       -0.4226195E-02 Eh
 * total energy  :   -86.2346456 Eh     change       -0.3839569E-02 Eh
 * total energy  :   -86.2389590 Eh     change       -0.4313339E-02 Eh
 * total energy  :   -86.2429911 Eh     change       -0.4032096E-02 Eh
 * total energy  :   -86.2462055 Eh     change       -0.3214427E-02 Eh
 * total energy  :   -86.2499423 Eh     change       -0.3736771E-02 Eh
 * total energy  :   -86.3068593 Eh     change       -0.2554861E-04 Eh
 * total energy  :   -86.3068708 Eh     change       -0.1150197E-04 Eh
 * total energy  :   -86.3068816 Eh     change       -0.1083212E-04 Eh
 * total energy  :   -86.3068920 Eh     change       -0.1039113E-04 Eh
 * total energy  :   -86.3068979 Eh     change       -0.5831716E-05 Eh
 * total energy  :   -86.3069068 Eh     change       -0.8951418E-05 Eh
 * total energy  :   -86.3069125 Eh     change       -0.5680222E-05 Eh
 * total energy  :   -86.3069182 Eh     change       -0.5720125E-05 Eh
 * total energy  :   -86.3069222 Eh     change       -0.3956675E-05 Eh
   *** GEOMETRY OPTIMIZATION CONVERGED AFTER 68 ITERATIONS ***

 final structure:
================
46
 xtb: 6.5.1 (579679a)
C           -4.43480057528323        2.06244130624431       -1.19182143893935
O           -3.87825131471896        0.71213924402886       -1.05102458924366
C           -4.64678102687572       -0.39297791912793       -1.65220311973581
C           -4.07553150551776       -1.71230175615729       -1.33866022521037
O           -5.57880765887769       -0.08290367282027       -2.29806847137763
C           -2.82300571440122        0.52299145931181       -0.09830666674732
N           -1.73887594151265       -0.09874846116956       -0.58702164576514
C           -0.70623542027521       -0.30267381287067        0.18794139942477
C            0.45080366339657       -1.06298565993574       -0.44344136579161
C            0.22946657355551       -1.17993835788036       -1.95801491604584
C            0.52298840956902       -2.46571553687878        0.17976793929723
N            1.68004253309065       -0.29980986356305       -0.21464774886151
C            2.90454811265774       -0.75934262913182       -0.59232752521467
O            3.15071419127014       -1.88837356580555       -0.96490582180232
C            3.92241803774459        0.30892514493362       -0.45979009883679
N            3.70830298346152        1.53056301275098       -0.06987221937125
N            4.90740639388263        2.17156233777988       -0.11250739794528
C            5.77893356912406        1.30079999079861       -0.52958637036520
C            7.22620304433445        1.50660711169721       -0.75790064512064
O            5.21606254349036        0.10765099936765       -0.76548868449392
N           -0.71027511906658        0.10309665603352        1.48746867497024
C            0.38404944385164       -0.11118647480212        2.44461986744521
C           -1.80409372931172        0.74698396823474        2.06530554295356
O           -1.81059971881211        1.09637283487121        3.23222923058630
C           -2.93593966843690        0.96347127197343        1.17811086661045
O           -4.01694528053508        1.58430355304047        1.66273702967971
H           -4.84223442960150        2.12995700257528       -2.19847690114837
H           -3.60915161811395        2.75400213488022       -1.05278081061238
H           -5.20579914969820        2.20291326712734       -0.43576609668959
H           -4.69569974582678       -2.48131381446184       -1.79472447037249
H           -4.02768170184580       -1.85208224676267       -0.25958885290955
H           -3.05821581372144       -1.76813451073379       -1.72624224158903
H           -0.67846951296042       -1.74504865534699       -2.15757930247799
H            0.13609066621429       -0.19058324770279       -2.40165576556818
H            1.07578290892652       -1.69883791024564       -2.40542646604294
H           -0.46994028289905       -2.91152807667189        0.15696650220755
H            1.20374790452377       -3.09217501732846       -0.39343484945948
H            0.86775882741788       -2.42426232734124        1.20962869333845
H            1.58182860306605        0.69954046892305       -0.11157062027002
H            7.42985216589329        1.54468404126610       -1.82888145184931
H            7.79104479095439        0.67682298584611       -0.33534861835047
H            7.54118376214209        2.44198530411013       -0.30138320875293
H            0.54432858095243        0.82319229143334        2.98216744722221
H            1.29065048910711       -0.40400454149572        1.92974441428642
H            0.07679819557719       -0.88220145694676        3.15091921145717
H           -3.87366846592404        1.81611812795852        2.59947078748232

          :  Hamiltonian                  GFN1-xTB          :
         :: total energy             -86.306922170502 Eh    ::
         :: gradient norm              0.000497525110 Eh/a0 ::
         :: HOMO-LUMO gap              2.947579641307 eV    ::
         :: SCC energy               -87.152959024714 Eh    ::
         :: -> Gsolv                  -0.109076681373 Eh    ::
         :: repulsion energy           0.876063803024 Eh    ::

    * Orbital Energies and Occupations

         #    Occupation            Energy/Eh            Energy/eV
      -------------------------------------------------------------
         1        2.0000           -0.9456995             -25.7338
       ...           ...                  ...                  ...
        58        2.0000           -0.5284759             -14.3806
        59        2.0000           -0.5211359             -14.1808
        60        2.0000           -0.5152043             -14.0194
        61        2.0000           -0.5114001             -13.9159
        62        2.0000           -0.5034361             -13.6992
        63        2.0000           -0.4951912             -13.4748
        64        2.0000           -0.4922423             -13.3946
        65        2.0000           -0.4884598             -13.2917
        66        2.0000           -0.4744560             -12.9106
        67        2.0000           -0.4683006             -12.7431
        68        2.0000           -0.4602152             -12.5231
        69        2.0000           -0.4584325             -12.4746
        70        2.0000           -0.4546489             -12.3716 (HOMO)
        71                         -0.3463273              -9.4240 (LUMO)
        72                         -0.3349843              -9.1154
        73                         -0.3199530              -8.7064
        74                         -0.3135278              -8.5315
        75                         -0.2616834              -7.1208
        76                         -0.2104911              -5.7278
        77                         -0.2071572              -5.6370
        78                         -0.1917889              -5.2188
        79                         -0.1701020              -4.6287
        80                         -0.1524050              -4.1472
        81                         -0.1439633              -3.9174
       ...                                ...                  ...
       144                          0.7503031              20.4168
      -------------------------------------------------------------
                  HL-Gap            0.1083216 Eh            2.9476 eV

Wiberg/Mayer (AO) data.
largest (>0.10) Wiberg bond orders for each atom

     #   Z sym  total        # sym  WBO       # sym  WBO       # sym  WBO
 ---------------------------------------------------------------------------
     1   6 C    3.757 --    28 H    0.979    29 H    0.976    27 H    0.972
                             2 O    0.776
     2   8 O    2.531 --     6 C    0.805     3 C    0.778     1 C    0.776
     3   6 C    3.763 --     5 O    1.860     4 C    1.034     2 O    0.778
     4   6 C    3.971 --     3 C    1.034    30 H    0.967    31 H    0.945
                            32 H    0.935
     5   8 O    2.094 --     3 C    1.860
     6   6 C    3.806 --    25 C    1.505     7 N    1.236     2 O    0.805
     7   7 N    3.032 --     8 C    1.492     6 C    1.236
     8   6 C    3.918 --     7 N    1.492    21 N    1.224     9 C    0.978
     9   6 C    3.934 --    10 C    0.989     8 C    0.978    11 C    0.977
                            12 N    0.928
    10   6 C    3.988 --     9 C    0.989    34 H    0.984    33 H    0.982
                            35 H    0.980
    11   6 C    3.984 --    36 H    0.985    38 H    0.981     9 C    0.977
                            37 H    0.974
    12   7 N    3.318 --    13 C    1.210     9 C    0.928    39 H    0.894
                            14 O    0.166
    13   6 C    3.912 --    14 O    1.618    12 N    1.210    15 C    0.995
    14   8 O    1.931 --    13 C    1.618    12 N    0.166
    15   6 C    3.878 --    16 N    1.603    20 O    1.065    13 C    0.995
    16   7 N    3.019 --    15 C    1.603    17 N    1.207
    17   7 N    2.981 --    18 C    1.597    16 N    1.207
    18   6 C    3.868 --    17 N    1.597    20 O    1.086    19 C    1.032
    19   6 C    3.985 --    18 C    1.032    42 H    0.981    41 H    0.969
                            40 H    0.958
    20   8 O    2.335 --    18 C    1.086    15 C    1.065
    21   7 N    3.523 --     8 C    1.224    23 C    1.103    22 C    0.915
                            24 O    0.131
    22   6 C    3.903 --    44 H    0.975    43 H    0.973    45 H    0.972
                            21 N    0.915
    23   6 C    3.919 --    24 O    1.594    21 N    1.103    25 C    1.072
    24   8 O    1.932 --    23 C    1.594    21 N    0.131
    25   6 C    3.929 --     6 C    1.505    26 O    1.100    23 C    1.072
    26   8 O    2.073 --    25 C    1.100    46 H    0.790
    27   1 H    0.996 --     1 C    0.972
    28   1 H    0.993 --     1 C    0.979
    29   1 H    1.001 --     1 C    0.976
    30   1 H    0.987 --     4 C    0.967
    31   1 H    0.989 --     4 C    0.945
    32   1 H    1.004 --     4 C    0.935
    33   1 H    1.008 --    10 C    0.982
    34   1 H    1.004 --    10 C    0.984
    35   1 H    1.003 --    10 C    0.980
    36   1 H    1.000 --    11 C    0.985
    37   1 H    1.009 --    11 C    0.974
    38   1 H    0.999 --    11 C    0.981
    39   1 H    0.950 --    12 N    0.894
    40   1 H    0.996 --    19 C    0.958
    41   1 H    0.996 --    19 C    0.969
    42   1 H    0.998 --    19 C    0.981
    43   1 H    1.001 --    22 C    0.973
    44   1 H    1.007 --    22 C    0.975
    45   1 H    0.998 --    22 C    0.972
    46   1 H    0.823 --    26 O    0.790
 ---------------------------------------------------------------------------

           -------------------------------------------------
          | TOTAL ENERGY              -86.306922170502 Eh   |
          | GRADIENT NORM               0.000497525110 Eh/α |
          | HOMO-LUMO GAP               2.947579641307 eV   |
           -------------------------------------------------

 * finished run on 2023/06/20 at 15:43:04.819
