   * xtb version 6.5.1 (579679a) compiled by 'ehlert@majestix' on 2022-07-11
          program call               : /lustre/hpc/kemi/ree/PhD/git/ReactivityQM/dep/xtb-6.5.1/bin/xtb --gfn 1 /lustre/hpc/kemi/ree/PhD/git/ReactivityQM/calculations/R02methylcation/reac01/conf09/R02methylcation_reac01_conf09_gfn1.xyz --opt --vfukui --chrg -1 --uhf 0 --alpb DMSO

   ID    Z sym.   atoms
    1    6 C      1, 3, 5, 7-10, 12, 14, 17, 18, 21, 23
    2    8 O      2, 4, 13, 19, 22, 24
    3    7 N      6, 11, 15, 16, 20
    4    1 H      25-38

      * Solvation model:               ALPB
        Solvent                        DMSO
        Solvent mass                       7.8130E+01 g/mol
          :  Hamiltonian                  GFN1-xTB          :
 * total energy  :   -79.6042951 Eh     change       -0.4453682E-10 Eh
 * total energy  :   -79.6155188 Eh     change       -0.1122369E-01 Eh
 * total energy  :   -79.6194682 Eh     change       -0.3949421E-02 Eh
 * total energy  :   -79.6204272 Eh     change       -0.9590605E-03 Eh
 * total energy  :   -79.6214031 Eh     change       -0.9758161E-03 Eh
 * total energy  :   -79.6220894 Eh     change       -0.6863125E-03 Eh
 * total energy  :   -79.6227242 Eh     change       -0.6348093E-03 Eh
 * total energy  :   -79.6231951 Eh     change       -0.4708768E-03 Eh
 * total energy  :   -79.6234364 Eh     change       -0.2413861E-03 Eh
 * total energy  :   -79.6235469 Eh     change       -0.1104371E-03 Eh
 * total energy  :   -79.6268226 Eh     change       -0.6706951E-05 Eh
 * total energy  :   -79.6268294 Eh     change       -0.6800058E-05 Eh
 * total energy  :   -79.6268364 Eh     change       -0.6996386E-05 Eh
 * total energy  :   -79.6268434 Eh     change       -0.7050497E-05 Eh
 * total energy  :   -79.6268501 Eh     change       -0.6697973E-05 Eh
 * total energy  :   -79.6268563 Eh     change       -0.6185541E-05 Eh
 * total energy  :   -79.6268619 Eh     change       -0.5578607E-05 Eh
 * total energy  :   -79.6268670 Eh     change       -0.5152973E-05 Eh
 * total energy  :   -79.6268687 Eh     change       -0.1695668E-05 Eh
   *** GEOMETRY OPTIMIZATION CONVERGED AFTER 68 ITERATIONS ***

 final structure:
================
38
 xtb: 6.5.1 (579679a)
C           -5.70905711863008        0.18486809305202        1.72027510586353
O           -4.41073460344731       -0.07593522104295        1.20832959450604
C           -4.36234089345188       -0.50581086026253       -0.09169665503411
O           -5.39345860785731       -0.63347405565765       -0.73433745848003
C           -3.00649214723258       -0.76743825781768       -0.54140522866921
N           -2.01586641612154       -0.52673602010095        0.39489366472148
C           -0.78821430633673       -0.73556972341725        0.10353061440581
C            0.30676171581161       -0.51147602308788        1.12600333700195
C            0.77980862508053       -1.86136550326308        1.67437042526890
C           -0.20040718958534        0.38625915747556        2.25750014614856
N            1.45865951386088        0.11518933909912        0.46330762819536
C            1.36150210201095        1.27299402509923       -0.21889640198572
O            0.32828809982509        1.89308139303760       -0.41034869100650
C            2.66597752527974        1.72927122383625       -0.76817972590127
N            2.89129594772121        2.77250179548994       -1.50480259856004
N            4.22499040541223        2.77147436374877       -1.79148267988848
C            4.72985483217907        1.72778492056830       -1.21255246977976
C            6.13793991694755        1.27632538138403       -1.22216583075642
O            3.79740286080650        1.02450701489357       -0.54879575293015
N           -0.39551785044825       -1.22116292435073       -1.12719505688180
C           -1.26529395915470       -1.49321343809589       -2.15073254723915
O           -0.83589466470350       -1.92366600498777       -3.21912938375701
C           -2.72688702542480       -1.23447418241513       -1.85381788949239
O           -3.56386287760607       -1.44872805387443       -2.74930012294721
H           -6.33667573979891       -0.71060097282514        1.66349189812399
H           -6.19458175825650        0.99172396019941        1.16102093356327
H           -5.58781598771424        0.48169051842078        2.76117770626679
H           -0.05150521900938       -2.37341023115799        2.15704266665435
H            1.15703159750813       -2.48511820891178        0.86583633897532
H            1.57355998223529       -1.71319853617163        2.40396907240853
H            0.59342155565038        0.55546613198435        2.98161971297520
H           -1.04082266890516       -0.10102395003759        2.75025890955632
H           -0.53492385805526        1.34348381284045        1.85870535917161
H            2.36767405299558       -0.27474997927730        0.63430001908290
H            6.52036706457271        1.22954626476446       -0.20307089451387
H            6.74052846790941        1.96663517217179       -1.80709904826357
H            6.20492986579122        0.27685035265405       -1.65130188583000
H            0.58035876013172       -1.40250177396003       -1.29090481097702

          :  Hamiltonian                  GFN1-xTB          :
         :: total energy             -79.626868741656 Eh    ::
         :: gradient norm              0.000146298732 Eh/a0 ::
         :: HOMO-LUMO gap              1.622098734731 eV    ::
         :: SCC energy               -80.355343805892 Eh    ::
         :: -> Gsolv                  -0.145047935683 Eh    ::
         :: repulsion energy           0.751767887052 Eh    ::

    * Orbital Energies and Occupations

         #    Occupation            Energy/Eh            Energy/eV
      -------------------------------------------------------------
         1        2.0000           -0.8609131             -23.4266
       ...           ...                  ...                  ...
        52        2.0000           -0.4817672             -13.1096
        53        2.0000           -0.4752336             -12.9318
        54        2.0000           -0.4643190             -12.6348
        55        2.0000           -0.4595713             -12.5056
        56        2.0000           -0.4547290             -12.3738
        57        2.0000           -0.4540311             -12.3548
        58        2.0000           -0.4469691             -12.1626
        59        2.0000           -0.4427024             -12.0465
        60        2.0000           -0.4374258             -11.9030
        61        2.0000           -0.4353382             -11.8462
        62        2.0000           -0.4141278             -11.2690
        63        2.0000           -0.3761393             -10.2353
        64        2.0000           -0.3638512              -9.9009 (HOMO)
        65                         -0.3042402              -8.2788 (LUMO)
        66                         -0.2687147              -7.3121
        67                         -0.2526713              -6.8755
        68                         -0.2364562              -6.4343
        69                         -0.1950742              -5.3082
        70                         -0.1921148              -5.2277
        71                         -0.1396025              -3.7988
        72                         -0.1246451              -3.3918
        73                         -0.1220712              -3.3217
        74                         -0.1138254              -3.0973
        75                         -0.1069932              -2.9114
       ...                                ...                  ...
       124                          0.7663758              20.8541
      -------------------------------------------------------------
                  HL-Gap            0.0596110 Eh            1.6221 eV

Wiberg/Mayer (AO) data.
largest (>0.10) Wiberg bond orders for each atom

     #   Z sym  total        # sym  WBO       # sym  WBO       # sym  WBO
 ---------------------------------------------------------------------------
     1   6 C    3.900 --    27 H    0.987    26 H    0.981    25 H    0.980
                             2 O    0.928
     2   8 O    2.136 --     3 C    1.023     1 C    0.928     4 O    0.108
     3   6 C    3.849 --     4 O    1.590     5 C    1.121     2 O    1.023
     4   8 O    1.866 --     3 C    1.590     2 O    0.108
     5   6 C    3.916 --    23 C    1.268     6 N    1.151     3 C    1.121
                            24 O    0.130
     6   7 N    3.029 --     7 C    1.638     5 C    1.151
     7   6 C    3.933 --     6 N    1.638    20 N    1.092     8 C    0.973
     8   6 C    3.932 --    10 C    0.992     9 C    0.989     7 C    0.973
                            11 N    0.916
     9   6 C    3.991 --     8 C    0.989    29 H    0.984    28 H    0.984
                            30 H    0.984
    10   6 C    3.991 --     8 C    0.992    31 H    0.987    32 H    0.984
                            33 H    0.981
    11   7 N    3.354 --    12 C    1.264     8 C    0.916    34 H    0.895
                            13 O    0.179
    12   6 C    3.920 --    13 O    1.584    11 N    1.264    14 C    0.988
    13   8 O    1.887 --    12 C    1.584    11 N    0.179
    14   6 C    3.870 --    15 N    1.625    19 O    1.048    12 C    0.988
    15   7 N    2.997 --    14 C    1.625    16 N    1.195
    16   7 N    2.981 --    17 C    1.614    15 N    1.195
    17   6 C    3.870 --    16 N    1.614    19 O    1.072    18 C    1.031
    18   6 C    3.987 --    17 C    1.031    36 H    0.983    35 H    0.963
                            37 H    0.963
    19   8 O    2.316 --    17 C    1.072    14 C    1.048
    20   7 N    3.427 --    21 C    1.164     7 C    1.092    38 H    0.898
                            22 O    0.135
    21   6 C    3.878 --    22 O    1.576    20 N    1.164    23 C    0.967
    22   8 O    1.854 --    21 C    1.576    20 N    0.135
    23   6 C    3.943 --    24 O    1.522     5 C    1.268    21 C    0.967
    24   8 O    1.826 --    23 C    1.522     5 C    0.130
    25   1 H    1.014 --     1 C    0.980
    26   1 H    1.014 --     1 C    0.981
    27   1 H    1.016 --     1 C    0.987
    28   1 H    1.003 --     9 C    0.984
    29   1 H    1.000 --     9 C    0.984
    30   1 H    0.998 --     9 C    0.984
    31   1 H    1.003 --    10 C    0.987
    32   1 H    1.013 --    10 C    0.984
    33   1 H    1.014 --    10 C    0.981
    34   1 H    0.937 --    11 N    0.895
    35   1 H    0.997 --    18 C    0.963
    36   1 H    0.999 --    18 C    0.983
    37   1 H    0.997 --    18 C    0.963
    38   1 H    0.949 --    20 N    0.898
 ---------------------------------------------------------------------------

           -------------------------------------------------
          | TOTAL ENERGY              -79.626868741656 Eh   |
          | GRADIENT NORM               0.000146298732 Eh/α |
          | HOMO-LUMO GAP               1.622098734731 eV   |
           -------------------------------------------------

 * finished run on 2023/06/21 at 17:03:50.734
