   * xtb version 6.5.1 (579679a) compiled by 'ehlert@majestix' on 2022-07-11
          program call               : /lustre/hpc/kemi/ree/PhD/git/ReactivityQM/dep/xtb-6.5.1/bin/xtb --gfn 1 /lustre/hpc/kemi/ree/PhD/git/ReactivityQM/calculations/RaltegravirCLI/reac02prodN06/conf14/RaltegravirCLI_reac02prodN06_conf14_gfn1.xyz --opt --vfukui --chrg 1 --uhf 0 --alpb DMSO

   ID    Z sym.   atoms
    1    6 C      1, 3, 5, 7-9, 12-16, 18, 19, 21-24
    2    7 N      2, 11, 20, 25
    3    8 O      4, 6, 10
    4    9 F      17
    5    1 H      26-47

      * Solvation model:               ALPB
        Solvent                        DMSO
        Solvent mass                       7.8130E+01 g/mol
          :  Hamiltonian                  GFN1-xTB          :
 * total energy  :   -79.4684870 Eh     change       -0.2143707E-09 Eh
 * total energy  :   -79.4823745 Eh     change       -0.1388747E-01 Eh
 * total energy  :   -79.4878679 Eh     change       -0.5493415E-02 Eh
 * total energy  :   -79.4890864 Eh     change       -0.1218499E-02 Eh
 * total energy  :   -79.4899596 Eh     change       -0.8731875E-03 Eh
 * total energy  :   -79.4902225 Eh     change       -0.2629354E-03 Eh
 * total energy  :   -79.4904603 Eh     change       -0.2378325E-03 Eh
 * total energy  :   -79.4906367 Eh     change       -0.1763864E-03 Eh
 * total energy  :   -79.4907829 Eh     change       -0.1462042E-03 Eh
 * total energy  :   -79.4909251 Eh     change       -0.1421886E-03 Eh
 * total energy  :   -79.4933463 Eh     change       -0.1970198E-04 Eh
 * total energy  :   -79.4933602 Eh     change       -0.1387538E-04 Eh
 * total energy  :   -79.4933741 Eh     change       -0.1389985E-04 Eh
 * total energy  :   -79.4933819 Eh     change       -0.7844141E-05 Eh
 * total energy  :   -79.4933901 Eh     change       -0.8231253E-05 Eh
 * total energy  :   -79.4933908 Eh     change       -0.6664363E-06 Eh
 * total energy  :   -79.4933965 Eh     change       -0.5745545E-05 Eh
 * total energy  :   -79.4934037 Eh     change       -0.7142760E-05 Eh
 * total energy  :   -79.4934075 Eh     change       -0.3798972E-05 Eh
   *** GEOMETRY OPTIMIZATION CONVERGED AFTER 44 ITERATIONS ***

 final structure:
================
47
 xtb: 6.5.1 (579679a)
C           -2.50846307107203        0.71640791011547        1.92474946164557
N           -1.93330214387180        0.80667260238995        0.57844313088066
C           -1.08863564077367        1.86296561915561        0.38825118903718
O           -0.84758063365818        2.72636748847779        1.21596772142868
C           -0.44014296168134        1.92369695700645       -0.93613969211101
O            0.35700426792336        2.91888662793965       -1.15927943166733
C           -0.55679846610859        0.82563118256538       -1.84155681182830
C           -0.32416969844057        1.03860228420405       -3.32941152179860
C            0.77399961147527       -0.00604759294934       -1.18425792411525
O            0.55206892821441       -0.90646989847019       -0.43273504797095
N            1.90895391565583        0.44262683934628       -1.66343895697354
C            3.14737820529328       -0.34463198415929       -1.47313820546984
C            3.68527536950435       -0.17074644161262       -0.07412125996466
C            4.48955732326681        0.92470255683189        0.23402878198258
C            4.99224538974815        1.08875302911153        1.51638350634055
C            4.67376146976033        0.13978689997758        2.47235517791769
F            5.15726292614608        0.28943352117228        3.71137869713084
C            3.87655012017905       -0.95789289168389        2.19899515953123
C            3.37983769496435       -1.10628353240116        0.91243469737938
N           -1.63593460133194       -0.03533872720928       -1.59118832947201
C           -2.23185122722948       -0.07995403051657       -0.45365226111783
C           -3.25927074061172       -1.19141275525144       -0.29063862361748
C           -3.57841216898859       -1.79007134319021       -1.67029150117895
C           -2.64994441782287       -2.27880616415509        0.60724352294946
N           -4.48028269665737       -0.67560392717283        0.31611059498864
H           -3.50298243958470        0.27995083086323        1.86530657107533
H           -2.56075770826752        1.72326211969068        2.33734703349636
H           -1.85987269528249        0.10112194027439        2.54810521438353
H            0.37978030609224        3.54204571406382       -0.39781585568950
H           -1.27438530897667        1.32551626522241       -3.77837425204204
H            0.01746050444521        0.11638503781689       -3.79420859000299
H            0.40122799534022        1.83001459885625       -3.49938851600076
H            1.97211539709350        1.29320320899131       -2.19633990700459
H            2.90810505843784       -1.39190086147554       -1.67181834356309
H            3.85386189102429        0.01762440879293       -2.22030025090427
H            4.72597007694038        1.65161080978185       -0.53279430429848
H            5.61845752200339        1.93398435374523        1.77032841912690
H            3.65091341836632       -1.67750834630483        2.97526335438094
H            2.74904210365990       -1.95383009995744        0.67255189681855
H           -2.69060309654811       -2.24855016573336       -2.10289411213616
H           -4.35302487741018       -2.54683744253462       -1.55918959868568
H           -3.93603479289819       -1.01292294830803       -2.34325591545731
H           -1.66931929728146       -2.56291203508073        0.22663529106206
H           -2.54335077609774       -1.92620292689418        1.63063691168232
H           -3.29892593907012       -3.15321008309831        0.60605625989200
H           -4.94346050251969       -0.05402315855834       -0.33236656246518
H           -5.10332259335335       -1.44809644967407        0.50894918240553

          :  Hamiltonian                  GFN1-xTB          :
         :: total energy             -79.493407488087 Eh    ::
         :: gradient norm              0.000667549049 Eh/a0 ::
         :: HOMO-LUMO gap              0.664249258528 eV    ::
         :: SCC energy               -80.394621302967 Eh    ::
         :: -> Gsolv                  -0.102365220322 Eh    ::
         :: repulsion energy           0.933356394598 Eh    ::

    * Orbital Energies and Occupations

         #    Occupation            Energy/Eh            Energy/eV
      -------------------------------------------------------------
         1        2.0000           -0.8952213             -24.3602
       ...           ...                  ...                  ...
        55        2.0000           -0.5229814             -14.2310
        56        2.0000           -0.5151122             -14.0169
        57        2.0000           -0.5130872             -13.9618
        58        2.0000           -0.5090915             -13.8531
        59        2.0000           -0.4998514             -13.6016
        60        2.0000           -0.4919377             -13.3863
        61        2.0000           -0.4901151             -13.3367
        62        2.0000           -0.4861139             -13.2278
        63        2.0000           -0.4785731             -13.0226
        64        2.0000           -0.4736408             -12.8884
        65        2.0000           -0.4647264             -12.6459
        66        2.0000           -0.4527080             -12.3188
        67        2.0000           -0.4271668             -11.6238 (HOMO)
        68        0.0000           -0.4027561             -10.9596 (LUMO)
        69                         -0.3204934              -8.7211
        70                         -0.2921900              -7.9509
        71                         -0.2864664              -7.7951
        72                         -0.2832593              -7.7079
        73                         -0.2540174              -6.9122
        74                         -0.1620224              -4.4089
        75                         -0.1581280              -4.3029
        76                         -0.1507227              -4.1014
        77                         -0.1449036              -3.9430
        78                         -0.1424827              -3.8772
       ...                                ...                  ...
       144                          0.7413347              20.1727
      -------------------------------------------------------------
                  HL-Gap            0.0244107 Eh            0.6642 eV

Wiberg/Mayer (AO) data.
largest (>0.10) Wiberg bond orders for each atom

     #   Z sym  total        # sym  WBO       # sym  WBO       # sym  WBO
 ---------------------------------------------------------------------------
     1   6 C    3.897 --    27 H    0.974    28 H    0.968    26 H    0.958
                             2 N    0.915
     2   7 N    3.533 --     3 C    1.194    21 C    1.103     1 C    0.915
                             4 O    0.164
     3   6 C    3.927 --     4 O    1.586     2 N    1.194     5 C    1.011
     4   8 O    1.942 --     3 C    1.586     2 N    0.164
     5   6 C    3.845 --     6 O    1.266     7 C    1.149     3 C    1.011
                             9 C    0.110
     6   8 O    2.218 --     5 C    1.266    29 H    0.757
     7   6 C    3.959 --     5 C    1.149    20 N    1.061     8 C    0.978
                             9 C    0.597
     8   6 C    3.975 --    31 H    0.980    32 H    0.980     7 C    0.978
                            30 H    0.969
     9   6 C    3.904 --    10 O    1.698    11 N    1.375     7 C    0.597
                             5 C    0.110
    10   8 O    2.082 --     9 C    1.698    11 N    0.181
    11   7 N    3.402 --     9 C    1.375    12 C    0.882    33 H    0.882
                            10 O    0.181
    12   6 C    3.907 --    13 C    0.998    34 H    0.972    35 H    0.971
                            11 N    0.882
    13   6 C    3.984 --    19 C    1.415    14 C    1.415    12 C    0.998
    14   6 C    3.993 --    15 C    1.448    13 C    1.415    36 H    0.971
                            18 C    0.109
    15   6 C    3.990 --    14 C    1.448    16 C    1.396    37 H    0.968
                            19 C    0.109
    16   6 C    3.860 --    18 C    1.397    15 C    1.396    17 F    0.935
    17   9 F    1.066 --    16 C    0.935
    18   6 C    3.991 --    19 C    1.446    16 C    1.397    38 H    0.968
                            14 C    0.109
    19   6 C    3.991 --    18 C    1.446    13 C    1.415    39 H    0.969
                            15 C    0.109
    20   7 N    3.030 --    21 C    1.656     7 C    1.061
    21   6 C    3.902 --    20 N    1.656     2 N    1.103    22 C    0.975
    22   6 C    3.961 --    23 C    0.989    25 N    0.985    24 C    0.976
                            21 C    0.975
    23   6 C    3.992 --    22 C    0.989    41 H    0.984    42 H    0.984
                            40 H    0.983
    24   6 C    3.991 --    43 H    0.984    44 H    0.982    45 H    0.981
                            22 C    0.976
    25   7 N    3.001 --    22 C    0.985    46 H    0.937    47 H    0.933
    26   1 H    1.024 --     1 C    0.958
    27   1 H    1.002 --     1 C    0.974
    28   1 H    0.999 --     1 C    0.968
    29   1 H    0.804 --     6 O    0.757
    30   1 H    0.996 --     8 C    0.969
    31   1 H    0.997 --     8 C    0.980
    32   1 H    0.996 --     8 C    0.980
    33   1 H    0.927 --    11 N    0.882
    34   1 H    0.997 --    12 C    0.972
    35   1 H    0.996 --    12 C    0.971
    36   1 H    0.997 --    14 C    0.971
    37   1 H    0.996 --    15 C    0.968
    38   1 H    0.996 --    18 C    0.968
    39   1 H    1.004 --    19 C    0.969
    40   1 H    1.009 --    23 C    0.983
    41   1 H    1.002 --    23 C    0.984
    42   1 H    1.006 --    23 C    0.984
    43   1 H    1.006 --    24 C    0.984
    44   1 H    1.002 --    24 C    0.982
    45   1 H    0.998 --    24 C    0.981
    46   1 H    0.951 --    25 N    0.937
    47   1 H    0.948 --    25 N    0.933
 ---------------------------------------------------------------------------

           -------------------------------------------------
          | TOTAL ENERGY              -79.493407488087 Eh   |
          | GRADIENT NORM               0.000667549049 Eh/α |
          | HOMO-LUMO GAP               0.664249258528 eV   |
           -------------------------------------------------

 * finished run on 2023/06/20 at 15:23:18.941
