   * xtb version 6.5.1 (579679a) compiled by 'ehlert@majestix' on 2022-07-11
          program call               : /lustre/hpc/kemi/ree/PhD/git/ReactivityQM/dep/xtb-6.5.1/bin/xtb --gfn 1 /lustre/hpc/kemi/ree/PhD/git/ReactivityQM/calculations/R03/reac02prodE09/conf20/R03_reac02prodE09_conf20_gfn1.xyz --opt --vfukui --chrg -1 --uhf 0 --alpb DMSO

   ID    Z sym.   atoms
    1    6 C      1, 3, 5, 7-10, 12, 14, 16, 17, 20, 22, 23, 25
    2    8 O      2, 4, 13, 15, 24, 26
    3    7 N      6, 11, 18, 19, 21
    4    1 H      27-46

      * Solvation model:               ALPB
        Solvent                        DMSO
        Solvent mass                       7.8130E+01 g/mol
          :  Hamiltonian                  GFN1-xTB          :
 * total energy  :   -87.0135093 Eh     change       -0.3869474E-09 Eh
 * total energy  :   -87.0243122 Eh     change       -0.1080291E-01 Eh
 * total energy  :   -87.0279796 Eh     change       -0.3667358E-02 Eh
 * total energy  :   -87.0288058 Eh     change       -0.8261978E-03 Eh
 * total energy  :   -87.0296272 Eh     change       -0.8214052E-03 Eh
 * total energy  :   -87.0303496 Eh     change       -0.7224563E-03 Eh
 * total energy  :   -87.0314485 Eh     change       -0.1098835E-02 Eh
 * total energy  :   -87.0324399 Eh     change       -0.9914359E-03 Eh
 * total energy  :   -87.0336256 Eh     change       -0.1185733E-02 Eh
 * total energy  :   -87.0344691 Eh     change       -0.8434265E-03 Eh
 * total energy  :   -87.0370461 Eh     change       -0.1793699E-04 Eh
 * total energy  :   -87.0370671 Eh     change       -0.2097315E-04 Eh
 * total energy  :   -87.0370816 Eh     change       -0.1449809E-04 Eh
 * total energy  :   -87.0370964 Eh     change       -0.1478617E-04 Eh
 * total energy  :   -87.0371142 Eh     change       -0.1787479E-04 Eh
 * total energy  :   -87.0371266 Eh     change       -0.1234227E-04 Eh
 * total energy  :   -87.0371352 Eh     change       -0.8601055E-05 Eh
 * total energy  :   -87.0371412 Eh     change       -0.5986121E-05 Eh
 * total energy  :   -87.0371459 Eh     change       -0.4724502E-05 Eh
   *** GEOMETRY OPTIMIZATION CONVERGED AFTER 41 ITERATIONS ***

 final structure:
================
46
 xtb: 6.5.1 (579679a)
C           -6.04268675882145        2.83764717779872        0.91773998806306
O           -5.25684696785206        1.65442258721713        0.81712757780598
C           -4.06526334012747        1.78482019081525        0.19609569354463
O           -3.68663415102802        2.85441252338491       -0.25331156889318
C           -3.29821111640739        0.53344560285085        0.12167935016954
N           -2.08564715067001        0.64885245929818       -0.50854841921728
C           -1.28722062845706       -0.35698369747261       -0.66258249563535
C           -0.00310640554984       -0.08980216628850       -1.44854685391426
C            0.13010746639885        1.42669625305892       -1.67905254402069
C           -0.11439885038975       -0.80136125870696       -2.80815335784730
N            1.13003375308530       -0.59392626360165       -0.66670132435273
C            2.46423202403687       -0.30461693790098       -1.13867022782781
O            2.71013302706694       -0.15648601776401       -2.36986888581995
C            3.39690311665852       -0.19413213731839       -0.13586415312699
O            3.14432915786666       -0.43150263972010        1.23000321571607
C            4.35839928927177       -0.41375066632620        1.80607162178319
C            4.44952013532047       -0.61039728653056        3.27716587572631
N            5.35311227761397       -0.22562698613008        1.02547719252044
N            4.82960494425846       -0.13989110102255       -0.29677933913193
C            5.33283854299626        1.06654028452981       -0.96515988681376
N           -1.61174058591651       -1.61145504925269       -0.19216072151512
C           -0.78385368963328       -2.80930272670817       -0.33397197253696
C           -2.82795705966225       -1.84278972985097        0.44111877780597
O           -3.14570100728916       -2.97158393735233        0.84136600950114
C           -3.68717255018078       -0.70345270870557        0.59978283602420
O           -4.86558001469181       -0.94416560337232        1.22157652220684
H           -6.96930078842403        2.55937099064796        1.41698937718130
H           -6.25991662853806        3.23999693685140       -0.07606589082261
H           -5.51718848416540        3.59820375916592        1.50267582822677
H           -0.73199993109488        1.79830149844145       -2.23162672451647
H            0.18558466069777        1.94893695000235       -0.72449882892726
H            1.03227543034734        1.63238351599757       -2.25286957882291
H            0.69329176459205       -0.48348752049302       -3.46530627195299
H           -0.05818799889659       -1.88143156899576       -2.69163364309326
H           -1.06712000296059       -0.54727283801605       -3.27304461425059
H            1.03886992277789       -0.32227116963946        0.30693240976302
H            5.49030791788406       -0.57137464770665        3.58931525055537
H            4.02313724114682       -1.57438070065718        3.55379739051198
H            3.88645893939159        0.16759482287277        3.79184569858754
H            4.90915645398714        1.08731429185108       -1.96891179949477
H            5.04599589694386        1.97184981242276       -0.42153244297551
H            6.41844716026249        1.00233156378428       -1.02290902867752
H           -0.84406478533235       -3.37631059405820        0.59570065813913
H           -1.17340199512275       -3.42571720937077       -1.14584122688185
H            0.25045521271422       -2.53904623250203       -0.52791156091917
H           -4.88999144411066       -1.89060282552607        1.45290808815432

          :  Hamiltonian                  GFN1-xTB          :
         :: total energy             -87.037145892005 Eh    ::
         :: gradient norm              0.000539089827 Eh/a0 ::
         :: HOMO-LUMO gap              0.093581276347 eV    ::
         :: SCC energy               -87.832899614869 Eh    ::
         :: -> Gsolv                  -0.107247945307 Eh    ::
         :: repulsion energy           0.824414002464 Eh    ::

    * Orbital Energies and Occupations

         #    Occupation            Energy/Eh            Energy/eV
      -------------------------------------------------------------
         1        2.0000           -0.8152993             -22.1854
       ...           ...                  ...                  ...
        59        2.0000           -0.4755217             -12.9396
        60        2.0000           -0.4672634             -12.7149
        61        2.0000           -0.4591171             -12.4932
        62        2.0000           -0.4472399             -12.1700
        63        2.0000           -0.4430745             -12.0567
        64        2.0000           -0.4342177             -11.8157
        65        2.0000           -0.4337878             -11.8040
        66        2.0000           -0.4203591             -11.4386
        67        2.0000           -0.4063322             -11.0569
        68        2.0000           -0.4031170             -10.9694
        69        2.0000           -0.4005875             -10.9005
        70        2.0000           -0.3825098             -10.4086
        71        1.7187           -0.3058139              -8.3216 (HOMO)
        72        0.2813           -0.3023749              -8.2280 (LUMO)
        73                         -0.2556385              -6.9563
        74                         -0.2249170              -6.1203
        75                         -0.2152250              -5.8566
        76                         -0.1499786              -4.0811
        77                         -0.1306292              -3.5546
        78                         -0.1287448              -3.5033
        79                         -0.1284918              -3.4964
        80                         -0.1223905              -3.3304
        81                         -0.1024424              -2.7876
        82                         -0.1014768              -2.7613
       ...                                ...                  ...
       144                          0.7161523              19.4875
      -------------------------------------------------------------
                  HL-Gap            0.0034390 Eh            0.0936 eV

Wiberg/Mayer (AO) data.
largest (>0.10) Wiberg bond orders for each atom

     #   Z sym  total        # sym  WBO       # sym  WBO       # sym  WBO
 ---------------------------------------------------------------------------
     1   6 C    3.888 --    27 H    0.987    28 H    0.980    29 H    0.980
                             2 O    0.914
     2   8 O    2.155 --     3 C    1.065     1 C    0.914     4 O    0.118
     3   6 C    3.787 --     4 O    1.600     2 O    1.065     5 C    1.054
     4   8 O    1.838 --     3 C    1.600     2 O    0.118
     5   6 C    3.883 --    25 C    1.408     6 N    1.176     3 C    1.054
     6   7 N    3.019 --     7 C    1.580     5 C    1.176
     7   6 C    3.903 --     6 N    1.580    21 N    1.150     8 C    0.973
     8   6 C    3.958 --     9 C    0.990    10 C    0.983     7 C    0.973
                            11 N    0.957
     9   6 C    3.994 --     8 C    0.990    31 H    0.986    30 H    0.986
                            32 H    0.982
    10   6 C    3.992 --    35 H    0.988     8 C    0.983    34 H    0.983
                            33 H    0.976
    11   7 N    3.101 --    12 C    0.974     8 C    0.957    36 H    0.932
    12   6 C    3.877 --    14 C    1.422    13 O    1.367    11 N    0.974
    13   8 O    1.684 --    12 C    1.367    14 C    0.126
    14   6 C    3.565 --    12 C    1.422    19 N    0.979    15 O    0.910
                            13 O    0.126
    15   8 O    2.180 --    16 C    1.068    14 C    0.910    18 N    0.114
    16   6 C    3.896 --    18 N    1.709    15 O    1.068    17 C    1.020
    17   6 C    3.993 --    16 C    1.020    37 H    0.986    38 H    0.970
                            39 H    0.970
    18   7 N    2.934 --    16 C    1.709    19 N    1.004    15 O    0.114
    19   7 N    3.076 --    18 N    1.004    14 C    0.979    20 C    0.952
    20   6 C    3.955 --    42 H    0.989    40 H    0.985    41 H    0.983
                            19 N    0.952
    21   7 N    3.439 --     7 C    1.150    23 C    1.105    22 C    0.934
                            24 O    0.119
    22   6 C    3.929 --    44 H    0.978    43 H    0.977    45 H    0.971
                            21 N    0.934
    23   6 C    3.874 --    24 O    1.496    25 C    1.138    21 N    1.105
    24   8 O    1.822 --    23 C    1.496    21 N    0.119
    25   6 C    3.820 --     5 C    1.408    23 C    1.138    26 O    1.066
    26   8 O    2.027 --    25 C    1.066    46 H    0.819
    27   1 H    1.014 --     1 C    0.987
    28   1 H    1.011 --     1 C    0.980
    29   1 H    1.010 --     1 C    0.980
    30   1 H    1.016 --     9 C    0.986
    31   1 H    1.011 --     9 C    0.986
    32   1 H    1.016 --     9 C    0.982
    33   1 H    1.026 --    10 C    0.976
    34   1 H    1.008 --    10 C    0.983
    35   1 H    1.006 --    10 C    0.988
    36   1 H    0.971 --    11 N    0.932
    37   1 H    1.003 --    17 C    0.986
    38   1 H    1.002 --    17 C    0.970
    39   1 H    1.002 --    17 C    0.970
    40   1 H    1.030 --    20 C    0.985
    41   1 H    1.010 --    20 C    0.983
    42   1 H    1.019 --    20 C    0.989
    43   1 H    1.010 --    22 C    0.977
    44   1 H    1.004 --    22 C    0.978
    45   1 H    1.027 --    22 C    0.971
    46   1 H    0.864 --    26 O    0.819
 ---------------------------------------------------------------------------

           -------------------------------------------------
          | TOTAL ENERGY              -87.037145892005 Eh   |
          | GRADIENT NORM               0.000539089827 Eh/α |
          | HOMO-LUMO GAP               0.093581276347 eV   |
           -------------------------------------------------

 * finished run on 2023/06/20 at 15:28:12.871
