   * xtb version 6.5.1 (579679a) compiled by 'ehlert@majestix' on 2022-07-11
          program call               : /lustre/hpc/kemi/ree/PhD/git/ReactivityQM/dep/xtb-6.5.1/bin/xtb --gfn 1 /lustre/hpc/kemi/ree/PhD/git/ReactivityQM/calculations/R02/reac01prodE05/conf06/R02_reac01prodE05_conf06_gfn1.xyz --opt --vfukui --chrg -1 --uhf 0 --alpb DMSO

   ID    Z sym.   atoms
    1    6 C      1, 3, 5, 6, 8, 11-14, 16, 18, 21, 22, 25
    2    8 O      2, 4, 7, 9, 17, 23
    3    7 N      10, 15, 19, 20, 24
    4    1 H      26-43

      * Solvation model:               ALPB
        Solvent                        DMSO
        Solvent mass                       7.8130E+01 g/mol
          :  Hamiltonian                  GFN1-xTB          :
 * total energy  :   -83.7936163 Eh     change       -0.6872369E-10 Eh
 * total energy  :   -83.8086840 Eh     change       -0.1506767E-01 Eh
 * total energy  :   -83.8175496 Eh     change       -0.8865618E-02 Eh
 * total energy  :   -83.8195105 Eh     change       -0.1960908E-02 Eh
 * total energy  :   -83.8210722 Eh     change       -0.1561642E-02 Eh
 * total energy  :   -83.8216497 Eh     change       -0.5775792E-03 Eh
 * total energy  :   -83.8222932 Eh     change       -0.6434520E-03 Eh
 * total energy  :   -83.8228427 Eh     change       -0.5495398E-03 Eh
 * total energy  :   -83.8233545 Eh     change       -0.5117879E-03 Eh
 * total energy  :   -83.8239870 Eh     change       -0.6324980E-03 Eh
 * total energy  :   -83.8258163 Eh     change       -0.1338222E-04 Eh
 * total energy  :   -83.8258535 Eh     change       -0.3717641E-04 Eh
 * total energy  :   -83.8258779 Eh     change       -0.2446593E-04 Eh
 * total energy  :   -83.8258921 Eh     change       -0.1416833E-04 Eh
 * total energy  :   -83.8259212 Eh     change       -0.2906881E-04 Eh
 * total energy  :   -83.8259227 Eh     change       -0.1520249E-05 Eh
 * total energy  :   -83.8259428 Eh     change       -0.2012291E-04 Eh
 * total energy  :   -83.8259486 Eh     change       -0.5761327E-05 Eh
 * total energy  :   -83.8259533 Eh     change       -0.4693117E-05 Eh
   *** GEOMETRY OPTIMIZATION CONVERGED AFTER 32 ITERATIONS ***

 final structure:
================
43
 xtb: 6.5.1 (579679a)
C           -5.87564212588515        0.42269520400356        2.45721236998627
O           -4.81509692559649       -0.32433687501065        1.88508255039826
C           -3.94618106009923        0.42302629039443        1.07094829601111
O           -4.13127849040170        1.65600389285957        0.96789297551234
C           -2.96772536073932       -0.35408836351267        0.45676191827853
C           -2.73608984415899       -1.78751194563326        0.63940056931694
O           -3.82472278984594       -2.64724632342261        0.81272902868961
C           -1.48299937303497       -2.31626320713050        0.51184821802036
O           -1.02242242187900       -3.48213880871341        0.55745045179540
N           -0.46646064833845       -1.25384599643455        0.25159643730834
C           -0.74881292879651       -0.12624612653263       -0.40717019556545
C            0.41592049277464        0.51362905774557       -1.17221290406850
C            0.45684182031412        2.04897201134426       -1.10916872225138
C            0.36430447491531        0.00285370242510       -2.61991370051435
N            1.62943663201918        0.03330580220361       -0.49625464106712
C            2.88965091513683        0.11370495036517       -1.06178695981067
O            3.12115790184209        0.22376048416953       -2.26363290357384
C            3.91577259017201       -0.01820957251227       -0.03670247605243
N            3.71257120656495       -0.10595545305474        1.26031864647171
N            4.94327058938034       -0.21210218185182        1.84173289825018
C            5.81561691589042       -0.18081254700497        0.88454733180357
C            7.28914933763855       -0.27079198442184        1.00791137268577
O            5.24433655623897       -0.05904632770996       -0.32815071185887
N           -1.98614157798746        0.31693314604814       -0.36040287682273
C           -2.48190172890825        1.42355088215287       -1.17547157172359
H           -6.52925902644400        0.83681104867408        1.68040373164767
H           -5.49231088084857        1.24780047963625        3.06906875236621
H           -6.44831951086717       -0.25925244074752        3.08639761169351
H           -4.55269401713638       -2.14975576540018        1.21698620294159
H            0.46058072371114       -1.63642408548393        0.11867365160976
H            1.46849224431028        2.37624532034177       -1.34664962700689
H           -0.21414113088928        2.50451594066840       -1.83130074587305
H            0.20406360854681        2.39921783723035       -0.10992970702056
H            1.01261626870740        0.59891748368303       -3.25782655123862
H           -0.65276444546287        0.06934168267546       -3.00265129535323
H            0.68620882265457       -1.03655905108224       -2.65977659875942
H            1.63046949987546        0.21272267147491        0.50179583078143
H            7.65525762798707       -1.15575418742517        0.48703452772010
H            7.56438448432111       -0.32992713169570        2.05797785690435
H            7.75890046429198        0.60285622040969        0.55693269074310
H           -2.35800429443989        2.36875665660241       -0.64772724407527
H           -1.96410799449847        1.45323384369498       -2.12992413731263
H           -3.54192860103644        1.26487176597876       -1.36405135098140

          :  Hamiltonian                  GFN1-xTB          :
         :: total energy             -83.825953276582 Eh    ::
         :: gradient norm              0.000731216844 Eh/a0 ::
         :: HOMO-LUMO gap              0.087628358160 eV    ::
         :: SCC energy               -84.582997682905 Eh    ::
         :: -> Gsolv                  -0.116802886417 Eh    ::
         :: repulsion energy           0.784201634343 Eh    ::

    * Orbital Energies and Occupations

         #    Occupation            Energy/Eh            Energy/eV
      -------------------------------------------------------------
         1        2.0000           -0.8381419             -22.8070
       ...           ...                  ...                  ...
        56        2.0000           -0.4773792             -12.9901
        57        2.0000           -0.4611767             -12.5493
        58        2.0000           -0.4576717             -12.4539
        59        2.0000           -0.4457645             -12.1299
        60        2.0000           -0.4447456             -12.1021
        61        2.0000           -0.4394260             -11.9574
        62        2.0000           -0.4340164             -11.8102
        63        2.0000           -0.4316059             -11.7446
        64        2.0000           -0.4258037             -11.5867
        65        2.0000           -0.4142791             -11.2731
        66        2.0000           -0.3966943             -10.7946
        67        2.0000           -0.3740595             -10.1787
        68        1.6897           -0.2990226              -8.1368 (HOMO)
        69        0.3103           -0.2958023              -8.0492 (LUMO)
        70                         -0.2665860              -7.2542
        71                         -0.2379409              -6.4747
        72                         -0.1773091              -4.8248
        73                         -0.1759499              -4.7878
        74                         -0.1357083              -3.6928
        75                         -0.1351085              -3.6765
        76                         -0.1229966              -3.3469
        77                         -0.1181227              -3.2143
        78                         -0.1123111              -3.0561
        79                         -0.1058008              -2.8790
       ...                                ...                  ...
       136                          0.7381755              20.0868
      -------------------------------------------------------------
                  HL-Gap            0.0032203 Eh            0.0876 eV

Wiberg/Mayer (AO) data.
largest (>0.10) Wiberg bond orders for each atom

     #   Z sym  total        # sym  WBO       # sym  WBO       # sym  WBO
 ---------------------------------------------------------------------------
     1   6 C    3.907 --    28 H    0.987    26 H    0.981    27 H    0.981
                             2 O    0.935
     2   8 O    2.082 --     1 C    0.935     3 C    0.934
     3   6 C    3.835 --     4 O    1.418     5 C    1.366     2 O    0.934
     4   8 O    1.738 --     3 C    1.418     5 C    0.124
     5   6 C    3.692 --     3 C    1.366     6 C    1.076    24 N    0.941
                             4 O    0.124
     6   6 C    3.733 --     8 C    1.462     5 C    1.076     7 O    0.975
                             9 O    0.146
     7   8 O    1.924 --     6 C    0.975    29 H    0.843
     8   6 C    3.830 --     6 C    1.462     9 O    1.402    10 N    0.833
     9   8 O    1.685 --     8 C    1.402     6 C    0.146
    10   7 N    3.338 --    11 C    1.302    30 H    0.897     8 C    0.833
                            24 N    0.139
    11   6 C    3.930 --    24 N    1.433    10 N    1.302    12 C    0.969
    12   6 C    3.943 --    13 C    0.987    14 C    0.982    11 C    0.969
                            15 N    0.939
    13   6 C    3.990 --    12 C    0.987    33 H    0.985    31 H    0.981
                            32 H    0.980
    14   6 C    3.988 --    36 H    0.983    12 C    0.982    35 H    0.981
                            34 H    0.978
    15   7 N    3.221 --    16 C    1.136    12 C    0.939    37 H    0.906
                            17 O    0.136
    16   6 C    3.810 --    17 O    1.543    15 N    1.136    18 C    1.060
    17   8 O    1.809 --    16 C    1.543    15 N    0.136
    18   6 C    3.777 --    19 N    1.507    16 C    1.060    23 O    1.024
    19   7 N    2.874 --    18 C    1.507    20 N    1.191
    20   7 N    2.979 --    21 C    1.617    19 N    1.191
    21   6 C    3.844 --    20 N    1.617    23 O    1.070    22 C    1.028
    22   6 C    3.990 --    21 C    1.028    39 H    0.984    40 H    0.968
                            38 H    0.966
    23   8 O    2.261 --    21 C    1.070    18 C    1.024
    24   7 N    3.533 --    11 C    1.433     5 C    0.941    25 C    0.937
                            10 N    0.139
    25   6 C    3.938 --    43 H    0.979    42 H    0.978    41 H    0.975
                            24 N    0.937
    26   1 H    1.017 --     1 C    0.981
    27   1 H    1.020 --     1 C    0.981
    28   1 H    1.017 --     1 C    0.987
    29   1 H    0.896 --     7 O    0.843
    30   1 H    0.961 --    10 N    0.897
    31   1 H    1.002 --    13 C    0.981
    32   1 H    1.004 --    13 C    0.980
    33   1 H    1.001 --    13 C    0.985
    34   1 H    1.016 --    14 C    0.978
    35   1 H    1.005 --    14 C    0.981
    36   1 H    1.005 --    14 C    0.983
    37   1 H    0.966 --    15 N    0.906
    38   1 H    0.998 --    22 C    0.966
    39   1 H    1.001 --    22 C    0.984
    40   1 H    0.998 --    22 C    0.968
    41   1 H    1.023 --    25 C    0.975
    42   1 H    1.008 --    25 C    0.978
    43   1 H    1.016 --    25 C    0.979
 ---------------------------------------------------------------------------

           -------------------------------------------------
          | TOTAL ENERGY              -83.825953276582 Eh   |
          | GRADIENT NORM               0.000731216844 Eh/α |
          | HOMO-LUMO GAP               0.087628358160 eV   |
           -------------------------------------------------

 * finished run on 2023/06/20 at 14:58:18.385
