   * xtb version 6.5.1 (579679a) compiled by 'ehlert@majestix' on 2022-07-11
          program call               : /lustre/hpc/kemi/ree/PhD/git/ReactivityQM/dep/xtb-6.5.1/bin/xtb --gfn 1 /lustre/hpc/kemi/ree/PhD/git/ReactivityQM/calculations/R03/reac02prodN03/conf04/R03_reac02prodN03_conf04_gfn1.xyz --opt --vfukui --chrg 1 --uhf 0 --alpb DMSO

   ID    Z sym.   atoms
    1    6 C      1, 3, 5, 6, 8-11, 13, 15, 18, 19, 22, 23, 25
    2    8 O      2, 4, 14, 20, 24, 26
    3    7 N      7, 12, 16, 17, 21
    4    1 H      27-46

      * Solvation model:               ALPB
        Solvent                        DMSO
        Solvent mass                       7.8130E+01 g/mol
          :  Hamiltonian                  GFN1-xTB          :
 * total energy  :   -86.3036223 Eh     change       -0.1017497E-10 Eh
 * total energy  :   -86.3304228 Eh     change       -0.2680051E-01 Eh
 * total energy  :   -86.3391445 Eh     change       -0.8721751E-02 Eh
 * total energy  :   -86.3412686 Eh     change       -0.2124068E-02 Eh
 * total energy  :   -86.3421134 Eh     change       -0.8448319E-03 Eh
 * total energy  :   -86.3423016 Eh     change       -0.1881467E-03 Eh
 * total energy  :   -86.3424191 Eh     change       -0.1174789E-03 Eh
 * total energy  :   -86.3424968 Eh     change       -0.7770026E-04 Eh
 * total energy  :   -86.3425641 Eh     change       -0.6730907E-04 Eh
 * total energy  :   -86.3426301 Eh     change       -0.6599696E-04 Eh
 * total energy  :   -86.3426921 Eh     change       -0.6202879E-04 Eh
 * total energy  :   -86.3427434 Eh     change       -0.5129630E-04 Eh
 * total energy  :   -86.3427804 Eh     change       -0.3695346E-04 Eh
 * total energy  :   -86.3428040 Eh     change       -0.2365611E-04 Eh
 * total energy  :   -86.3428212 Eh     change       -0.1715299E-04 Eh
 * total energy  :   -86.3428283 Eh     change       -0.7167143E-05 Eh
 * total energy  :   -86.3428411 Eh     change       -0.1275391E-04 Eh
 * total energy  :   -86.3428485 Eh     change       -0.7395860E-05 Eh
 * total energy  :   -86.3428533 Eh     change       -0.4812220E-05 Eh
   *** GEOMETRY OPTIMIZATION CONVERGED AFTER 19 ITERATIONS ***

 final structure:
================
46
 xtb: 6.5.1 (579679a)
C           -6.18596230880107        0.97828072933809        1.44702403998321
O           -5.09799898385740        0.55714988960994        0.60410279466498
C           -3.92055611986813        0.39439241941957        1.09830701529660
O           -3.79931000237986        0.63394724160442        2.35812389193621
C           -2.60641601365266        0.52811115350170        3.14783812541952
C           -2.87997957044133       -0.04006975254064        0.19003951448031
N           -1.61269736537856       -0.21901107720319        0.68745502640938
C           -0.63448278751200       -0.62399693972857       -0.06309861763764
C            0.71119688483136       -0.82658752420993        0.62051827586059
C            0.71589278784578       -0.16705687974432        2.00451771822838
C            0.96467927221709       -2.33530880092403        0.77043094411392
N            1.74062222144118       -0.17682397859974       -0.19422277071944
C            3.06787102616443       -0.25851037656504        0.09117840666613
O            3.56838431579108       -0.98456980492564        0.92624479843167
C            3.84134629738774        0.64373347370790       -0.79473795290087
N            3.34805299683240        1.43187876776457       -1.70352971677149
N            4.40106581832678        2.06867939468222       -2.28357400486467
C            5.47217622326268        1.62977562040693       -1.69096910045443
C            6.87509314038156        2.01929344325090       -1.95408042150255
O            5.18172937393519        0.72901487847431       -0.74164573446540
N           -0.81041128261653       -0.90979048755920       -1.39320176773541
C            0.20527488218408       -1.43510314289849       -2.31648523418572
C           -2.03448929203322       -0.74764006683031       -2.00434547452686
O           -2.22290153446842       -0.98728661659695       -3.18611445618477
C           -3.12275871367530       -0.27709176831370       -1.14737303171567
O           -4.28917111755703       -0.13115354770558       -1.74137888363048
H           -5.94336585335990        1.93924559310747        1.90115522705164
H           -6.35092301043236        0.23224946010996        2.22502547260091
H           -7.05223376527585        1.06068673233462        0.79429495008220
H           -2.23812217993400       -0.49683592989699        3.12492253260670
H           -2.90194336378414        0.80987158824151        4.15766400178390
H           -1.84712106838348        1.20759719539651        2.76303099675346
H            1.70941019831210       -0.25850835190243        2.44084674388340
H            0.45715935549790        0.88665714539597        1.92078338707451
H            0.00074640184991       -0.66435067027845        2.65512039794722
H            1.14244218868367       -2.80675559379400       -0.19292886090685
H            1.82896708089525       -2.50404047485752        1.41013028097311
H            0.09011638209511       -2.79255055983268        1.23083440499625
H            1.44521720176271        0.59732975971023       -0.76996601811131
H            7.25238283509935        2.62723637690485       -1.13022074493248
H            7.49952204327460        1.12979780858038       -2.03230774337272
H            6.92897492685855        2.59302946115663       -2.87671082420811
H           -0.10521796666652       -2.43244088009073       -2.62825373274201
H            0.23326815038174       -0.78182831843779       -3.18881942738445
H            1.17912143180316       -1.47101944124484       -1.84652997423495
H           -4.20465413703366       -0.36962514802367       -2.68909445405102

          :  Hamiltonian                  GFN1-xTB          :
         :: total energy             -86.342853290577 Eh    ::
         :: gradient norm              0.000778082123 Eh/a0 ::
         :: HOMO-LUMO gap              1.962826176727 eV    ::
         :: SCC energy               -87.172095833806 Eh    ::
         :: -> Gsolv                  -0.102780775269 Eh    ::
         :: repulsion energy           0.858607247203 Eh    ::

    * Orbital Energies and Occupations

         #    Occupation            Energy/Eh            Energy/eV
      -------------------------------------------------------------
         1        2.0000           -0.9136083             -24.8605
       ...           ...                  ...                  ...
        58        2.0000           -0.5265156             -14.3272
        59        2.0000           -0.5203698             -14.1600
        60        2.0000           -0.5149126             -14.0115
        61        2.0000           -0.5109462             -13.9036
        62        2.0000           -0.5047537             -13.7350
        63        2.0000           -0.4937661             -13.4361
        64        2.0000           -0.4878928             -13.2762
        65        2.0000           -0.4823005             -13.1241
        66        2.0000           -0.4732544             -12.8779
        67        2.0000           -0.4676095             -12.7243
        68        2.0000           -0.4625954             -12.5879
        69        2.0000           -0.4579423             -12.4612
        70        2.0000           -0.4540890             -12.3564 (HOMO)
        71                         -0.3819564             -10.3936 (LUMO)
        72                         -0.3193531              -8.6900
        73                         -0.3182677              -8.6605
        74                         -0.2917074              -7.9378
        75                         -0.2612593              -7.1092
        76                         -0.2066713              -5.6238
        77                         -0.1989061              -5.4125
        78                         -0.1716938              -4.6720
        79                         -0.1625828              -4.4241
        80                         -0.1515373              -4.1235
        81                         -0.1436967              -3.9102
       ...                                ...                  ...
       144                          0.7230008              19.6739
      -------------------------------------------------------------
                  HL-Gap            0.0721325 Eh            1.9628 eV

Wiberg/Mayer (AO) data.
largest (>0.10) Wiberg bond orders for each atom

     #   Z sym  total        # sym  WBO       # sym  WBO       # sym  WBO
 ---------------------------------------------------------------------------
     1   6 C    3.823 --    29 H    0.981    27 H    0.973    28 H    0.972
                             2 O    0.855
     2   8 O    2.310 --     3 C    1.262     1 C    0.855
     3   6 C    3.815 --     2 O    1.262     4 O    1.252     6 C    1.117
     4   8 O    2.308 --     3 C    1.252     5 C    0.850
     5   6 C    3.815 --    31 H    0.978    32 H    0.971    30 H    0.970
                             4 O    0.850
     6   6 C    3.956 --    25 C    1.414     7 N    1.163     3 C    1.117
     7   7 N    3.036 --     8 C    1.566     6 C    1.163
     8   6 C    3.920 --     7 N    1.566    21 N    1.174     9 C    0.977
     9   6 C    3.934 --    10 C    0.989     8 C    0.977    11 C    0.976
                            12 N    0.928
    10   6 C    3.988 --     9 C    0.989    34 H    0.983    35 H    0.982
                            33 H    0.979
    11   6 C    3.984 --    38 H    0.984    36 H    0.980     9 C    0.976
                            37 H    0.975
    12   7 N    3.322 --    13 C    1.214     9 C    0.928    39 H    0.894
                            14 O    0.168
    13   6 C    3.912 --    14 O    1.616    12 N    1.214    15 C    0.994
    14   8 O    1.930 --    13 C    1.616    12 N    0.168
    15   6 C    3.878 --    16 N    1.604    20 O    1.066    13 C    0.994
    16   7 N    3.019 --    15 C    1.604    17 N    1.206
    17   7 N    2.981 --    18 C    1.598    16 N    1.206
    18   6 C    3.869 --    17 N    1.598    20 O    1.085    19 C    1.032
    19   6 C    3.985 --    18 C    1.032    42 H    0.981    41 H    0.968
                            40 H    0.958
    20   8 O    2.334 --    18 C    1.085    15 C    1.066
    21   7 N    3.525 --     8 C    1.174    23 C    1.145    22 C    0.915
                            24 O    0.142
    22   6 C    3.904 --    45 H    0.975    44 H    0.972    43 H    0.972
                            21 N    0.915
    23   6 C    3.918 --    24 O    1.588    21 N    1.145    25 C    1.046
    24   8 O    1.932 --    23 C    1.588    21 N    0.142
    25   6 C    3.914 --     6 C    1.414    26 O    1.174    23 C    1.046
    26   8 O    2.145 --    25 C    1.174    46 H    0.781
    27   1 H    0.998 --     1 C    0.973
    28   1 H    0.998 --     1 C    0.972
    29   1 H    1.002 --     1 C    0.981
    30   1 H    1.012 --     5 C    0.970
    31   1 H    1.001 --     5 C    0.978
    32   1 H    1.012 --     5 C    0.971
    33   1 H    1.003 --    10 C    0.979
    34   1 H    1.004 --    10 C    0.983
    35   1 H    1.006 --    10 C    0.982
    36   1 H    0.999 --    11 C    0.980
    37   1 H    1.009 --    11 C    0.975
    38   1 H    1.000 --    11 C    0.984
    39   1 H    0.950 --    12 N    0.894
    40   1 H    0.996 --    19 C    0.958
    41   1 H    0.996 --    19 C    0.968
    42   1 H    0.998 --    19 C    0.981
    43   1 H    0.998 --    22 C    0.972
    44   1 H    1.000 --    22 C    0.972
    45   1 H    1.008 --    22 C    0.975
    46   1 H    0.825 --    26 O    0.781
 ---------------------------------------------------------------------------

           -------------------------------------------------
          | TOTAL ENERGY              -86.342853290577 Eh   |
          | GRADIENT NORM               0.000778082123 Eh/α |
          | HOMO-LUMO GAP               1.962826176727 eV   |
           -------------------------------------------------

 * finished run on 2023/06/20 at 15:38:31.745
