   * xtb version 6.5.1 (579679a) compiled by 'ehlert@majestix' on 2022-07-11
          program call               : /lustre/hpc/kemi/ree/PhD/git/ReactivityQM/dep/xtb-6.5.1/bin/xtb --gfn 1 /lustre/hpc/kemi/ree/PhD/git/ReactivityQM/calculations/R02/reac01prodN08/conf05/R02_reac01prodN08_conf05_gfn1.xyz --opt --vfukui --chrg 1 --uhf 0 --alpb DMSO

   ID    Z sym.   atoms
    1    6 C      1, 3, 4, 6, 8-11, 13, 15, 18, 19, 22, 24
    2    8 O      2, 5, 14, 20, 23, 25
    3    7 N      7, 12, 16, 17, 21
    4    1 H      26-43

      * Solvation model:               ALPB
        Solvent                        DMSO
        Solvent mass                       7.8130E+01 g/mol
          :  Hamiltonian                  GFN1-xTB          :
 * total energy  :   -83.0223593 Eh     change       -0.1851532E-09 Eh
 * total energy  :   -83.0400244 Eh     change       -0.1766511E-01 Eh
 * total energy  :   -83.0505703 Eh     change       -0.1054583E-01 Eh
 * total energy  :   -83.0536904 Eh     change       -0.3120111E-02 Eh
 * total energy  :   -83.0561994 Eh     change       -0.2509053E-02 Eh
 * total energy  :   -83.0577321 Eh     change       -0.1532733E-02 Eh
 * total energy  :   -83.0592589 Eh     change       -0.1526747E-02 Eh
 * total energy  :   -83.0611070 Eh     change       -0.1848153E-02 Eh
 * total energy  :   -83.0633836 Eh     change       -0.2276545E-02 Eh
 * total energy  :   -83.0660722 Eh     change       -0.2688631E-02 Eh
 * total energy  :   -83.0824988 Eh     change       -0.1839257E-04 Eh
 * total energy  :   -83.0825149 Eh     change       -0.1607712E-04 Eh
 * total energy  :   -83.0825453 Eh     change       -0.3046338E-04 Eh
 * total energy  :   -83.0825627 Eh     change       -0.1733173E-04 Eh
 * total energy  :   -83.0825991 Eh     change       -0.3639970E-04 Eh
 * total energy  :   -83.0826149 Eh     change       -0.1581300E-04 Eh
 * total energy  :   -83.0826246 Eh     change       -0.9766505E-05 Eh
 * total energy  :   -83.0826342 Eh     change       -0.9613416E-05 Eh
 * total energy  :   -83.0826383 Eh     change       -0.4095181E-05 Eh
   *** GEOMETRY OPTIMIZATION CONVERGED AFTER 46 ITERATIONS ***

 final structure:
================
43
 xtb: 6.5.1 (579679a)
C           -5.39463122002932        1.61388873898991        0.59907198037805
O           -4.10462070626525        1.22448019300956        0.12852739693416
C           -3.92158246764125       -0.08963950776542       -0.21989811015626
C           -3.86517848773277       -0.20048050321776       -1.80135275681366
O           -4.90395286705635       -0.89806370256097        0.27992710985901
C           -2.49567698623136       -0.53836196724051        0.03589517057871
N           -1.53763269431269        0.34002680185214       -0.03217711931118
C           -0.27303499915634        0.02755406407043        0.23736390456153
C            0.75255042602015        1.09896061422520        0.07895007636258
C            0.61530683235237        1.97707740715710        1.34647014736181
C            0.47898098205226        1.92690649328815       -1.18579047484870
N            2.07272008062092        0.49349751561894        0.01863619131602
C            3.21084406138961        1.25166568392212       -0.03690356030214
O            3.25386614971579        2.45262455921151        0.13305418228503
C            4.40919153895400        0.43247932708319       -0.30491357214830
N            5.64300433138671        0.82438300321806       -0.38105053183754
N            6.39031269741795       -0.27897994253841       -0.64333907212010
C            5.56976735436985       -1.28232174517830       -0.71344042719238
C            5.88798780645539       -2.70060580411259       -0.98102617875930
O            4.29891880585533       -0.89895416590791       -0.50867819791536
N            0.02721440293065       -1.14123272993225        0.82327496142028
C           -0.85086221070438       -2.22836731457551        0.90741089240004
O           -0.51005888364517       -3.27735167264742        1.36441433357416
C           -2.21242838887367       -1.96885350247320        0.23632111876106
O           -2.97099404958820       -2.86539676020144       -0.02402373947693
H           -5.60936879918215        1.14188758801301        1.56196169339770
H           -6.16792629596084        1.33402842404963       -0.12223320818181
H           -5.35763368584282        2.69691358482445        0.70869120423191
H           -3.62152413760806       -1.21018980132337       -2.11715952184314
H           -3.14941085937980        0.51636747977080       -2.19134591493695
H           -4.87401418436312        0.05621108004577       -2.12093318534745
H            1.28278816036410        2.83207522730719        1.25923289597108
H            0.87855854199989        1.39495961563446        2.22657136341399
H           -0.41129073052612        2.32660258722912        1.43397766404197
H            1.18155883151309        2.75750821235276       -1.22742579172792
H            0.60485271326600        1.30202357538404       -2.06740396106317
H           -0.53801809091039        2.31289465875913       -1.15966130709693
H            2.13660173163687       -0.44634592198461       -0.33506299418186
H            5.54780163276615       -3.31812068534987       -0.15010467102322
H            6.96103015850378       -2.81982730801000       -1.11282289130990
H            5.36699634667149       -3.03238490724806       -1.87900473322374
H            0.94996418786571       -1.29814729402856        1.20989832820446
H           -4.75098102910035       -1.84139219871763        0.10640130577023

          :  Hamiltonian                  GFN1-xTB          :
         :: total energy             -83.082638342601 Eh    ::
         :: gradient norm              0.000781646268 Eh/a0 ::
         :: HOMO-LUMO gap              0.371372488770 eV    ::
         :: SCC energy               -83.869661067290 Eh    ::
         :: -> Gsolv                  -0.122049385803 Eh    ::
         :: repulsion energy           0.813513741718 Eh    ::

    * Orbital Energies and Occupations

         #    Occupation            Energy/Eh            Energy/eV
      -------------------------------------------------------------
         1        2.0000           -0.8951728             -24.3589
       ...           ...                  ...                  ...
        55        2.0000           -0.5377078             -14.6318
        56        2.0000           -0.5301576             -14.4263
        57        2.0000           -0.5279341             -14.3658
        58        2.0000           -0.5241995             -14.2642
        59        2.0000           -0.5200577             -14.1515
        60        2.0000           -0.5152462             -14.0206
        61        2.0000           -0.4962174             -13.5028
        62        2.0000           -0.4913623             -13.3706
        63        2.0000           -0.4844063             -13.1814
        64        2.0000           -0.4797129             -13.0537
        65        2.0000           -0.4749425             -12.9238
        66        1.9996           -0.4631292             -12.6024
        67        1.9987           -0.4620193             -12.5722 (HOMO)
        68        0.0017           -0.4483716             -12.2008 (LUMO)
        69                         -0.3599582              -9.7950
        70                         -0.3392912              -9.2326
        71                         -0.3276829              -8.9167
        72                         -0.2651510              -7.2151
        73                         -0.2518153              -6.8522
        74                         -0.2138980              -5.8205
        75                         -0.1566739              -4.2633
        76                         -0.1528714              -4.1598
        77                         -0.1480864              -4.0296
        78                         -0.1452224              -3.9517
       ...                                ...                  ...
       136                          0.7532398              20.4967
      -------------------------------------------------------------
                  HL-Gap            0.0136477 Eh            0.3714 eV

Wiberg/Mayer (AO) data.
largest (>0.10) Wiberg bond orders for each atom

     #   Z sym  total        # sym  WBO       # sym  WBO       # sym  WBO
 ---------------------------------------------------------------------------
     1   6 C    3.861 --    28 H    0.982    26 H    0.973    27 H    0.971
                             2 O    0.899
     2   8 O    2.095 --     3 C    1.007     1 C    0.899
     3   6 C    3.884 --     5 O    1.018     2 O    1.007     6 C    0.958
                             4 C    0.789
     4   6 C    3.942 --    30 H    0.983    29 H    0.983    31 H    0.949
                             3 C    0.789
     5   8 O    1.979 --     3 C    1.018    43 H    0.803
     6   6 C    3.899 --     7 N    1.527    24 C    1.032     3 C    0.958
     7   7 N    3.127 --     6 C    1.527     8 C    1.320
     8   6 C    3.883 --     7 N    1.320    21 N    1.289     9 C    1.021
     9   6 C    3.932 --     8 C    1.021    11 C    0.962    12 N    0.950
                            10 C    0.918
    10   6 C    3.959 --    34 H    0.984    33 H    0.984    32 H    0.964
                             9 C    0.918
    11   6 C    3.975 --    36 H    0.983    37 H    0.982    35 H    0.977
                             9 C    0.962
    12   7 N    3.299 --    13 C    1.188     9 C    0.950    38 H    0.887
                            14 O    0.156
    13   6 C    3.906 --    14 O    1.623    12 N    1.188    15 C    1.006
    14   8 O    1.932 --    13 C    1.623    12 N    0.156
    15   6 C    3.874 --    16 N    1.611    20 O    1.045    13 C    1.006
    16   7 N    3.004 --    15 C    1.611    17 N    1.211
    17   7 N    2.981 --    18 C    1.597    16 N    1.211
    18   6 C    3.861 --    17 N    1.597    20 O    1.074    19 C    1.034
    19   6 C    3.984 --    18 C    1.034    40 H    0.982    39 H    0.961
                            41 H    0.960
    20   8 O    2.317 --    18 C    1.074    15 C    1.045
    21   7 N    3.492 --     8 C    1.289    22 C    1.065    42 H    0.854
    22   6 C    3.870 --    23 O    1.781    21 N    1.065    24 C    0.889
    23   8 O    2.027 --    22 C    1.781
    24   6 C    3.873 --    25 O    1.789     6 C    1.032    22 C    0.889
    25   8 O    2.060 --    24 C    1.789
    26   1 H    1.004 --     1 C    0.973
    27   1 H    0.999 --     1 C    0.971
    28   1 H    1.009 --     1 C    0.982
    29   1 H    0.994 --     4 C    0.983
    30   1 H    1.000 --     4 C    0.983
    31   1 H    0.989 --     4 C    0.949
    32   1 H    1.003 --    10 C    0.964
    33   1 H    0.996 --    10 C    0.984
    34   1 H    0.999 --    10 C    0.984
    35   1 H    1.001 --    11 C    0.977
    36   1 H    0.996 --    11 C    0.983
    37   1 H    1.003 --    11 C    0.982
    38   1 H    0.929 --    12 N    0.887
    39   1 H    0.995 --    19 C    0.961
    40   1 H    0.997 --    19 C    0.982
    41   1 H    0.995 --    19 C    0.960
    42   1 H    0.899 --    21 N    0.854
    43   1 H    0.841 --     5 O    0.803
 ---------------------------------------------------------------------------

           -------------------------------------------------
          | TOTAL ENERGY              -83.082638342601 Eh   |
          | GRADIENT NORM               0.000781646268 Eh/α |
          | HOMO-LUMO GAP               0.371372488770 eV   |
           -------------------------------------------------

 * finished run on 2023/06/20 at 15:27:55.910
