   * xtb version 6.5.1 (579679a) compiled by 'ehlert@majestix' on 2022-07-11
          program call               : /lustre/hpc/kemi/ree/PhD/git/ReactivityQM/dep/xtb-6.5.1/bin/xtb --gfn 1 /lustre/hpc/kemi/ree/PhD/git/ReactivityQM/calculations/RaltegravirCLI/reac02/conf09/RaltegravirCLI_reac02_conf09_gfn1.xyz --opt --vfukui --chrg 0 --uhf 0 --alpb DMSO

   ID    Z sym.   atoms
    1    6 C      1, 3-6, 9, 10, 13-17, 19-21, 23
    2    7 N      2, 7, 8, 12
    3    8 O      11, 22, 24
    4    9 F      18
    5    1 H      25-43

      * Solvation model:               ALPB
        Solvent                        DMSO
        Solvent mass                       7.8130E+01 g/mol
          :  Hamiltonian                  GFN1-xTB          :
 * total energy  :   -76.1763333 Eh     change       -0.7233325E-11 Eh
 * total energy  :   -76.1829805 Eh     change       -0.6647184E-02 Eh
 * total energy  :   -76.1847473 Eh     change       -0.1766829E-02 Eh
 * total energy  :   -76.1850644 Eh     change       -0.3170367E-03 Eh
 * total energy  :   -76.1853949 Eh     change       -0.3305308E-03 Eh
 * total energy  :   -76.1855159 Eh     change       -0.1210447E-03 Eh
 * total energy  :   -76.1856022 Eh     change       -0.8629503E-04 Eh
 * total energy  :   -76.1856479 Eh     change       -0.4566914E-04 Eh
 * total energy  :   -76.1856831 Eh     change       -0.3518106E-04 Eh
 * total energy  :   -76.1857225 Eh     change       -0.3940915E-04 Eh
 * total energy  :   -76.1860758 Eh     change       -0.4520764E-04 Eh
 * total energy  :   -76.1861043 Eh     change       -0.2851156E-04 Eh
 * total energy  :   -76.1861323 Eh     change       -0.2796335E-04 Eh
 * total energy  :   -76.1861640 Eh     change       -0.3167880E-04 Eh
 * total energy  :   -76.1861786 Eh     change       -0.1467847E-04 Eh
 * total energy  :   -76.1862036 Eh     change       -0.2495333E-04 Eh
 * total energy  :   -76.1862121 Eh     change       -0.8547847E-05 Eh
 * total energy  :   -76.1862244 Eh     change       -0.1226306E-04 Eh
 * total energy  :   -76.1862290 Eh     change       -0.4581564E-05 Eh
   *** GEOMETRY OPTIMIZATION CONVERGED AFTER 26 ITERATIONS ***

 final structure:
================
43
 xtb: 6.5.1 (579679a)
C           -4.46195163989977       -1.08271335502828        0.27323813778242
N           -3.01420845249243       -1.08009957290197        0.50712564261638
C           -2.22489006040960        0.03483602922619        0.43450381282683
C           -2.76796560169225        1.40827695048245        0.05542187055441
C           -1.67782545962452        2.46641329152872        0.28823011769042
C           -3.16179255893666        1.41090320626254       -1.42854037569438
N           -3.93768304895535        1.73506826977283        0.86935329267110
N           -0.94374925817786       -0.03226992035776        0.63886397836356
C           -0.34583583157921       -1.22044294442007        0.94487036953922
C            1.11966425163764       -1.20366543496129        1.17203007798013
O            1.75163558018791       -2.23114953112106        1.43834163876294
N            1.68528541406611        0.00758638280643        1.08208336430810
C            3.12062178517170        0.20378061801397        1.24153545832360
C            3.82855960343277        0.09265607634219       -0.09229670389599
C            4.25812748176591        1.23566406907510       -0.76106882285298
C            4.89383271798769        1.13761586413223       -1.99185853203075
C            5.08297334177295       -0.12105480629883       -2.53230778691319
F            5.69725783154748       -0.22588945223200       -3.72234848703857
C            4.66748261888231       -1.27721561953202       -1.89581806752334
C            4.03598306499841       -1.16068107937678       -0.66621329992262
C           -1.06967408830316       -2.38004662804088        1.03184280141768
O           -0.53078370423143       -3.57146820238351        1.32433812873916
C           -2.50488664916760       -2.34957638380376        0.78817292621370
O           -3.24790334339787       -3.32376820602230        0.81384970276645
H           -4.92920323073453       -1.71566686737286        1.02965112120594
H           -4.85726750433784       -0.07505412307717        0.34900127681657
H           -4.66504011619505       -1.50015084072808       -0.71408753166591
H           -0.81439336801186        2.27267911035128       -0.34607134979646
H           -1.35815529623567        2.45207759011179        1.32865688312445
H           -2.07599738032167        3.45212114024696        0.05481939644790
H           -3.97147011691262        0.71040065684131       -1.62453832876636
H           -2.30277008275305        1.13729300509631       -2.04033365393438
H           -3.49066127741234        2.40916838590141       -1.71349476730847
H           -4.33395752219990        2.60178126777083        0.53313489773190
H           -3.64770686322180        1.88327205898033        1.82713570708863
H            1.11226402140337        0.79095036953950        0.80551977935527
H            3.27893751618304        1.19046994724082        1.68155574991984
H            3.48718504823602       -0.56381931388703        1.93058472540154
H            4.09941154735880        2.21236298148769       -0.31970284869035
H            5.23429827648267        2.01809801987236       -2.52055582117779
H            4.83756149590084       -2.24345249582256       -2.35316712887351
H            3.70197503464163       -2.05135065434845       -0.14637113718082
H            0.44271682354946       -3.45394085936785        1.45679278561535

          :  Hamiltonian                  GFN1-xTB          :
         :: total energy             -76.186228993590 Eh    ::
         :: gradient norm              0.000741820652 Eh/a0 ::
         :: HOMO-LUMO gap              2.788107854785 eV    ::
         :: SCC energy               -77.029152598308 Eh    ::
         :: -> Gsolv                  -0.049619915146 Eh    ::
         :: repulsion energy           0.870528221076 Eh    ::

    * Orbital Energies and Occupations

         #    Occupation            Energy/Eh            Energy/eV
      -------------------------------------------------------------
         1        2.0000           -0.8632044             -23.4890
       ...           ...                  ...                  ...
        52        2.0000           -0.5012052             -13.6385
        53        2.0000           -0.4940093             -13.4427
        54        2.0000           -0.4856713             -13.2158
        55        2.0000           -0.4730005             -12.8710
        56        2.0000           -0.4694266             -12.7737
        57        2.0000           -0.4645992             -12.6424
        58        2.0000           -0.4505683             -12.2606
        59        2.0000           -0.4504444             -12.2572
        60        2.0000           -0.4417058             -12.0194
        61        2.0000           -0.4363594             -11.8739
        62        2.0000           -0.4301951             -11.7062
        63        2.0000           -0.4169046             -11.3446
        64        2.0000           -0.4128057             -11.2330 (HOMO)
        65                         -0.3103446              -8.4449 (LUMO)
        66                         -0.2742438              -7.4626
        67                         -0.2725104              -7.4154
        68                         -0.2663101              -7.2467
        69                         -0.2271809              -6.1819
        70                         -0.1471730              -4.0048
        71                         -0.1446806              -3.9370
        72                         -0.1337359              -3.6391
        73                         -0.1240515              -3.3756
        74                         -0.1210722              -3.2945
        75                         -0.1180960              -3.2136
       ...                                ...                  ...
       134                          0.7136709              19.4200
      -------------------------------------------------------------
                  HL-Gap            0.1024611 Eh            2.7881 eV

Wiberg/Mayer (AO) data.
largest (>0.10) Wiberg bond orders for each atom

     #   Z sym  total        # sym  WBO       # sym  WBO       # sym  WBO
 ---------------------------------------------------------------------------
     1   6 C    3.922 --    27 H    0.977    25 H    0.977    26 H    0.968
                             2 N    0.930
     2   7 N    3.509 --     3 C    1.188    23 C    1.110     1 C    0.930
                            24 O    0.133
     3   6 C    3.923 --     8 N    1.547     2 N    1.188     4 C    0.975
     4   6 C    3.965 --     5 C    0.992     6 C    0.984     7 N    0.981
                             3 C    0.975
     5   6 C    3.994 --     4 C    0.992    30 H    0.985    29 H    0.984
                            28 H    0.983
     6   6 C    3.993 --    32 H    0.986     4 C    0.984    33 H    0.983
                            31 H    0.982
     7   7 N    2.994 --     4 C    0.981    35 H    0.940    34 H    0.939
     8   7 N    3.045 --     3 C    1.547     9 C    1.193
     9   6 C    3.963 --    21 C    1.482     8 N    1.193    10 C    1.017
    10   6 C    3.906 --    11 O    1.516    12 N    1.289     9 C    1.017
    11   8 O    1.904 --    10 C    1.516    12 N    0.163
    12   7 N    3.368 --    10 C    1.289    13 C    0.938    36 H    0.894
                            11 O    0.163
    13   6 C    3.945 --    14 C    0.993    37 H    0.977    38 H    0.969
                            12 N    0.938
    14   6 C    3.987 --    15 C    1.423    20 C    1.415    13 C    0.993
    15   6 C    3.994 --    16 C    1.439    14 C    1.423    39 H    0.971
                            19 C    0.110
    16   6 C    3.991 --    15 C    1.439    17 C    1.404    40 H    0.969
                            20 C    0.111
    17   6 C    3.860 --    16 C    1.404    19 C    1.398    18 F    0.924
    18   9 F    1.052 --    17 C    0.924
    19   6 C    3.992 --    20 C    1.447    17 C    1.398    41 H    0.970
                            15 C    0.110
    20   6 C    3.992 --    19 C    1.447    14 C    1.415    42 H    0.968
                            16 C    0.111
    21   6 C    3.923 --     9 C    1.482    22 O    1.108    23 C    1.083
    22   8 O    2.071 --    21 C    1.108    43 H    0.775
    23   6 C    3.913 --    24 O    1.568     2 N    1.110    21 C    1.083
    24   8 O    1.881 --    23 C    1.568     2 N    0.133
    25   1 H    1.009 --     1 C    0.977
    26   1 H    1.029 --     1 C    0.968
    27   1 H    1.005 --     1 C    0.977
    28   1 H    1.012 --     5 C    0.983
    29   1 H    1.009 --     5 C    0.984
    30   1 H    1.003 --     5 C    0.985
    31   1 H    1.003 --     6 C    0.982
    32   1 H    1.003 --     6 C    0.986
    33   1 H    1.000 --     6 C    0.983
    34   1 H    0.954 --     7 N    0.939
    35   1 H    0.956 --     7 N    0.940
    36   1 H    0.959 --    12 N    0.894
    37   1 H    1.002 --    13 C    0.977
    38   1 H    1.008 --    13 C    0.969
    39   1 H    0.999 --    15 C    0.971
    40   1 H    0.998 --    16 C    0.969
    41   1 H    0.998 --    19 C    0.970
    42   1 H    1.010 --    20 C    0.968
    43   1 H    0.860 --    22 O    0.775
 ---------------------------------------------------------------------------

           -------------------------------------------------
          | TOTAL ENERGY              -76.186228993590 Eh   |
          | GRADIENT NORM               0.000741820652 Eh/α |
          | HOMO-LUMO GAP               2.788107854785 eV   |
           -------------------------------------------------

 * finished run on 2023/06/20 at 14:51:46.285
