   * xtb version 6.5.1 (579679a) compiled by 'ehlert@majestix' on 2022-07-11
          program call               : /lustre/hpc/kemi/ree/PhD/git/ReactivityQM/dep/xtb-6.5.1/bin/xtb --gfn 1 /lustre/hpc/kemi/ree/PhD/git/ReactivityQM/calculations/R02/reac01prodN19/conf15/R02_reac01prodN19_conf15_gfn1.xyz --opt --vfukui --chrg 1 --uhf 0 --alpb DMSO

   ID    Z sym.   atoms
    1    6 C      1, 3, 5, 7-10, 12, 14, 17, 18, 21, 23, 24
    2    8 O      2, 4, 13, 19, 22, 25
    3    7 N      6, 11, 15, 16, 20
    4    1 H      26-43

      * Solvation model:               ALPB
        Solvent                        DMSO
        Solvent mass                       7.8130E+01 g/mol
          :  Hamiltonian                  GFN1-xTB          :
 * total energy  :   -83.1403120 Eh     change       -0.2427214E-10 Eh
 * total energy  :   -83.1622327 Eh     change       -0.2192065E-01 Eh
 * total energy  :   -83.1702942 Eh     change       -0.8061566E-02 Eh
 * total energy  :   -83.1721457 Eh     change       -0.1851435E-02 Eh
 * total energy  :   -83.1732170 Eh     change       -0.1071377E-02 Eh
 * total energy  :   -83.1736311 Eh     change       -0.4140281E-03 Eh
 * total energy  :   -83.1738907 Eh     change       -0.2596450E-03 Eh
 * total energy  :   -83.1740314 Eh     change       -0.1406447E-03 Eh
 * total energy  :   -83.1740991 Eh     change       -0.6777337E-04 Eh
 * total energy  :   -83.1741400 Eh     change       -0.4086989E-04 Eh
 * total energy  :   -83.1744591 Eh     change       -0.7556750E-05 Eh
 * total energy  :   -83.1744667 Eh     change       -0.7654979E-05 Eh
 * total energy  :   -83.1744737 Eh     change       -0.6939867E-05 Eh
 * total energy  :   -83.1729691 Eh     change        0.1504549E-02 Eh
 * total energy  :   -83.1744048 Eh     change       -0.1435651E-02 Eh
 * total energy  :   -83.1744719 Eh     change       -0.6716669E-04 Eh
 * total energy  :   -83.1745049 Eh     change       -0.3296229E-04 Eh
 * total energy  :   -83.1745110 Eh     change       -0.6087377E-05 Eh
 * total energy  :   -83.1745143 Eh     change       -0.3311521E-05 Eh
   *** GEOMETRY OPTIMIZATION CONVERGED AFTER 34 ITERATIONS ***

 final structure:
================
43
 xtb: 6.5.1 (579679a)
C           -5.29961430190084        2.86459725377194        0.66814919702646
O           -4.11829748585073        2.04569229736935        0.62655256194641
C           -4.20805986663775        0.90516067860639       -0.01165636342594
O           -5.21114105175071        0.49839558656600       -0.56322783160414
C           -2.93640681935350        0.11284418750221       -0.01246167349326
N           -1.86325851230032        0.63801868856263        0.60881831448577
C           -0.74085024821446       -0.01640357299438        0.61746993894073
C            0.46619069889993        0.50844796999783        1.35283197498471
C            0.36499469820987        2.02510866833797        1.53993397136914
C            0.52001004022967       -0.22295390290341        2.70507273842247
N            1.63938757032337        0.17441841361464        0.54148151460643
C            2.91125807999699        0.43618785379580        0.96172350188531
O            3.22792332216612        0.76125096382050        2.08651886140341
C            3.87151295969077        0.24661798315954       -0.14913613587087
N            3.57092719045082       -0.01277508699314       -1.38762124189518
N            4.74477436375987       -0.07285500310388       -2.07130409845996
C            5.69017189069420        0.15561103055947       -1.20681519039693
C            7.14952108054206        0.18347941829751       -1.44881147770828
O            5.19938419484405        0.36594509269935        0.02194809499938
N           -0.64430407811141       -1.23678790107356        0.01651255964344
C           -1.66316020892350       -1.82813746642671       -0.62587970817801
O           -1.37126201884245       -2.98863730218319       -1.14402167386733
C           -2.31358406983032       -3.79306942290363       -1.87747896174926
C           -2.89771002765819       -1.12326500894619       -0.65329148971616
O           -3.93636766825103       -1.66334338315413       -1.27306826362079
H           -5.04795594680743        3.73369355633196        1.27162426971785
H           -5.57297824933547        3.16265605789262       -0.34565076024265
H           -6.11952854832027        2.30270749347678        1.11887557499401
H           -0.54684603788687        2.26434293731549        2.08418539281443
H            1.22584332410114        2.38048562082170        2.10367036965142
H            0.34014738414847        2.51835922874582        0.56990997779235
H            1.34330996277845        0.16049202988032        3.30402131916537
H           -0.41512638834567       -0.06009275495671        3.23782207589910
H            0.65843908290939       -1.29004842060314        2.54434394241087
H            1.50581588814954        0.10799106642658       -0.45644059013643
H            7.60044331511775       -0.74229015952539       -1.08805400258446
H            7.34399395997829        0.28154797934335       -2.51447324221482
H            7.60042884874313        1.01465756426214       -0.90847844393482
H            0.23585703693568       -1.73955644123133        0.04144640371498
H           -2.66324248645004       -3.25231706727824       -2.75720165460242
H           -1.75863449188963       -4.68282204787156       -2.17146476091393
H           -3.15517105291577       -4.06082054690340       -1.23826656767423
H           -4.72683833309677       -1.06253413210417       -1.21188542358426

          :  Hamiltonian                  GFN1-xTB          :
         :: total energy             -83.174514288782 Eh    ::
         :: gradient norm              0.000415409743 Eh/a0 ::
         :: HOMO-LUMO gap              2.079494871815 eV    ::
         :: SCC energy               -83.966960379295 Eh    ::
         :: -> Gsolv                  -0.104978794714 Eh    ::
         :: repulsion energy           0.817742746657 Eh    ::

    * Orbital Energies and Occupations

         #    Occupation            Energy/Eh            Energy/eV
      -------------------------------------------------------------
         1        2.0000           -0.9005069             -24.5040
       ...           ...                  ...                  ...
        55        2.0000           -0.5322699             -14.4838
        56        2.0000           -0.5273130             -14.3489
        57        2.0000           -0.5195221             -14.1369
        58        2.0000           -0.5185434             -14.1103
        59        2.0000           -0.5140642             -13.9884
        60        2.0000           -0.5128799             -13.9562
        61        2.0000           -0.4915711             -13.3763
        62        2.0000           -0.4896647             -13.3245
        63        2.0000           -0.4841628             -13.1747
        64        2.0000           -0.4779435             -13.0055
        65        2.0000           -0.4726677             -12.8619
        66        2.0000           -0.4614931             -12.5579
        67        2.0000           -0.4591547             -12.4942 (HOMO)
        68                         -0.3827347             -10.4147 (LUMO)
        69                         -0.3369355              -9.1685
        70                         -0.3236302              -8.8064
        71                         -0.2898969              -7.8885
        72                         -0.2640499              -7.1852
        73                         -0.2115615              -5.7569
        74                         -0.2076005              -5.6491
        75                         -0.1629829              -4.4350
        76                         -0.1516602              -4.1269
        77                         -0.1493909              -4.0651
        78                         -0.1452642              -3.9528
       ...                                ...                  ...
       136                          0.7208480              19.6153
      -------------------------------------------------------------
                  HL-Gap            0.0764200 Eh            2.0795 eV

Wiberg/Mayer (AO) data.
largest (>0.10) Wiberg bond orders for each atom

     #   Z sym  total        # sym  WBO       # sym  WBO       # sym  WBO
 ---------------------------------------------------------------------------
     1   6 C    3.846 --    26 H    0.985    28 H    0.977    27 H    0.977
                             2 O    0.873
     2   8 O    2.247 --     3 C    1.178     1 C    0.873     4 O    0.143
     3   6 C    3.858 --     4 O    1.623     2 O    1.178     5 C    0.983
     4   8 O    1.975 --     3 C    1.623     2 O    0.143
     5   6 C    3.968 --    24 C    1.382     6 N    1.287     3 C    0.983
     6   7 N    3.045 --     7 C    1.519     5 C    1.287
     7   6 C    3.907 --     6 N    1.519    20 N    1.180     8 C    0.987
     8   6 C    3.931 --     7 C    0.987     9 C    0.986    10 C    0.965
                            11 N    0.931
     9   6 C    3.985 --     8 C    0.986    31 H    0.984    29 H    0.983
                            30 H    0.981
    10   6 C    3.981 --    33 H    0.985    34 H    0.984    32 H    0.972
                             8 C    0.965
    11   7 N    3.295 --    12 C    1.200     8 C    0.931    35 H    0.893
                            13 O    0.164
    12   6 C    3.910 --    13 O    1.626    11 N    1.200    14 C    0.997
    13   8 O    1.937 --    12 C    1.626    11 N    0.164
    14   6 C    3.878 --    15 N    1.601    19 O    1.066    12 C    0.997
    15   7 N    3.021 --    14 C    1.601    16 N    1.209
    16   7 N    2.981 --    17 C    1.594    15 N    1.209
    17   6 C    3.868 --    16 N    1.594    19 O    1.087    18 C    1.032
    18   6 C    3.985 --    17 C    1.032    37 H    0.980    38 H    0.970
                            36 H    0.956
    19   8 O    2.336 --    17 C    1.087    14 C    1.066
    20   7 N    3.538 --    21 C    1.267     7 C    1.180    39 H    0.861
    21   6 C    3.892 --    20 N    1.267    24 C    1.196    22 O    1.189
    22   8 O    2.263 --    21 C    1.189    23 C    0.855
    23   6 C    3.822 --    41 H    0.981    40 H    0.976    42 H    0.975
                            22 O    0.855
    24   6 C    3.933 --     5 C    1.382    21 C    1.196    25 O    1.144
    25   8 O    2.102 --    24 C    1.144    43 H    0.738
    26   1 H    1.007 --     1 C    0.985
    27   1 H    1.002 --     1 C    0.977
    28   1 H    1.002 --     1 C    0.977
    29   1 H    1.005 --     9 C    0.983
    30   1 H    1.002 --     9 C    0.981
    31   1 H    1.000 --     9 C    0.984
    32   1 H    1.007 --    10 C    0.972
    33   1 H    0.999 --    10 C    0.985
    34   1 H    0.999 --    10 C    0.984
    35   1 H    0.949 --    11 N    0.893
    36   1 H    0.996 --    18 C    0.956
    37   1 H    0.998 --    18 C    0.980
    38   1 H    0.996 --    18 C    0.970
    39   1 H    0.910 --    20 N    0.861
    40   1 H    1.004 --    23 C    0.976
    41   1 H    1.003 --    23 C    0.981
    42   1 H    1.004 --    23 C    0.975
    43   1 H    0.825 --    25 O    0.738
 ---------------------------------------------------------------------------

           -------------------------------------------------
          | TOTAL ENERGY              -83.174514288782 Eh   |
          | GRADIENT NORM               0.000415409743 Eh/α |
          | HOMO-LUMO GAP               2.079494871815 eV   |
           -------------------------------------------------

 * finished run on 2023/06/20 at 15:46:25.417
