   * xtb version 6.5.1 (579679a) compiled by 'ehlert@majestix' on 2022-07-11
          program call               : /lustre/hpc/kemi/ree/PhD/git/ReactivityQM/dep/xtb-6.5.1/bin/xtb --gfn 1 /lustre/hpc/kemi/ree/PhD/git/ReactivityQM/calculations/RaltegravirCLI/reac02prodN13/conf19/RaltegravirCLI_reac02prodN13_conf19_gfn1.xyz --opt --vfukui --chrg 1 --uhf 0 --alpb DMSO

   ID    Z sym.   atoms
    1    6 C      1, 3-6, 9, 10, 13-17, 19-21, 23, 24
    2    7 N      2, 7, 8, 12
    3    8 O      11, 22, 25
    4    9 F      18
    5    1 H      26-47

      * Solvation model:               ALPB
        Solvent                        DMSO
        Solvent mass                       7.8130E+01 g/mol
          :  Hamiltonian                  GFN1-xTB          :
 * total energy  :   -79.4001026 Eh     change       -0.6712355E-09 Eh
 * total energy  :   -79.4197973 Eh     change       -0.1969472E-01 Eh
 * total energy  :   -79.4299210 Eh     change       -0.1012370E-01 Eh
 * total energy  :   -79.4329187 Eh     change       -0.2997688E-02 Eh
 * total energy  :   -79.4351555 Eh     change       -0.2236812E-02 Eh
 * total energy  :   -79.4362149 Eh     change       -0.1059426E-02 Eh
 * total energy  :   -79.4368495 Eh     change       -0.6345840E-03 Eh
 * total energy  :   -79.4372544 Eh     change       -0.4048664E-03 Eh
 * total energy  :   -79.4374765 Eh     change       -0.2221481E-03 Eh
 * total energy  :   -79.4376173 Eh     change       -0.1407578E-03 Eh
 * total energy  :   -79.4905057 Eh     change       -0.7968418E-04 Eh
 * total energy  :   -79.4905791 Eh     change       -0.7341206E-04 Eh
 * total energy  :   -79.4905778 Eh     change        0.1262858E-05 Eh
 * total energy  :   -79.4906385 Eh     change       -0.6064362E-04 Eh
 * total energy  :   -79.4906522 Eh     change       -0.1377394E-04 Eh
 * total energy  :   -79.4906668 Eh     change       -0.1460318E-04 Eh
 * total energy  :   -79.4906730 Eh     change       -0.6138211E-05 Eh
 * total energy  :   -79.4906785 Eh     change       -0.5494137E-05 Eh
 * total energy  :   -79.4906815 Eh     change       -0.3008878E-05 Eh
   *** GEOMETRY OPTIMIZATION CONVERGED AFTER 57 ITERATIONS ***

 final structure:
================
47
 xtb: 6.5.1 (579679a)
C           -4.42871333446312       -1.14964228946646        0.44802348623659
N           -2.99341858650048       -0.86298081281321        0.36662950119977
C           -2.42194630806872        0.32040381974955        0.57577850915077
C           -3.16424044794283        1.63530242148633        0.62926310013565
C           -3.73984383605077        1.88687625156730       -0.77579899601663
C           -2.20441125691259        2.76826371475219        1.01399124478690
N           -4.26035223071744        1.53593012856633        1.57989697254889
N           -1.09845138755676        0.36770129497921        0.81904558076212
C           -0.26603032268123       -0.57365121403946        0.52323792519748
C            1.12305693701141       -0.41318043525298        1.11268400828717
O            1.32330225689325        0.44823050533533        1.95127015170741
N            2.05525860161388       -1.24989011068771        0.64406411183738
C            3.43776314647817       -1.17270905615104        1.10745743624323
C            4.29915822777775       -0.46287291976781        0.08500214081901
C            4.03404546373879        0.86583136835684       -0.24257919327923
C            4.81190011956321        1.52735508010703       -1.18093692865469
C            5.85334350617316        0.83622709749391       -1.77561688757614
F            6.60821744530136        1.46886819518222       -2.68483211642595
C            6.14406520298755       -0.48118391484614       -1.47115601897203
C            5.35263657347969       -1.13030167033262       -0.53303229581269
C           -0.75181036033358       -1.66775595375205       -0.36951804697504
O            0.03016659868307       -2.81266854644911       -0.26926116358232
C           -2.20317032616012       -1.98276340842409       -0.01887161636416
C           -0.79304529944705       -1.15399086688299       -1.83780038475720
O           -2.69824004939037       -3.05781463834238       -0.18579033883901
H           -4.92884760883617       -0.32265096113650        0.94543354879427
H           -4.55336898999936       -2.07471221617100        1.01000660111211
H           -4.81149416020583       -1.28509938918295       -0.56239334933862
H           -4.47161813589780        1.12451190218622       -1.03283794506086
H           -4.22567825966582        2.86089393574780       -0.78563640091779
H           -2.94216699455326        1.88074066314614       -1.51677639297764
H           -2.75710504959557        3.70469587888698        1.05209283466354
H           -1.40702147217139        2.85196902740337        0.27732544063033
H           -1.76582037501543        2.57339711339913        1.99128832202060
H           -3.90475382203779        1.56661867673231        2.52561733381941
H           -4.89132215277935        2.31227367825629        1.44336075348994
H            1.83708525448060       -1.93579048784182       -0.05983990918705
H            3.79381934903847       -2.19233815123979        1.27085098256148
H            3.44029401555307       -0.62939680167040        2.05773476196417
H            3.21153520328147        1.38399357377972        0.23581814278649
H            4.61431928479981        2.55676643947198       -1.44995062024294
H            6.96574151236052       -0.98871500523722       -1.95950081711586
H            5.55949612154826       -2.16392762483901       -0.28278169275779
H           -0.42885348457879       -3.58139943273742       -0.64007538067066
H           -1.24937130980133       -1.91786989844055       -2.46281782309016
H           -1.36366073073746       -0.23130853713606       -1.90361953046341
H            0.22954647133194       -0.98223542374707       -2.16476904167919

          :  Hamiltonian                  GFN1-xTB          :
         :: total energy             -79.490681470926 Eh    ::
         :: gradient norm              0.000581129250 Eh/a0 ::
         :: HOMO-LUMO gap              0.700382646421 eV    ::
         :: SCC energy               -80.383259651772 Eh    ::
         :: -> Gsolv                  -0.107895001596 Eh    ::
         :: repulsion energy           0.923650201453 Eh    ::

    * Orbital Energies and Occupations

         #    Occupation            Energy/Eh            Energy/eV
      -------------------------------------------------------------
         1        2.0000           -0.8865778             -24.1250
       ...           ...                  ...                  ...
        55        2.0000           -0.5233825             -14.2420
        56        2.0000           -0.5201508             -14.1540
        57        2.0000           -0.5176319             -14.0855
        58        2.0000           -0.5117643             -13.9258
        59        2.0000           -0.5111150             -13.9081
        60        2.0000           -0.5037548             -13.7079
        61        2.0000           -0.4978190             -13.5463
        62        2.0000           -0.4811845             -13.0937
        63        2.0000           -0.4784686             -13.0198
        64        2.0000           -0.4673477             -12.7172
        65        2.0000           -0.4592596             -12.4971
        66        2.0000           -0.4452520             -12.1159
        67        2.0000           -0.4422779             -12.0350 (HOMO)
        68        0.0000           -0.4165393             -11.3346 (LUMO)
        69                         -0.3427775              -9.3274
        70                         -0.3016382              -8.2080
        71                         -0.2811762              -7.6512
        72                         -0.2757442              -7.5034
        73                         -0.2424168              -6.5965
        74                         -0.1633177              -4.4441
        75                         -0.1584855              -4.3126
        76                         -0.1541607              -4.1949
        77                         -0.1427408              -3.8842
        78                         -0.1354233              -3.6851
       ...                                ...                  ...
       144                          0.6874415              18.7062
      -------------------------------------------------------------
                  HL-Gap            0.0257386 Eh            0.7004 eV

Wiberg/Mayer (AO) data.
largest (>0.10) Wiberg bond orders for each atom

     #   Z sym  total        # sym  WBO       # sym  WBO       # sym  WBO
 ---------------------------------------------------------------------------
     1   6 C    3.880 --    27 H    0.970    28 H    0.966    26 H    0.960
                             2 N    0.901
     2   7 N    3.552 --     3 C    1.371    23 C    1.009     1 C    0.901
     3   6 C    3.869 --     2 N    1.371     8 N    1.263     4 C    0.988
     4   6 C    3.954 --     6 C    0.988     3 C    0.988     7 N    0.982
                             5 C    0.954
     5   6 C    3.986 --    31 H    0.984    29 H    0.983    30 H    0.975
                             4 C    0.954
     6   6 C    3.988 --     4 C    0.988    32 H    0.983    34 H    0.982
                            33 H    0.981
     7   7 N    3.007 --     4 C    0.982    35 H    0.929    36 H    0.924
     8   7 N    3.143 --     9 C    1.631     3 C    1.263
     9   6 C    3.897 --     8 N    1.631    21 C    1.003    10 C    0.959
    10   6 C    3.922 --    11 O    1.586    12 N    1.300     9 C    0.959
    11   8 O    1.911 --    10 C    1.586    12 N    0.204
    12   7 N    3.422 --    10 C    1.300    13 C    0.932    37 H    0.878
                            11 O    0.204
    13   6 C    3.929 --    14 C    0.987    38 H    0.971    39 H    0.964
                            12 N    0.932
    14   6 C    3.982 --    20 C    1.423    15 C    1.413    13 C    0.987
    15   6 C    3.993 --    16 C    1.449    14 C    1.413    40 H    0.971
                            19 C    0.111
    16   6 C    3.991 --    15 C    1.449    17 C    1.396    41 H    0.969
                            20 C    0.109
    17   6 C    3.862 --    19 C    1.402    16 C    1.396    18 F    0.931
    18   9 F    1.060 --    17 C    0.931
    19   6 C    3.990 --    20 C    1.440    17 C    1.402    42 H    0.968
                            15 C    0.111
    20   6 C    3.993 --    19 C    1.440    14 C    1.423    43 H    0.970
                            16 C    0.109
    21   6 C    3.934 --     9 C    1.003    22 O    0.989    23 C    0.927
                            24 C    0.895
    22   8 O    1.928 --    21 C    0.989    44 H    0.811
    23   6 C    3.859 --    25 O    1.776     2 N    1.009    21 C    0.927
    24   6 C    3.970 --    46 H    0.984    45 H    0.977    47 H    0.976
                            21 C    0.895
    25   8 O    2.040 --    23 C    1.776
    26   1 H    1.020 --     1 C    0.960
    27   1 H    0.997 --     1 C    0.970
    28   1 H    0.994 --     1 C    0.966
    29   1 H    0.998 --     5 C    0.983
    30   1 H    0.994 --     5 C    0.975
    31   1 H    0.999 --     5 C    0.984
    32   1 H    0.999 --     6 C    0.983
    33   1 H    1.002 --     6 C    0.981
    34   1 H    1.004 --     6 C    0.982
    35   1 H    0.944 --     7 N    0.929
    36   1 H    0.940 --     7 N    0.924
    37   1 H    0.937 --    12 N    0.878
    38   1 H    0.998 --    13 C    0.971
    39   1 H    1.006 --    13 C    0.964
    40   1 H    1.002 --    15 C    0.971
    41   1 H    0.997 --    16 C    0.969
    42   1 H    0.997 --    19 C    0.968
    43   1 H    0.998 --    20 C    0.970
    44   1 H    0.834 --    22 O    0.811
    45   1 H    0.993 --    24 C    0.977
    46   1 H    0.997 --    24 C    0.984
    47   1 H    0.996 --    24 C    0.976
 ---------------------------------------------------------------------------

           -------------------------------------------------
          | TOTAL ENERGY              -79.490681470926 Eh   |
          | GRADIENT NORM               0.000581129250 Eh/α |
          | HOMO-LUMO GAP               0.700382646421 eV   |
           -------------------------------------------------

 * finished run on 2023/06/20 at 15:35:08.033
