   * xtb version 6.5.1 (579679a) compiled by 'ehlert@majestix' on 2022-07-11
          program call               : /lustre/hpc/kemi/ree/PhD/git/ReactivityQM/dep/xtb-6.5.1/bin/xtb --gfn 1 /lustre/hpc/kemi/ree/PhD/git/ReactivityQM/calculations/R01/reac02prodE07/conf19/R01_reac02prodE07_conf19_gfn1.xyz --opt --vfukui --chrg -1 --uhf 0 --alpb DMSO

   ID    Z sym.   atoms
    1    6 C      1, 3, 5, 6, 8, 10, 12-15
    2    8 O      2, 4, 7, 9
    3    7 N      11, 16, 17
    4    1 H      18-33

      * Solvation model:               ALPB
        Solvent                        DMSO
        Solvent mass                       7.8130E+01 g/mol
          :  Hamiltonian                  GFN1-xTB          :
 * total energy  :   -58.5004355 Eh     change       -0.2001599E-10 Eh
 * total energy  :   -58.5167872 Eh     change       -0.1635170E-01 Eh
 * total energy  :   -58.5214196 Eh     change       -0.4632433E-02 Eh
 * total energy  :   -58.5221891 Eh     change       -0.7694755E-03 Eh
 * total energy  :   -58.5226829 Eh     change       -0.4938248E-03 Eh
 * total energy  :   -58.5228389 Eh     change       -0.1559347E-03 Eh
 * total energy  :   -58.5229355 Eh     change       -0.9662525E-04 Eh
 * total energy  :   -58.5229987 Eh     change       -0.6324335E-04 Eh
 * total energy  :   -58.5230548 Eh     change       -0.5606488E-04 Eh
 * total energy  :   -58.5231105 Eh     change       -0.5571260E-04 Eh
 * total energy  :   -58.5255138 Eh     change        0.1617390E-04 Eh
 * total energy  :   -58.5255442 Eh     change       -0.3047432E-04 Eh
 * total energy  :   -58.5255526 Eh     change       -0.8333168E-05 Eh
 * total energy  :   -58.5255606 Eh     change       -0.7974845E-05 Eh
 * total energy  :   -58.5255681 Eh     change       -0.7546051E-05 Eh
 * total energy  :   -58.5255733 Eh     change       -0.5250738E-05 Eh
 * total energy  :   -58.5255805 Eh     change       -0.7104155E-05 Eh
 * total energy  :   -58.5255855 Eh     change       -0.5089297E-05 Eh
 * total energy  :   -58.5255895 Eh     change       -0.3925058E-05 Eh
   *** GEOMETRY OPTIMIZATION CONVERGED AFTER 61 ITERATIONS ***

 final structure:
================
33
 xtb: 6.5.1 (579679a)
C            3.68548702601686       -3.04236655909644        0.03401216237555
O            2.46132562170660       -2.33902625493963        0.08301068652792
C            2.58332432905626       -0.95236496933920        0.26270078456999
O            3.75068973204288       -0.46139553849738        0.38433475346145
C            1.40505955986580       -0.23733172565373        0.30768094106617
C            1.42741707566803        1.22015780997655        0.44714749457025
O            2.64195811528243        1.85198481991467        0.42230929483684
C            0.27268898617150        1.89869193792630        0.53253330071327
O            0.11136470204305        3.27602057153855        0.63331094454132
C            0.58652913963187        4.03799417611644       -0.46808307790805
N           -0.97812218704500        1.18303724070150        0.60431415168227
C           -0.91837240253843       -0.16592525024845        0.18818605397396
C           -2.25843347053932       -0.83574712264754       -0.08515011422626
C           -2.89603762028755       -0.24802567733461       -1.35302701057763
C           -3.20235278526169       -0.66419114902774        1.11202622302914
N           -2.05397174563332       -2.26644411210408       -0.30775443462014
N            0.15071483321476       -0.84939319464363        0.09837023485591
H            3.44718391655767       -4.09871056278285       -0.10575084436897
H            4.31084262264905       -2.70131444937679       -0.80130185588508
H            4.25583956260147       -2.92266668303233        0.96446966353489
H            3.32061149276837        1.09825525494822        0.39149488158039
H            1.67345450870891        3.94327604282699       -0.58012871273367
H            0.33636222879774        5.08095915478432       -0.26543263476893
H            0.10413733452824        3.72954691234224       -1.40323226028471
H           -1.73665349870937        1.71337202543280        0.19629899217329
H           -3.81419443316717       -0.78673521938390       -1.58717559644814
H           -2.21077405329017       -0.34267780669513       -2.19539832666035
H           -3.13472069143062        0.80540327156904       -1.21305950449596
H           -3.40873299194327        0.39059672335749        1.28840816205023
H           -4.14315038534840       -1.17892940516509        0.91738444406199
H           -2.75262485845759       -1.08683021463709        2.01091870147674
H           -1.36383605960247       -2.37719759409283       -1.04553224139444
H           -1.65301560405765       -2.67202045273660        0.53211474329145

          :  Hamiltonian                  GFN1-xTB          :
         :: total energy             -58.525589466485 Eh    ::
         :: gradient norm              0.000752333330 Eh/a0 ::
         :: HOMO-LUMO gap              2.236997159055 eV    ::
         :: SCC energy               -59.058446999190 Eh    ::
         :: -> Gsolv                  -0.097308020734 Eh    ::
         :: repulsion energy           0.550948508615 Eh    ::

    * Orbital Energies and Occupations

         #    Occupation            Energy/Eh            Energy/eV
      -------------------------------------------------------------
         1        2.0000           -0.7645995             -20.8058
       ...           ...                  ...                  ...
        36        2.0000           -0.4722675             -12.8511
        37        2.0000           -0.4683852             -12.7454
        38        2.0000           -0.4635962             -12.6151
        39        2.0000           -0.4547281             -12.3738
        40        2.0000           -0.4523569             -12.3093
        41        2.0000           -0.4381146             -11.9217
        42        2.0000           -0.4321082             -11.7583
        43        2.0000           -0.4100051             -11.1568
        44        2.0000           -0.3974051             -10.8139
        45        2.0000           -0.3866184             -10.5204
        46        2.0000           -0.3762440             -10.2381
        47        2.0000           -0.3688587             -10.0372
        48        2.0000           -0.2932950              -7.9810 (HOMO)
        49                         -0.2110869              -5.7440 (LUMO)
        50                         -0.1803801              -4.9084
        51                         -0.1149215              -3.1272
        52                         -0.1124302              -3.0594
        53                         -0.1079260              -2.9368
        54                         -0.1069814              -2.9111
        55                         -0.0863772              -2.3504
        56                         -0.0822509              -2.2382
        57                         -0.0707392              -1.9249
        58                         -0.0543415              -1.4787
        59                         -0.0484475              -1.3183
       ...                                ...                  ...
       100                          0.7101862              19.3251
      -------------------------------------------------------------
                  HL-Gap            0.0822081 Eh            2.2370 eV

Wiberg/Mayer (AO) data.
largest (>0.10) Wiberg bond orders for each atom

     #   Z sym  total        # sym  WBO       # sym  WBO       # sym  WBO
 ---------------------------------------------------------------------------
     1   6 C    3.919 --    18 H    0.987    19 H    0.981    20 H    0.981
                             2 O    0.950
     2   8 O    2.065 --     1 C    0.950     3 C    0.939
     3   6 C    3.872 --     5 C    1.426     4 O    1.337     2 O    0.939
     4   8 O    1.794 --     3 C    1.337    21 H    0.129     5 C    0.121
     5   6 C    3.861 --     3 C    1.426     6 C    1.069    17 N    1.057
                             4 O    0.121
     6   6 C    3.914 --     8 C    1.653     5 C    1.069     7 O    1.035
     7   8 O    1.975 --     6 C    1.035    21 H    0.746
     8   6 C    3.821 --     6 C    1.653    11 N    0.958     9 O    0.952
     9   8 O    2.027 --     8 C    0.952    10 C    0.934
    10   6 C    3.915 --    23 H    0.986    24 H    0.983    22 H    0.981
                             9 O    0.934
    11   7 N    3.182 --    12 C    1.037     8 C    0.958    25 H    0.923
                            17 N    0.109
    12   6 C    3.944 --    17 N    1.730    11 N    1.037    13 C    0.968
    13   6 C    3.967 --    15 C    0.991    14 C    0.988    16 N    0.986
                            12 C    0.968
    14   6 C    3.994 --    13 C    0.988    27 H    0.986    26 H    0.986
                            28 H    0.984
    15   6 C    3.995 --    13 C    0.991    30 H    0.987    31 H    0.986
                            29 H    0.986
    16   7 N    2.951 --    13 C    0.986    33 H    0.950    32 H    0.946
    17   7 N    3.037 --    12 C    1.730     5 C    1.057    11 N    0.109
    18   1 H    1.020 --     1 C    0.987
    19   1 H    1.020 --     1 C    0.981
    20   1 H    1.021 --     1 C    0.981
    21   1 H    0.889 --     7 O    0.746     4 O    0.129
    22   1 H    1.024 --    10 C    0.981
    23   1 H    1.019 --    10 C    0.986
    24   1 H    1.014 --    10 C    0.983
    25   1 H    0.970 --    11 N    0.923
    26   1 H    1.009 --    14 C    0.986
    27   1 H    1.006 --    14 C    0.986
    28   1 H    1.005 --    14 C    0.984
    29   1 H    1.008 --    15 C    0.986
    30   1 H    1.008 --    15 C    0.987
    31   1 H    1.006 --    15 C    0.986
    32   1 H    0.982 --    16 N    0.946
    33   1 H    0.977 --    16 N    0.950
 ---------------------------------------------------------------------------

           -------------------------------------------------
          | TOTAL ENERGY              -58.525589466485 Eh   |
          | GRADIENT NORM               0.000752333330 Eh/α |
          | HOMO-LUMO GAP               2.236997159055 eV   |
           -------------------------------------------------

 * finished run on 2023/06/20 at 15:01:57.527
