   * xtb version 6.5.1 (579679a) compiled by 'ehlert@majestix' on 2022-07-11
          program call               : /lustre/hpc/kemi/ree/PhD/git/ReactivityQM/dep/xtb-6.5.1/bin/xtb --gfn 1 /lustre/hpc/kemi/ree/PhD/git/ReactivityQM/calculations/R02oxygendeprot/reac01prodN08/conf04/R02oxygendeprot_reac01prodN08_conf04_gfn1.xyz --opt --vfukui --chrg 0 --uhf 0 --alpb DMSO

   ID    Z sym.   atoms
    1    6 C      1, 3, 5, 7-10, 12, 14, 17, 18, 21, 23, 25
    2    8 O      2, 4, 13, 19, 22, 24
    3    7 N      6, 11, 15, 16, 20
    4    1 H      26-42

      * Solvation model:               ALPB
        Solvent                        DMSO
        Solvent mass                       7.8130E+01 g/mol
          :  Hamiltonian                  GFN1-xTB          :
 * total energy  :   -82.9996585 Eh     change       -0.1055867E-10 Eh
 * total energy  :   -83.0128509 Eh     change       -0.1319237E-01 Eh
 * total energy  :   -83.0170109 Eh     change       -0.4160040E-02 Eh
 * total energy  :   -83.0180220 Eh     change       -0.1011139E-02 Eh
 * total energy  :   -83.0187440 Eh     change       -0.7219606E-03 Eh
 * total energy  :   -83.0191516 Eh     change       -0.4076162E-03 Eh
 * total energy  :   -83.0194544 Eh     change       -0.3028241E-03 Eh
 * total energy  :   -83.0196779 Eh     change       -0.2234254E-03 Eh
 * total energy  :   -83.0198106 Eh     change       -0.1327165E-03 Eh
 * total energy  :   -83.0198722 Eh     change       -0.6159301E-04 Eh
 * total energy  :   -83.0205361 Eh     change       -0.1559718E-04 Eh
 * total energy  :   -83.0205511 Eh     change       -0.1499234E-04 Eh
 * total energy  :   -83.0205729 Eh     change       -0.2174985E-04 Eh
 * total energy  :   -83.0205838 Eh     change       -0.1097625E-04 Eh
 * total energy  :   -83.0205907 Eh     change       -0.6865848E-05 Eh
 * total energy  :   -83.0205976 Eh     change       -0.6911828E-05 Eh
 * total energy  :   -83.0206048 Eh     change       -0.7187252E-05 Eh
 * total energy  :   -83.0206109 Eh     change       -0.6074321E-05 Eh
 * total energy  :   -83.0206147 Eh     change       -0.3802258E-05 Eh
   *** GEOMETRY OPTIMIZATION CONVERGED AFTER 41 ITERATIONS ***

 final structure:
================
42
 xtb: 6.5.1 (579679a)
C            5.20169901500284        0.88262566926370        2.10781282991931
O            3.99464874135623        0.69194519425342        1.36617841579112
C            3.91491370562024       -0.42884204626230        0.64276421565694
O            4.80333506326800       -1.24804287384842        0.60366987888783
C            2.61651661639605       -0.52192514735782       -0.08879575805751
N            1.74171208256850        0.50558813825819        0.14932299030930
C            0.59443609284311        0.51110373858048       -0.43532488897202
C           -0.36587063671781        1.65857584188975       -0.21287429861279
C           -0.00570943849339        2.40016389099228        1.07808801978388
C           -0.27807979591410        2.58878177763041       -1.43302234757415
N           -1.71573355767066        1.09245572848612       -0.10636370048861
C           -2.82216823903854        1.85457568100587        0.04932851499546
O           -2.85236929508578        3.07273480871797        0.02494189737097
C           -4.04761734201389        1.04009256389361        0.24207859025129
N           -5.25942495742628        1.46166108684020        0.42990648553986
N           -6.04612133497490        0.35638750617170        0.55417249702680
C           -5.26627103639669       -0.67297596305465        0.43580217823750
C           -5.63847070589533       -2.10371955884958        0.47764066402063
O           -3.98796684828209       -0.30982512963997        0.23868322956323
N            0.23317279806194       -0.46660698742953       -1.31392884686160
C            1.01843150108620       -1.55478632415031       -1.63800256823491
O            0.61155932399886       -2.38178818083166       -2.44019944322054
C            2.30808766345792       -1.56121361116119       -0.94071018623386
O            3.19862772105813       -2.54355472495168       -1.11720893601811
C            2.95361976899933       -3.67643874934312       -1.95054130332937
H            6.05818629065701        0.92076487918624        1.42999348214645
H            5.09690401358461        1.82776004455477        2.63666465846127
H            5.34039538346127        0.06427544342871        2.81875221630989
H           -0.08150462171930        1.72363717218793        1.92778585559249
H           -0.67952018747498        3.24206337049978        1.22526416562890
H            1.01773938683644        2.76577078078800        1.00995095983262
H            0.75027890058251        2.92665336857778       -1.55250412086236
H           -0.58291288769133        2.05390634021401       -2.33047618006870
H           -0.92267569579011        3.45471949315850       -1.29590333730324
H           -1.80186373954025        0.10255334614359        0.05359432677932
H           -5.43843452517060       -2.56504002103239       -0.48972618200242
H           -5.04155442073209       -2.62360697990334        1.22631522227004
H           -6.69491105848336       -2.20147001648086        0.71545267630595
H           -0.66427092615958       -0.42715800633320       -1.77268917370122
H            2.07820715911685       -4.23323460117946       -1.60937115584727
H            3.84364610659404       -4.30097067364986       -1.86129327553821
H            2.81733691612258       -3.37759626926973       -2.99215026774458

          :  Hamiltonian                  GFN1-xTB          :
         :: total energy             -83.020614672478 Eh    ::
         :: gradient norm              0.000588988606 Eh/a0 ::
         :: HOMO-LUMO gap              2.756395218915 eV    ::
         :: SCC energy               -83.804873891064 Eh    ::
         :: -> Gsolv                  -0.057463875044 Eh    ::
         :: repulsion energy           0.809237714511 Eh    ::

    * Orbital Energies and Occupations

         #    Occupation            Energy/Eh            Energy/eV
      -------------------------------------------------------------
         1        2.0000           -0.8661330             -23.5687
       ...           ...                  ...                  ...
        55        2.0000           -0.5055094             -13.7556
        56        2.0000           -0.5021219             -13.6634
        57        2.0000           -0.4960084             -13.4971
        58        2.0000           -0.4849726             -13.1968
        59        2.0000           -0.4832789             -13.1507
        60        2.0000           -0.4804279             -13.0731
        61        2.0000           -0.4673523             -12.7173
        62        2.0000           -0.4618761             -12.5683
        63        2.0000           -0.4575941             -12.4518
        64        2.0000           -0.4523577             -12.3093
        65        2.0000           -0.4501745             -12.2499
        66        2.0000           -0.4472196             -12.1695
        67        2.0000           -0.4269645             -11.6183 (HOMO)
        68                         -0.3256689              -8.8619 (LUMO)
        69                         -0.3122195              -8.4959
        70                         -0.2853655              -7.7652
        71                         -0.2571525              -6.9975
        72                         -0.2406770              -6.5492
        73                         -0.1999256              -5.4403
        74                         -0.1613979              -4.3919
        75                         -0.1419133              -3.8617
        76                         -0.1374264              -3.7396
        77                         -0.1309005              -3.5620
        78                         -0.1281052              -3.4859
       ...                                ...                  ...
       134                          0.7346140              19.9899
      -------------------------------------------------------------
                  HL-Gap            0.1012957 Eh            2.7564 eV

Wiberg/Mayer (AO) data.
largest (>0.10) Wiberg bond orders for each atom

     #   Z sym  total        # sym  WBO       # sym  WBO       # sym  WBO
 ---------------------------------------------------------------------------
     1   6 C    3.873 --    27 H    0.986    26 H    0.979    28 H    0.979
                             2 O    0.900
     2   8 O    2.196 --     3 C    1.107     1 C    0.900     4 O    0.134
     3   6 C    3.852 --     4 O    1.660     2 O    1.107     5 C    1.003
     4   8 O    1.923 --     3 C    1.660     2 O    0.134
     5   6 C    3.963 --    23 C    1.478     6 N    1.186     3 C    1.003
     6   7 N    3.028 --     7 C    1.586     5 C    1.186
     7   6 C    3.931 --     6 N    1.586    20 N    1.168     8 C    0.982
     8   6 C    3.934 --     9 C    0.990     7 C    0.982    10 C    0.975
                            11 N    0.923
     9   6 C    3.988 --     8 C    0.990    29 H    0.985    31 H    0.983
                            30 H    0.982
    10   6 C    3.987 --    32 H    0.985    33 H    0.985    34 H    0.977
                             8 C    0.975
    11   7 N    3.336 --    12 C    1.246     8 C    0.923    35 H    0.893
                            13 O    0.174
    12   6 C    3.915 --    13 O    1.592    11 N    1.246    14 C    0.993
    13   8 O    1.908 --    12 C    1.592    11 N    0.174
    14   6 C    3.872 --    15 N    1.622    19 O    1.046    12 C    0.993
    15   7 N    3.000 --    14 C    1.622    16 N    1.199
    16   7 N    2.982 --    17 C    1.610    15 N    1.199
    17   6 C    3.868 --    16 N    1.610    19 O    1.072    18 C    1.032
    18   6 C    3.986 --    17 C    1.032    38 H    0.982    37 H    0.965
                            36 H    0.961
    19   8 O    2.316 --    17 C    1.072    14 C    1.046
    20   7 N    3.464 --     7 C    1.168    21 C    1.127    39 H    0.882
                            22 O    0.132
    21   6 C    3.908 --    22 O    1.579    20 N    1.127    23 C    1.065
    22   8 O    1.904 --    21 C    1.579    20 N    0.132
    23   6 C    3.919 --     5 C    1.478    24 O    1.103    21 C    1.065
    24   8 O    2.200 --    23 C    1.103    25 C    0.896
    25   6 C    3.871 --    41 H    0.984    40 H    0.979    42 H    0.978
                            24 O    0.896
    26   1 H    1.008 --     1 C    0.979
    27   1 H    1.011 --     1 C    0.986
    28   1 H    1.008 --     1 C    0.979
    29   1 H    1.004 --     9 C    0.985
    30   1 H    1.007 --     9 C    0.982
    31   1 H    1.010 --     9 C    0.983
    32   1 H    1.001 --    10 C    0.985
    33   1 H    1.001 --    10 C    0.985
    34   1 H    1.009 --    10 C    0.977
    35   1 H    0.937 --    11 N    0.893
    36   1 H    0.996 --    18 C    0.961
    37   1 H    0.997 --    18 C    0.965
    38   1 H    0.998 --    18 C    0.982
    39   1 H    0.928 --    20 N    0.882
    40   1 H    1.013 --    25 C    0.979
    41   1 H    1.012 --    25 C    0.984
    42   1 H    1.015 --    25 C    0.978
 ---------------------------------------------------------------------------

           -------------------------------------------------
          | TOTAL ENERGY              -83.020614672478 Eh   |
          | GRADIENT NORM               0.000588988606 Eh/α |
          | HOMO-LUMO GAP               2.756395218915 eV   |
           -------------------------------------------------

 * finished run on 2023/06/21 at 17:23:43.304
