                         Program Version 5.0.1 -  RELEASE  -
|  1> # ORCA input file
|  2> ! SP r2SCAN-3c CPCM
|  3>
|  4> %maxcore 1875.0
|  5> %pal nprocs 4 end
|  6> %cpcm smd true SMDsolvent "DMSO" end
|  7>
|  8> *xyz -1 1
|  9> C      -1.358595    1.331406    0.286589
| 10> C      -0.626870    0.010229    0.017616
| 11> C      -1.416809   -0.881346   -0.949239
| 12> N      -0.420937   -0.705029    1.289248
| 13> N       0.834821   -0.844578    1.475333
| 14> C       1.535606   -0.298146    0.461100
| 15> C       2.910944   -0.297499    0.379321
| 16> O       3.744432   -0.753086    1.150825
| 17> Cl      3.529178    0.526810   -1.141475
| 18> O       0.674964    0.258645   -0.490141
| 19> H      -1.498899    1.877371   -0.644221
| 20> H      -0.768131    1.939296    0.970203
| 21> H      -2.328436    1.128650    0.735599
| 22> H      -2.394742   -1.104441   -0.528392
| 23> H      -0.874915   -1.812305   -1.107490
| 24> H      -1.541613   -0.375978   -1.904872
| 25> **                         ****END OF INPUT****

CARTESIAN COORDINATES (ANGSTROEM)
---------------------------------
  C     -1.358595    1.331406    0.286589
  C     -0.626870    0.010229    0.017616
  C     -1.416809   -0.881346   -0.949239
  N     -0.420937   -0.705029    1.289248
  N      0.834821   -0.844578    1.475333
  C      1.535606   -0.298146    0.461100
  C      2.910944   -0.297499    0.379321
  O      3.744432   -0.753086    1.150825
  Cl     3.529178    0.526810   -1.141475
  O      0.674964    0.258645   -0.490141
  H     -1.498899    1.877371   -0.644221
  H     -0.768131    1.939296    0.970203
  H     -2.328436    1.128650    0.735599
  H     -2.394742   -1.104441   -0.528392
  H     -0.874915   -1.812305   -1.107490
  H     -1.541613   -0.375978   -1.904872

 Total Charge           Charge          ....   -1
 Multiplicity           Mult            ....    1
 Number of Electrons    NEL             ....   84
 Basis Dimension        Dim             ....  248

ORBITAL ENERGIES
----------------

  NO   OCC          E(Eh)            E(eV)
   0   2.0000    -101.185876     -2753.4077
   1   2.0000     -18.959819      -515.9229
   2   2.0000     -18.916458      -514.7430
   3   2.0000     -14.184363      -385.9761
   4   2.0000     -14.155218      -385.1831
   5   2.0000     -10.124610      -275.5047
   6   2.0000     -10.098841      -274.8034
   7   2.0000     -10.078546      -274.2512
   8   2.0000     -10.008423      -272.3430
   9   2.0000     -10.008417      -272.3429
  10   2.0000      -9.342437      -254.2206
  11   2.0000      -7.087842      -192.8700
  12   2.0000      -7.079363      -192.6393
  13   2.0000      -7.078362      -192.6120
  14   2.0000      -1.049268       -28.5520
  15   2.0000      -0.985015       -26.8036
  16   2.0000      -0.932762       -25.3817
  17   2.0000      -0.786264       -21.3953
  18   2.0000      -0.762306       -20.7434
  19   2.0000      -0.684422       -18.6241
  20   2.0000      -0.650341       -17.6967
  21   2.0000      -0.602171       -16.3859
  22   2.0000      -0.549669       -14.9573
  23   2.0000      -0.514518       -14.0008
  24   2.0000      -0.435032       -11.8378
  25   2.0000      -0.431032       -11.7290
  26   2.0000      -0.412451       -11.2234
  27   2.0000      -0.389560       -10.6005
  28   2.0000      -0.374722       -10.1967
  29   2.0000      -0.370098       -10.0709
  30   2.0000      -0.354204        -9.6384
  31   2.0000      -0.344992        -9.3877
  32   2.0000      -0.336952        -9.1689
  33   2.0000      -0.330462        -8.9923
  34   2.0000      -0.308635        -8.3984
  35   2.0000      -0.290764        -7.9121
  36   2.0000      -0.276411        -7.5215
  37   2.0000      -0.267872        -7.2892
  38   2.0000      -0.267349        -7.2749
  39   2.0000      -0.229756        -6.2520
  40   2.0000      -0.208968        -5.6863
  41   2.0000      -0.142867        -3.8876
  42   0.0000      -0.054614        -1.4861
  43   0.0000       0.022176         0.6034
  44   0.0000       0.083719         2.2781
  45   0.0000       0.084884         2.3098
  46   0.0000       0.114316         3.1107

MULLIKEN ATOMIC CHARGES
-----------------------
   0 C :   -0.543316
   1 C :    0.167012
   2 C :   -0.543868
   3 N :   -0.268892
   4 N :   -0.120003
   5 C :    0.148215
   6 C :   -0.055951
   7 O :   -0.377337
   8 Cl:   -0.285031
   9 O :   -0.143771
  10 H :    0.170950
  11 H :    0.166561
  12 H :    0.173917
  13 H :    0.173459
  14 H :    0.166598
  15 H :    0.171457
Sum of atomic charges:   -1.0000000

LOEWDIN ATOMIC CHARGES
----------------------
   0 C :   -0.361703
   1 C :    0.238838
   2 C :   -0.361769
   3 N :   -0.422553
   4 N :   -0.387319
   5 C :    0.265176
   6 C :    0.118472
   7 O :   -0.540361
   8 Cl:    0.012904
   9 O :   -0.570215
  10 H :    0.166198
  11 H :    0.168052
  12 H :    0.170017
  13 H :    0.169821
  14 H :    0.168037
  15 H :    0.166405

  Mayer bond orders larger than 0.100000
B(  0-C ,  1-C ) :   0.9583 B(  0-C , 10-H ) :   0.9723 B(  0-C , 11-H ) :   0.9631
B(  0-C , 12-H ) :   0.9640 B(  1-C ,  2-C ) :   0.9580 B(  1-C ,  3-N ) :   0.8409
B(  1-C ,  9-O ) :   0.7856 B(  2-C , 13-H ) :   0.9637 B(  2-C , 14-H ) :   0.9632
B(  2-C , 15-H ) :   0.9726 B(  3-N ,  4-N ) :   1.7703 B(  3-N ,  5-C ) :   0.1149
B(  3-N ,  6-C ) :   0.1317 B(  4-N ,  5-C ) :   1.3329 B(  5-C ,  6-C ) :   1.2100
B(  5-C ,  9-O ) :   1.0110 B(  6-C ,  7-O ) :   1.8601 B(  6-C ,  8-Cl) :   0.9385

Dispersion correction           -0.005650744
FINAL SINGLE POINT ENERGY      -914.300696297159

DIPOLE MOMENT
-------------
                                X             Y             Z
Electronic contribution:     16.85196      -0.08323      -0.74677
Nuclear contribution   :    -18.97669       1.11941      -1.00110
                        -----------------------------------------
Total Dipole Moment    :     -2.12473       1.03618      -1.74787
                        -----------------------------------------
Magnitude (a.u.)       :      2.93993
Magnitude (Debye)      :      7.47271

Rotational constants in cm-1:     0.074668     0.024673     0.021074
Rotational constants in MHz :  2238.475625   739.670933   631.793496

                             ****ORCA TERMINATED NORMALLY****
TOTAL RUN TIME: 0 days 0 hours 0 minutes 26 seconds 137 msec
