   * xtb version 6.5.1 (579679a) compiled by 'ehlert@majestix' on 2022-07-11
          program call               : /lustre/hpc/kemi/ree/PhD/git/ReactivityQM/dep/xtb-6.5.1/bin/xtb --gfn 1 /lustre/hpc/kemi/ree/PhD/git/ReactivityQM/calculations/RaltegravirCLI/reac01prodE02/conf10/RaltegravirCLI_reac01prodE02_conf10_gfn1.xyz --opt --vfukui --chrg -1 --uhf 0 --alpb DMSO

   ID    Z sym.   atoms
    1    6 C      1-3, 6, 7
    2    7 N      4, 5
    3    8 O      8, 10
    4   17 Cl     9
    5    1 H      11-16

      * Solvation model:               ALPB
        Solvent                        DMSO
        Solvent mass                       7.8130E+01 g/mol
          :  Hamiltonian                  GFN1-xTB          :
 * total energy  :   -34.1679988 Eh     change       -0.8526513E-13 Eh
 * total energy  :   -34.1708261 Eh     change       -0.2827290E-02 Eh
 * total energy  :   -34.1723563 Eh     change       -0.1530184E-02 Eh
 * total energy  :   -34.1726406 Eh     change       -0.2842437E-03 Eh
 * total energy  :   -34.1727676 Eh     change       -0.1270783E-03 Eh
 * total energy  :   -34.1727897 Eh     change       -0.2208904E-04 Eh
 * total energy  :   -34.1727993 Eh     change       -0.9595254E-05 Eh
 * total energy  :   -34.1728021 Eh     change       -0.2757699E-05 Eh
 * total energy  :   -34.1728029 Eh     change       -0.8281207E-06 Eh
   *** GEOMETRY OPTIMIZATION CONVERGED AFTER 9 ITERATIONS ***

 final structure:
================
16
 xtb: 6.5.1 (579679a)
C           -1.35859453098385        1.33140590973765        0.28658878615359
C           -0.62687001422696        0.01022947661145        0.01761591389178
C           -1.41680895117885       -0.88134598497843       -0.94923936161150
N           -0.42093736135719       -0.70502932243689        1.28924828986910
N            0.83482073816620       -0.84457817440440        1.47533273342153
C            1.53560585114200       -0.29814600051544        0.46109957466306
C            2.91094392852868       -0.29749877845290        0.37932059435854
O            3.74443237670030       -0.75308624363564        1.15082460028876
Cl           3.52917785449879        0.52681042552613       -1.14147506502172
O            0.67496360633173        0.25864490080263       -0.49014084415631
H           -1.49889887526657        1.87737087836950       -0.64422121139365
H           -0.76813119716614        1.93929613387728        0.97020308998587
H           -2.32843571408261        1.12865021510247        0.73559882836920
H           -2.39474158411171       -1.10444066310375       -0.52839205988225
H           -0.87491471024303       -1.81230517553053       -1.10749048345221
H           -1.54161341675068       -0.37597759696912       -1.90487238548383

          :  Hamiltonian                  GFN1-xTB          :
         :: total energy             -34.172802912270 Eh    ::
         :: gradient norm              0.000336003028 Eh/a0 ::
         :: HOMO-LUMO gap              2.081080298061 eV    ::
         :: SCC energy               -34.430496391789 Eh    ::
         :: -> Gsolv                  -0.087524734072 Eh    ::
         :: repulsion energy           0.265333431465 Eh    ::

    * Orbital Energies and Occupations

         #    Occupation            Energy/Eh            Energy/eV
      -------------------------------------------------------------
         1        2.0000           -0.8671494             -23.5963
       ...           ...                  ...                  ...
        16        2.0000           -0.5172462             -14.0750
        17        2.0000           -0.5014072             -13.6440
        18        2.0000           -0.4936408             -13.4326
        19        2.0000           -0.4918339             -13.3835
        20        2.0000           -0.4830407             -13.1442
        21        2.0000           -0.4602821             -12.5249
        22        2.0000           -0.4560652             -12.4102
        23        2.0000           -0.4473753             -12.1737
        24        2.0000           -0.4451522             -12.1132
        25        2.0000           -0.4351793             -11.8418
        26        2.0000           -0.4255657             -11.5802
        27        2.0000           -0.3879706             -10.5572
        28        2.0000           -0.3399683              -9.2510 (HOMO)
        29                         -0.2634901              -7.1699 (LUMO)
        30                         -0.1693035              -4.6070
        31                         -0.1483123              -4.0358
        32                         -0.1101439              -2.9972
        33                         -0.1044051              -2.8410
        34                         -0.0630421              -1.7155
        35                         -0.0518465              -1.4108
        36                         -0.0338246              -0.9204
        37                         -0.0314960              -0.8571
        38                          0.0014057               0.0383
        39                          0.0016211               0.0441
       ...                                ...                  ...
        57                          0.7571986              20.6044
      -------------------------------------------------------------
                  HL-Gap            0.0764783 Eh            2.0811 eV

Wiberg/Mayer (AO) data.
largest (>0.10) Wiberg bond orders for each atom

     #   Z sym  total        # sym  WBO       # sym  WBO       # sym  WBO
 ---------------------------------------------------------------------------
     1   6 C    3.993 --    13 H    0.987    11 H    0.986    12 H    0.985
                             2 C    0.980
     2   6 C    3.897 --     1 C    0.980     3 C    0.979     4 N    0.972
                            10 O    0.924
     3   6 C    3.993 --    14 H    0.987    16 H    0.986    15 H    0.985
                             2 C    0.979
     4   7 N    2.947 --     5 N    1.581     2 C    0.972     7 C    0.119
                             6 C    0.117
     5   7 N    3.025 --     4 N    1.581     6 C    1.286
     6   6 C    3.856 --     7 C    1.358     5 N    1.286    10 O    0.945
                             4 N    0.117     8 O    0.109
     7   6 C    3.903 --     8 O    1.571     6 C    1.358     9 Cl   0.780
                             4 N    0.119
     8   8 O    1.914 --     7 C    1.571     9 Cl   0.113     6 C    0.109
     9  17 Cl   0.954 --     7 C    0.780     8 O    0.113
    10   8 O    2.060 --     6 C    0.945     2 C    0.924
    11   1 H    1.006 --     1 C    0.986
    12   1 H    1.011 --     1 C    0.985
    13   1 H    1.008 --     1 C    0.987
    14   1 H    1.008 --     3 C    0.987
    15   1 H    1.011 --     3 C    0.985
    16   1 H    1.007 --     3 C    0.986
 ---------------------------------------------------------------------------

           -------------------------------------------------
          | TOTAL ENERGY              -34.172802912270 Eh   |
          | GRADIENT NORM               0.000336003028 Eh/α |
          | HOMO-LUMO GAP               2.081080298061 eV   |
           -------------------------------------------------

 * finished run on 2023/06/20 at 14:52:32.188
