   * xtb version 6.5.1 (579679a) compiled by 'ehlert@majestix' on 2022-07-11
          program call               : /lustre/hpc/kemi/ree/PhD/git/ReactivityQM/dep/xtb-6.5.1/bin/xtb --gfn 1 /lustre/hpc/kemi/ree/PhD/git/ReactivityQM/calculations/R01/reac01prodE01/conf03/R01_reac01prodE01_conf03_gfn1.xyz --opt --vfukui --chrg -1 --uhf 0 --alpb DMSO

   ID    Z sym.   atoms
    1    6 C      1, 3, 4, 6, 9, 10
    2    8 O      2, 5, 11
    3    7 N      7, 8
    4    1 H      12-20

      * Solvation model:               ALPB
        Solvent                        DMSO
        Solvent mass                       7.8130E+01 g/mol
          :  Hamiltonian                  GFN1-xTB          :
 * total energy  :   -38.3289287 Eh     change       -0.3950618E-11 Eh
 * total energy  :   -38.3376730 Eh     change       -0.8744354E-02 Eh
 * total energy  :   -38.3408394 Eh     change       -0.3166365E-02 Eh
 * total energy  :   -38.3414444 Eh     change       -0.6049821E-03 Eh
 * total energy  :   -38.3417175 Eh     change       -0.2731469E-03 Eh
 * total energy  :   -38.3418303 Eh     change       -0.1128258E-03 Eh
 * total energy  :   -38.3419290 Eh     change       -0.9864684E-04 Eh
 * total energy  :   -38.3420066 Eh     change       -0.7764705E-04 Eh
 * total energy  :   -38.3420575 Eh     change       -0.5091112E-04 Eh
 * total energy  :   -38.3420974 Eh     change       -0.3986261E-04 Eh
 * total energy  :   -38.3444221 Eh     change       -0.1009524E-04 Eh
 * total energy  :   -38.3429592 Eh     change        0.1462810E-02 Eh
 * total energy  :   -38.3443903 Eh     change       -0.1431058E-02 Eh
 * total energy  :   -38.3444590 Eh     change       -0.6873283E-04 Eh
 * total energy  :   -38.3444701 Eh     change       -0.1110086E-04 Eh
 * total energy  :   -38.3444853 Eh     change       -0.1520319E-04 Eh
 * total energy  :   -38.3444899 Eh     change       -0.4548041E-05 Eh
 * total energy  :   -38.3444982 Eh     change       -0.8268339E-05 Eh
 * total energy  :   -38.3445025 Eh     change       -0.4333521E-05 Eh
   *** GEOMETRY OPTIMIZATION CONVERGED AFTER 74 ITERATIONS ***

 final structure:
================
20
 xtb: 6.5.1 (579679a)
C           -2.92482096484210        0.94909592049221       -0.20102140515019
O           -2.20189433136303       -0.23216271888425       -0.44310018666554
C           -1.16207824224293       -0.53834892475218        0.61168197549043
C           -0.86771185674701       -2.04849712084046        0.36069270820405
O           -1.49157627622772       -0.21282139678510        1.81087904777523
C            0.09687796446727        0.26832137174058        0.09912369978756
N            0.18210157602127        1.54430082378941       -0.11301058505353
N            1.49421175181550        1.81338199226500       -0.45294825220596
C            2.11483132220743        0.68298698210442       -0.41619095365425
C            3.54769801615151        0.42714341287760       -0.69980244125030
O            1.29818094092363       -0.33415773074172       -0.07442146615741
H           -3.31200156938425        0.98662705701441        0.82947457302265
H           -3.77306370430974        0.97252319780052       -0.89215478651958
H           -2.31041372943248        1.84966310703866       -0.37152277550012
H           -1.75726303772330       -2.61726373970759        0.62408673125474
H           -0.04186898001622       -2.35880900483658        0.99738546804464
H           -0.61500324999724       -2.22867901838372       -0.68220330593318
H            4.02326918084781       -0.04973826026930        0.15683938459375
H            4.05074850581982        1.36640391309101       -0.91543714346503
H            3.64977668403159       -0.23997286301440       -1.55560728661820

          :  Hamiltonian                  GFN1-xTB          :
         :: total energy             -38.344502485581 Eh    ::
         :: gradient norm              0.000914428416 Eh/a0 ::
         :: HOMO-LUMO gap              3.290877376686 eV    ::
         :: SCC energy               -38.654016359380 Eh    ::
         :: -> Gsolv                  -0.104276396576 Eh    ::
         :: repulsion energy           0.318029741095 Eh    ::

    * Orbital Energies and Occupations

         #    Occupation            Energy/Eh            Energy/eV
      -------------------------------------------------------------
         1        2.0000           -0.8218075             -22.3625
       ...           ...                  ...                  ...
        19        2.0000           -0.5107113             -13.8972
        20        2.0000           -0.5003649             -13.6156
        21        2.0000           -0.4793810             -13.0446
        22        2.0000           -0.4716158             -12.8333
        23        2.0000           -0.4630606             -12.6005
        24        2.0000           -0.4623881             -12.5822
        25        2.0000           -0.4465214             -12.1505
        26        2.0000           -0.4399050             -11.9704
        27        2.0000           -0.4170623             -11.3488
        28        2.0000           -0.4140907             -11.2680
        29        2.0000           -0.4046554             -11.0112
        30        2.0000           -0.3680574             -10.0154
        31        2.0000           -0.3497092              -9.5161 (HOMO)
        32                         -0.2287717              -6.2252 (LUMO)
        33                         -0.2129505              -5.7947
        34                         -0.1306070              -3.5540
        35                         -0.1004230              -2.7327
        36                         -0.0830616              -2.2602
        37                         -0.0633627              -1.7242
        38                         -0.0625158              -1.7011
        39                         -0.0376358              -1.0241
        40                         -0.0302617              -0.8235
        41                         -0.0290000              -0.7891
        42                         -0.0262051              -0.7131
       ...                                ...                  ...
        62                          0.6105409              16.6137
      -------------------------------------------------------------
                  HL-Gap            0.1209375 Eh            3.2909 eV

Wiberg/Mayer (AO) data.
largest (>0.10) Wiberg bond orders for each atom

     #   Z sym  total        # sym  WBO       # sym  WBO       # sym  WBO
 ---------------------------------------------------------------------------
     1   6 C    3.933 --    13 H    0.985    14 H    0.978    12 H    0.976
                             2 O    0.972
     2   8 O    1.944 --     1 C    0.972     3 C    0.786
     3   6 C    3.899 --     5 O    1.256     4 C    0.943     6 C    0.865
                             2 O    0.786
     4   6 C    3.994 --    17 H    0.990    16 H    0.987    15 H    0.987
                             3 C    0.943
     5   8 O    1.549 --     3 C    1.256
     6   6 C    3.803 --     7 N    1.659    11 O    1.045     3 C    0.865
     7   7 N    2.980 --     6 C    1.659     8 N    1.148
     8   7 N    2.976 --     9 C    1.656     7 N    1.148
     9   6 C    3.887 --     8 N    1.656    11 O    1.061    10 C    1.024
    10   6 C    3.993 --     9 C    1.024    19 H    0.985    18 H    0.971
                            20 H    0.969
    11   8 O    2.291 --     9 C    1.061     6 C    1.045
    12   1 H    1.033 --     1 C    0.976
    13   1 H    1.023 --     1 C    0.985
    14   1 H    1.033 --     1 C    0.978
    15   1 H    1.017 --     4 C    0.987
    16   1 H    1.016 --     4 C    0.987
    17   1 H    1.013 --     4 C    0.990
    18   1 H    1.002 --    10 C    0.971
    19   1 H    1.002 --    10 C    0.985
    20   1 H    1.002 --    10 C    0.969
 ---------------------------------------------------------------------------

           -------------------------------------------------
          | TOTAL ENERGY              -38.344502485581 Eh   |
          | GRADIENT NORM               0.000914428416 Eh/α |
          | HOMO-LUMO GAP               3.290877376686 eV   |
           -------------------------------------------------

 * finished run on 2023/06/20 at 14:52:34.590
