   * xtb version 6.5.1 (579679a) compiled by 'ehlert@majestix' on 2022-07-11
          program call               : /lustre/hpc/kemi/ree/PhD/git/ReactivityQM/dep/xtb-6.5.1/bin/xtb --gfn 1 /lustre/hpc/kemi/ree/PhD/git/ReactivityQM/calculations/R02deprot/reac01prodE04/conf07/R02deprot_reac01prodE04_conf07_gfn1.xyz --opt --vfukui --chrg -2 --uhf 0 --alpb DMSO

   ID    Z sym.   atoms
    1    6 C      1, 3, 5, 6, 8-11, 13, 15, 18, 19, 22, 24
    2    8 O      2, 4, 14, 20, 23, 25
    3    7 N      7, 12, 16, 17, 21
    4    1 H      26-42

      * Solvation model:               ALPB
        Solvent                        DMSO
        Solvent mass                       7.8130E+01 g/mol
          :  Hamiltonian                  GFN1-xTB          :
 * total energy  :   -83.5708466 Eh     change       -0.2813749E-11 Eh
 * total energy  :   -83.5871979 Eh     change       -0.1635127E-01 Eh
 * total energy  :   -83.5928647 Eh     change       -0.5666805E-02 Eh
 * total energy  :   -83.5937770 Eh     change       -0.9123489E-03 Eh
 * total energy  :   -83.5943200 Eh     change       -0.5429396E-03 Eh
 * total energy  :   -83.5945715 Eh     change       -0.2515456E-03 Eh
 * total energy  :   -83.5947703 Eh     change       -0.1987719E-03 Eh
 * total energy  :   -83.5949610 Eh     change       -0.1906830E-03 Eh
 * total energy  :   -83.5951468 Eh     change       -0.1857880E-03 Eh
 * total energy  :   -83.5953238 Eh     change       -0.1770666E-03 Eh
 * total energy  :   -83.6004713 Eh     change       -0.1347366E-04 Eh
 * total energy  :   -83.6004709 Eh     change        0.4435381E-06 Eh
 * total energy  :   -83.6004820 Eh     change       -0.1109267E-04 Eh
 * total energy  :   -83.6004900 Eh     change       -0.8042377E-05 Eh
 * total energy  :   -83.6004956 Eh     change       -0.5584307E-05 Eh
 * total energy  :   -83.6005079 Eh     change       -0.1231139E-04 Eh
 * total energy  :   -83.6005142 Eh     change       -0.6232042E-05 Eh
 * total energy  :   -83.6005198 Eh     change       -0.5605801E-05 Eh
 * total energy  :   -83.6005232 Eh     change       -0.3446245E-05 Eh
   *** GEOMETRY OPTIMIZATION CONVERGED AFTER 61 ITERATIONS ***

 final structure:
================
42
 xtb: 6.5.1 (579679a)
C           -5.08862261066453        1.86461470950511       -1.25689207282823
O           -4.54415370061330        1.14170576407193       -0.16173135715271
C           -3.32949978775395        0.55663189200474       -0.37361525422437
O           -2.78717748967175        0.62031405874784       -1.46792006270889
C           -2.69461070193391        0.02545859409645        0.92253180711180
C           -3.75010552258654       -0.59417361797231        1.85475786253504
N           -1.68048361235298       -0.96047596350176        0.60336693311241
C           -0.44766602122458       -0.52588988248012        0.47299105438970
C            0.53183699688941       -1.61468879218425       -0.00394708496153
C            0.01030938733433       -2.21569652730565       -1.31771198369520
C            0.63165868450230       -2.69989716298229        1.07962785351937
N            1.83136408601831       -0.98594515664951       -0.21171611574777
C            2.93399156098823       -1.62033710487269       -0.64947829034697
O            2.98772327478027       -2.82767041282904       -0.93820085594378
C            4.11222843938249       -0.75769859080695       -0.78073926925072
N            5.31144850165279       -1.10849983786682       -1.19734196929123
N            6.08406455803198        0.01932609133681       -1.16161220811519
C            5.33122105609529        0.98136374381145       -0.73267508962268
C            5.71835543821088        2.39601917737339       -0.51922659540499
O            4.07293621659596        0.57315720226984       -0.47023792846858
N            0.08403292249464        0.66340085058110        0.70941384068329
C           -0.74937313898242        1.62910574542355        1.28970414054207
O           -0.27872687251177        2.73608030787454        1.70644008653867
C           -2.09428771246614        1.29395470767177        1.44342882339561
O           -2.95877790467301        2.21802889487808        2.06832852152657
H           -6.05287976852446        2.25775494513404       -0.93499141435567
H           -5.23068797441055        1.20790944127813       -2.12258251974432
H           -4.43068324986128        2.69169056819705       -1.54720608346055
H           -3.26147009867385       -0.95398588107312        2.76002318759058
H           -4.50289010159775        0.14356286024777        2.12873739145531
H           -4.23686659861998       -1.43591543943627        1.36210362010005
H           -1.01641677711053       -2.54951670460138       -1.16407578743929
H            0.61679830269177       -3.06358699840653       -1.63434385775270
H            0.01861089827932       -1.45956130867118       -2.10355584308633
H            1.06085699057490       -2.28062719452618        1.99002059346611
H           -0.36994906704119       -3.06917705783392        1.30110925245141
H            1.25210445993316       -3.53204218154897        0.74754411340671
H            1.86627879003093        0.00258890756690        0.04559809363221
H            5.07525195785376        3.05723641171103       -1.10007961605415
H            5.61569433578046        2.66171719641579        0.53316832236675
H            6.75163099068216        2.53703356846821       -0.82531447264256
H           -2.39306813754227        2.97673017686438        2.29474023448061

          :  Hamiltonian                  GFN1-xTB          :
         :: total energy             -83.600523207464 Eh    ::
         :: gradient norm              0.000875237752 Eh/a0 ::
         :: HOMO-LUMO gap              0.093149365880 eV    ::
         :: SCC energy               -84.323812871690 Eh    ::
         :: -> Gsolv                  -0.272733395734 Eh    ::
         :: repulsion energy           0.749559266142 Eh    ::

    * Orbital Energies and Occupations

         #    Occupation            Energy/Eh            Energy/eV
      -------------------------------------------------------------
         1        2.0000           -0.8247319             -22.4421
       ...           ...                  ...                  ...
        56        2.0000           -0.4367071             -11.8834
        57        2.0000           -0.4299629             -11.6999
        58        2.0000           -0.4225398             -11.4979
        59        2.0000           -0.4212778             -11.4636
        60        2.0000           -0.4167219             -11.3396
        61        2.0000           -0.4074243             -11.0866
        62        2.0000           -0.4018932             -10.9361
        63        2.0000           -0.3919392             -10.6652
        64        2.0000           -0.3817501             -10.3880
        65        2.0000           -0.3481919              -9.4748
        66        2.0000           -0.3234185              -8.8007
        67        2.0000           -0.3206706              -8.7259
        68        1.7167           -0.2757700              -7.5041 (HOMO)
        69        0.2833           -0.2723468              -7.4109 (LUMO)
        70                         -0.2260715              -6.1517
        71                         -0.2087413              -5.6801
        72                         -0.1677595              -4.5650
        73                         -0.1537231              -4.1830
        74                         -0.1295926              -3.5264
        75                         -0.1178674              -3.2073
        76                         -0.0936245              -2.5477
        77                         -0.0889948              -2.4217
        78                         -0.0856798              -2.3315
        79                         -0.0788115              -2.1446
       ...                                ...                  ...
       134                          0.7116841              19.3659
      -------------------------------------------------------------
                  HL-Gap            0.0034232 Eh            0.0931 eV

Wiberg/Mayer (AO) data.
largest (>0.10) Wiberg bond orders for each atom

     #   Z sym  total        # sym  WBO       # sym  WBO       # sym  WBO
 ---------------------------------------------------------------------------
     1   6 C    3.902 --    26 H    0.987    27 H    0.981    28 H    0.981
                             2 O    0.925
     2   8 O    2.145 --     3 C    1.032     1 C    0.925     4 O    0.105
     3   6 C    3.767 --     4 O    1.603     2 O    1.032     5 C    0.910
                            24 C    0.113
     4   8 O    1.861 --     3 C    1.603     2 O    0.105
     5   6 C    3.973 --     7 N    0.995     6 C    0.978    24 C    0.963
                             3 C    0.910
     6   6 C    3.985 --    31 H    0.988    29 H    0.987    30 H    0.986
                             5 C    0.978
     7   7 N    2.863 --     8 C    1.491     5 C    0.995    21 N    0.172
     8   6 C    3.958 --     7 N    1.491    21 N    1.397     9 C    0.952
     9   6 C    3.926 --    10 C    0.988    11 C    0.984     8 C    0.952
                            12 N    0.928
    10   6 C    3.994 --     9 C    0.988    34 H    0.987    33 H    0.985
                            32 H    0.984
    11   6 C    3.993 --    35 H    0.987    36 H    0.985    37 H    0.985
                             9 C    0.984
    12   7 N    3.319 --    13 C    1.261     9 C    0.928    38 H    0.873
                            14 O    0.163
    13   6 C    3.853 --    14 O    1.476    12 N    1.261    15 C    1.044
    14   8 O    1.763 --    13 C    1.476    12 N    0.163
    15   6 C    3.750 --    16 N    1.516    13 C    1.044    20 O    1.009
    16   7 N    2.852 --    15 C    1.516    17 N    1.188
    17   7 N    2.979 --    18 C    1.624    16 N    1.188
    18   6 C    3.841 --    17 N    1.624    20 O    1.060    19 C    1.027
    19   6 C    3.992 --    18 C    1.027    41 H    0.985    39 H    0.969
                            40 H    0.967
    20   8 O    2.244 --    18 C    1.060    15 C    1.009
    21   7 N    2.901 --     8 C    1.397    22 C    1.085     7 N    0.172
    22   6 C    3.913 --    23 O    1.361    24 C    1.342    21 N    1.085
    23   8 O    1.658 --    22 C    1.361    24 C    0.103
    24   6 C    3.613 --    22 C    1.342     5 C    0.963    25 O    0.954
                             3 C    0.113    23 O    0.103
    25   8 O    1.899 --    24 C    0.954    42 H    0.853
    26   1 H    1.016 --     1 C    0.987
    27   1 H    1.016 --     1 C    0.981
    28   1 H    1.013 --     1 C    0.981
    29   1 H    1.017 --     6 C    0.987
    30   1 H    1.018 --     6 C    0.986
    31   1 H    1.013 --     6 C    0.988
    32   1 H    1.030 --    10 C    0.984
    33   1 H    1.018 --    10 C    0.985
    34   1 H    1.010 --    10 C    0.987
    35   1 H    1.009 --    11 C    0.987
    36   1 H    1.023 --    11 C    0.985
    37   1 H    1.017 --    11 C    0.985
    38   1 H    0.991 --    12 N    0.873
    39   1 H    0.999 --    19 C    0.969
    40   1 H    0.999 --    19 C    0.967
    41   1 H    1.003 --    19 C    0.985
    42   1 H    0.905 --    25 O    0.853
 ---------------------------------------------------------------------------

           -------------------------------------------------
          | TOTAL ENERGY              -83.600523207464 Eh   |
          | GRADIENT NORM               0.000875237752 Eh/α |
          | HOMO-LUMO GAP               0.093149365880 eV   |
           -------------------------------------------------

 * finished run on 2023/06/20 at 17:36:58.490
