   * xtb version 6.5.1 (579679a) compiled by 'ehlert@majestix' on 2022-07-11
          program call               : /lustre/hpc/kemi/ree/PhD/git/ReactivityQM/dep/xtb-6.5.1/bin/xtb --gfn 1 /lustre/hpc/kemi/ree/PhD/git/ReactivityQM/calculations/RaltegravirCLI/reac02prodN06/conf04/RaltegravirCLI_reac02prodN06_conf04_gfn1.xyz --opt --vfukui --chrg 1 --uhf 0 --alpb DMSO

   ID    Z sym.   atoms
    1    6 C      1, 3, 5, 7-9, 12-16, 18, 19, 21-24
    2    7 N      2, 11, 20, 25
    3    8 O      4, 6, 10
    4    9 F      17
    5    1 H      26-47

      * Solvation model:               ALPB
        Solvent                        DMSO
        Solvent mass                       7.8130E+01 g/mol
          :  Hamiltonian                  GFN1-xTB          :
 * total energy  :   -79.4663241 Eh     change       -0.9984547E-09 Eh
 * total energy  :   -79.4804469 Eh     change       -0.1412284E-01 Eh
 * total energy  :   -79.4857515 Eh     change       -0.5304602E-02 Eh
 * total energy  :   -79.4868130 Eh     change       -0.1061513E-02 Eh
 * total energy  :   -79.4876044 Eh     change       -0.7913738E-03 Eh
 * total energy  :   -79.4878094 Eh     change       -0.2049788E-03 Eh
 * total energy  :   -79.4879802 Eh     change       -0.1708440E-03 Eh
 * total energy  :   -79.4881138 Eh     change       -0.1335598E-03 Eh
 * total energy  :   -79.4882476 Eh     change       -0.1338337E-03 Eh
 * total energy  :   -79.4884108 Eh     change       -0.1631479E-03 Eh
 * total energy  :   -79.4932306 Eh     change       -0.1190404E-04 Eh
 * total energy  :   -79.4932408 Eh     change       -0.1023082E-04 Eh
 * total energy  :   -79.4932510 Eh     change       -0.1016836E-04 Eh
 * total energy  :   -79.4932615 Eh     change       -0.1052613E-04 Eh
 * total energy  :   -79.4932728 Eh     change       -0.1128792E-04 Eh
 * total energy  :   -79.4932843 Eh     change       -0.1148844E-04 Eh
 * total energy  :   -79.4932951 Eh     change       -0.1078221E-04 Eh
 * total energy  :   -79.4933041 Eh     change       -0.9034573E-05 Eh
 * total energy  :   -79.4933068 Eh     change       -0.2641930E-05 Eh
   *** GEOMETRY OPTIMIZATION CONVERGED AFTER 94 ITERATIONS ***

 final structure:
================
47
 xtb: 6.5.1 (579679a)
C           -3.87200220985414       -1.60712024165131       -0.82712229242940
N           -2.70094767234674       -0.73426610806312       -0.95888504580152
C           -1.78781901582074       -1.13385439453541       -1.89187798178155
O           -1.91832610168446       -2.08625329143978       -2.64248600473986
C           -0.55591487076738       -0.32218175143396       -1.95747701411228
O            0.33275945686398       -0.66940858628673       -2.83164970631153
C           -0.29029937598173        0.65714392091193       -0.95202884155677
C            0.69638240517073        1.78280422489960       -1.22010814975483
C            0.43601021658498       -0.47282845423493        0.09254060172211
O           -0.19633735486981       -0.84125365567424        1.03535152612012
N            1.65992001711383       -0.75615342252907       -0.28386373919097
C            2.52290805230238       -1.60907976113600        0.54710780350658
C            3.88090748655113       -0.97889776661778        0.73468118913926
C            4.02320202288251        0.40276623300311        0.83585754324307
C            5.27515240244043        0.97026197704766        1.02349233288793
C            6.37021538252942        0.12967489190539        1.11547330419984
F            7.58181593216974        0.66911074928984        1.29727697184541
C            6.26237651980725       -1.24684545517278        1.02335266393872
C            5.00454369209580       -1.79800325539501        0.82827768250904
N           -1.42126723447778        1.10060066761608       -0.24996176178919
C           -2.51717863006555        0.43072851124156       -0.21667040098239
C           -3.59906238682619        0.97709611872814        0.70452772166994
C           -3.65782213814160        0.09895804507874        1.96330476333189
C           -3.23837810001304        2.41699191249585        1.10528394681933
N           -4.89267475687956        0.96274907692974        0.03268452133275
H           -3.68687210322337       -2.33031388861062       -0.03315185532296
H           -4.01120080502513       -2.13087636316063       -1.77182557228105
H           -4.74804298098170       -1.00518440630431       -0.59495479022504
H            0.03248413232418       -1.43816141045948       -3.36833707592674
H            1.11137837698082        2.14722897917414       -0.28280157909042
H            0.15578647801259        2.59601665331459       -1.70301713450202
H            1.49752137399706        1.45101736594356       -1.87507010354952
H            2.01915317791970       -0.47922430540841       -1.18295709151315
H            2.01709220919690       -1.74994528013946        1.50704052564922
H            2.61144996025828       -2.57983474254778        0.05155824452325
H            3.15174422096886        1.04092780310961        0.75763266788335
H            5.39803511257876        2.04286824468944        1.09619090219064
H            7.14276068199924       -1.87220840018859        1.09642286381742
H            4.89696838198376       -2.87291563087034        0.74622306440604
H           -4.04220269056342       -0.89163935583695        1.73129246789087
H           -4.31529982135759        0.56426054692362        2.69615702042248
H           -2.66050637251679        0.00113763881634        2.39092910020531
H           -4.04607432241513        2.83169545389008        1.70575612657419
H           -2.31683387963227        2.43282444889661        1.68488232227909
H           -3.10502666448942        3.03188566790734        0.21722985929730
H           -5.60985458209901        1.23302176891753        0.69203894018033
H           -4.89062162270376        1.63467902697056       -0.72221253673430

          :  Hamiltonian                  GFN1-xTB          :
         :: total energy             -79.493306752445 Eh    ::
         :: gradient norm              0.000223779912 Eh/a0 ::
         :: HOMO-LUMO gap              0.646656792679 eV    ::
         :: SCC energy               -80.395038495727 Eh    ::
         :: -> Gsolv                  -0.102894096880 Eh    ::
         :: repulsion energy           0.933437331556 Eh    ::

    * Orbital Energies and Occupations

         #    Occupation            Energy/Eh            Energy/eV
      -------------------------------------------------------------
         1        2.0000           -0.8962175             -24.3873
       ...           ...                  ...                  ...
        55        2.0000           -0.5160158             -14.0415
        56        2.0000           -0.5151791             -14.0187
        57        2.0000           -0.5132269             -13.9656
        58        2.0000           -0.5094557             -13.8630
        59        2.0000           -0.5000383             -13.6067
        60        2.0000           -0.4953160             -13.4782
        61        2.0000           -0.4911867             -13.3659
        62        2.0000           -0.4857848             -13.2189
        63        2.0000           -0.4783034             -13.0153
        64        2.0000           -0.4744735             -12.9111
        65        2.0000           -0.4646988             -12.6451
        66        2.0000           -0.4498703             -12.2416
        67        2.0000           -0.4272184             -11.6252 (HOMO)
        68        0.0000           -0.4034542             -10.9785 (LUMO)
        69                         -0.3200096              -8.7079
        70                         -0.2915311              -7.9330
        71                         -0.2864854              -7.7957
        72                         -0.2804041              -7.6302
        73                         -0.2542271              -6.9179
        74                         -0.1620443              -4.4095
        75                         -0.1591518              -4.3307
        76                         -0.1503463              -4.0911
        77                         -0.1445210              -3.9326
        78                         -0.1429649              -3.8903
       ...                                ...                  ...
       144                          0.7444004              20.2562
      -------------------------------------------------------------
                  HL-Gap            0.0237642 Eh            0.6467 eV

Wiberg/Mayer (AO) data.
largest (>0.10) Wiberg bond orders for each atom

     #   Z sym  total        # sym  WBO       # sym  WBO       # sym  WBO
 ---------------------------------------------------------------------------
     1   6 C    3.896 --    27 H    0.974    26 H    0.968    28 H    0.957
                             2 N    0.915
     2   7 N    3.534 --     3 C    1.195    21 C    1.101     1 C    0.915
                             4 O    0.164
     3   6 C    3.928 --     4 O    1.588     2 N    1.195     5 C    1.009
     4   8 O    1.946 --     3 C    1.588     2 N    0.164
     5   6 C    3.844 --     6 O    1.269     7 C    1.148     3 C    1.009
                             9 C    0.112
     6   8 O    2.221 --     5 C    1.269    29 H    0.754
     7   6 C    3.959 --     5 C    1.148    20 N    1.062     8 C    0.977
                             9 C    0.597
     8   6 C    3.976 --    32 H    0.981    30 H    0.979     7 C    0.977
                            31 H    0.968
     9   6 C    3.905 --    10 O    1.698    11 N    1.374     7 C    0.597
                             5 C    0.112
    10   8 O    2.082 --     9 C    1.698    11 N    0.182
    11   7 N    3.405 --     9 C    1.374    12 C    0.895    33 H    0.882
                            10 O    0.182
    12   6 C    3.907 --    13 C    1.001    35 H    0.963    34 H    0.962
                            11 N    0.895
    13   6 C    3.986 --    14 C    1.416    19 C    1.413    12 C    1.001
    14   6 C    3.994 --    15 C    1.444    13 C    1.416    36 H    0.970
                            18 C    0.110
    15   6 C    3.991 --    14 C    1.444    16 C    1.399    37 H    0.968
                            19 C    0.110
    16   6 C    3.864 --    15 C    1.399    18 C    1.397    17 F    0.935
    17   9 F    1.065 --    16 C    0.935
    18   6 C    3.991 --    19 C    1.447    16 C    1.397    38 H    0.968
                            14 C    0.110
    19   6 C    3.992 --    18 C    1.447    13 C    1.413    39 H    0.970
                            15 C    0.110
    20   7 N    3.033 --    21 C    1.658     7 C    1.062
    21   6 C    3.903 --    20 N    1.658     2 N    1.101    22 C    0.975
    22   6 C    3.961 --    24 C    0.988    25 N    0.985    23 C    0.976
                            21 C    0.975
    23   6 C    3.991 --    42 H    0.984    40 H    0.982    41 H    0.981
                            22 C    0.976
    24   6 C    3.992 --    22 C    0.988    43 H    0.984    45 H    0.984
                            44 H    0.983
    25   7 N    3.002 --    22 C    0.985    47 H    0.937    46 H    0.933
    26   1 H    0.999 --     1 C    0.968
    27   1 H    1.002 --     1 C    0.974
    28   1 H    1.024 --     1 C    0.957
    29   1 H    0.801 --     6 O    0.754
    30   1 H    0.999 --     8 C    0.979
    31   1 H    0.996 --     8 C    0.968
    32   1 H    0.996 --     8 C    0.981
    33   1 H    0.931 --    11 N    0.882
    34   1 H    1.001 --    12 C    0.962
    35   1 H    0.998 --    12 C    0.963
    36   1 H    1.002 --    14 C    0.970
    37   1 H    0.996 --    15 C    0.968
    38   1 H    0.996 --    18 C    0.968
    39   1 H    0.996 --    19 C    0.970
    40   1 H    1.002 --    23 C    0.982
    41   1 H    0.998 --    23 C    0.981
    42   1 H    1.005 --    23 C    0.984
    43   1 H    1.002 --    24 C    0.984
    44   1 H    1.009 --    24 C    0.983
    45   1 H    1.006 --    24 C    0.984
    46   1 H    0.948 --    25 N    0.933
    47   1 H    0.951 --    25 N    0.937
 ---------------------------------------------------------------------------

           -------------------------------------------------
          | TOTAL ENERGY              -79.493306752445 Eh   |
          | GRADIENT NORM               0.000223779912 Eh/α |
          | HOMO-LUMO GAP               0.646656792679 eV   |
           -------------------------------------------------

 * finished run on 2023/06/20 at 15:23:10.381
