                         Program Version 5.0.1 -  RELEASE  -
|  1> # ORCA input file
|  2> ! SP r2SCAN-3c CPCM
|  3>
|  4> %maxcore 1875.0
|  5> %pal nprocs 4 end
|  6> %cpcm smd true SMDsolvent "DMSO" end
|  7>
|  8> *xyz 0 1
|  9> C      -4.253838   -1.753548    0.133331
| 10> N      -2.803945   -1.644516   -0.056835
| 11> C      -2.164408   -0.497911   -0.442087
| 12> C      -2.898143    0.814548   -0.694448
| 13> C      -1.930108    1.822658   -1.334516
| 14> C      -3.404622    1.380640    0.639940
| 15> N      -4.031467    0.599984   -1.592327
| 16> N      -0.872094   -0.455796   -0.565547
| 17> C      -0.111113   -1.562869   -0.325930
| 18> C       1.356502   -1.423868   -0.484659
| 19> O       2.128461   -2.366665   -0.279780
| 20> N       1.763208   -0.207597   -0.871118
| 21> C       3.172387    0.117881   -1.044705
| 22> C       3.757257    0.689951    0.229554
| 23> C       3.981696   -0.142072    1.325543
| 24> C       4.516500    0.367500    2.499447
| 25> C       4.818618    1.716925    2.551464
| 26> F       5.339032    2.217413    3.684289
| 27> C       4.607185    2.570617    1.484782
| 28> C       4.069412    2.043651    0.317774
| 29> C      -0.679073   -2.748070    0.059555
| 30> O       0.025166   -3.860642    0.307484
| 31> C      -2.122602   -2.828916    0.231967
| 32> O      -2.735721   -3.823689    0.601005
| 33> H      -4.580640   -2.713516   -0.268726
| 34> H      -4.763043   -0.949837   -0.388317
| 35> H      -4.479638   -1.719964    1.199890
| 36> H      -1.522407    1.416381   -2.258453
| 37> H      -1.106952    2.046914   -0.658145
| 38> H      -2.465892    2.743208   -1.559546
| 39> H      -4.146656    0.724291    1.090517
| 40> H      -3.861203    2.354709    0.470339
| 41> H      -2.571418    1.499809    1.331870
| 42> H      -3.688052    0.360141   -2.512688
| 43> H      -4.545887    1.465596   -1.674640
| 44> H       1.075736    0.524792   -0.968521
| 45> H       3.694629   -0.804759   -1.319027
| 46> H       3.255510    0.835943   -1.863199
| 47> H       3.740181   -1.196598    1.257522
| 48> H       4.700348   -0.266528    3.357241
| 49> H       4.855471    3.620688    1.565307
| 50> H       3.896793    2.695407   -0.530401
| 51> H       0.984833   -3.662286    0.164996
| 52> **                         ****END OF INPUT****

CARTESIAN COORDINATES (ANGSTROEM)
---------------------------------
  C     -4.253838   -1.753548    0.133331
  N     -2.803945   -1.644516   -0.056835
  C     -2.164408   -0.497911   -0.442087
  C     -2.898143    0.814548   -0.694448
  C     -1.930108    1.822658   -1.334516
  C     -3.404622    1.380640    0.639940
  N     -4.031467    0.599984   -1.592327
  N     -0.872094   -0.455796   -0.565547
  C     -0.111113   -1.562869   -0.325930
  C      1.356502   -1.423868   -0.484659
  O      2.128461   -2.366665   -0.279780
  N      1.763208   -0.207597   -0.871118
  C      3.172387    0.117881   -1.044705
  C      3.757257    0.689951    0.229554
  C      3.981696   -0.142072    1.325543
  C      4.516500    0.367500    2.499447
  C      4.818618    1.716925    2.551464
  F      5.339032    2.217413    3.684289
  C      4.607185    2.570617    1.484782
  C      4.069412    2.043651    0.317774
  C     -0.679073   -2.748070    0.059555
  O      0.025166   -3.860642    0.307484
  C     -2.122602   -2.828916    0.231967
  O     -2.735721   -3.823689    0.601005
  H     -4.580640   -2.713516   -0.268726
  H     -4.763043   -0.949837   -0.388317
  H     -4.479638   -1.719964    1.199890
  H     -1.522407    1.416381   -2.258453
  H     -1.106952    2.046914   -0.658145
  H     -2.465892    2.743208   -1.559546
  H     -4.146656    0.724291    1.090517
  H     -3.861203    2.354709    0.470339
  H     -2.571418    1.499809    1.331870
  H     -3.688052    0.360141   -2.512688
  H     -4.545887    1.465596   -1.674640
  H      1.075736    0.524792   -0.968521
  H      3.694629   -0.804759   -1.319027
  H      3.255510    0.835943   -1.863199
  H      3.740181   -1.196598    1.257522
  H      4.700348   -0.266528    3.357241
  H      4.855471    3.620688    1.565307
  H      3.896793    2.695407   -0.530401
  H      0.984833   -3.662286    0.164996

 Total Charge           Charge          ....    0
 Multiplicity           Mult            ....    1
 Number of Electrons    NEL             ....  176
 Basis Dimension        Dim             ....  591

ORBITAL ENERGIES
----------------

  NO   OCC          E(Eh)            E(eV)
   0   2.0000     -24.502840      -666.7562
   1   2.0000     -18.984638      -516.5983
   2   2.0000     -18.935400      -515.2584
   3   2.0000     -18.923532      -514.9355
   4   2.0000     -14.232675      -387.2908
   5   2.0000     -14.191491      -386.1701
   6   2.0000     -14.160636      -385.3305
   7   2.0000     -14.135945      -384.6586
   8   2.0000     -10.140046      -275.9247
   9   2.0000     -10.138682      -275.8876
  10   2.0000     -10.119656      -275.3698
  11   2.0000     -10.116997      -275.2975
  12   2.0000     -10.111164      -275.1388
  13   2.0000     -10.080886      -274.3148
  14   2.0000     -10.079191      -274.2687
  15   2.0000     -10.070164      -274.0231
  16   2.0000     -10.048504      -273.4337
  17   2.0000     -10.045963      -273.3646
  18   2.0000     -10.042506      -273.2705
  19   2.0000     -10.041551      -273.2445
  20   2.0000     -10.041132      -273.2331
  21   2.0000     -10.041062      -273.2312
  22   2.0000     -10.018104      -272.6065
  23   2.0000     -10.009107      -272.3617
  24   2.0000      -1.194074       -32.4924
  25   2.0000      -1.043834       -28.4042
  26   2.0000      -1.017322       -27.6827
  27   2.0000      -1.008808       -27.4510
  28   2.0000      -0.959309       -26.1041
  29   2.0000      -0.903946       -24.5976
  30   2.0000      -0.877974       -23.8909
  31   2.0000      -0.864139       -23.5144
  32   2.0000      -0.835065       -22.7233
  33   2.0000      -0.762687       -20.7538
  34   2.0000      -0.741791       -20.1852
  35   2.0000      -0.727675       -19.8011
  36   2.0000      -0.714252       -19.4358
  37   2.0000      -0.700812       -19.0701
  38   2.0000      -0.664714       -18.0878
  39   2.0000      -0.653709       -17.7883
  40   2.0000      -0.630996       -17.1703
  41   2.0000      -0.622434       -16.9373
  42   2.0000      -0.595653       -16.2085
  43   2.0000      -0.576553       -15.6888
  44   2.0000      -0.555958       -15.1284
  45   2.0000      -0.555542       -15.1171
  46   2.0000      -0.528962       -14.3938
  47   2.0000      -0.516666       -14.0592
  48   2.0000      -0.515676       -14.0323
  49   2.0000      -0.492543       -13.4028
  50   2.0000      -0.467212       -12.7135
  51   2.0000      -0.463886       -12.6230
  52   2.0000      -0.457264       -12.4428
  53   2.0000      -0.453560       -12.3420
  54   2.0000      -0.441389       -12.0108
  55   2.0000      -0.436265       -11.8714
  56   2.0000      -0.434953       -11.8357
  57   2.0000      -0.421869       -11.4796
  58   2.0000      -0.418117       -11.3775
  59   2.0000      -0.410097       -11.1593
  60   2.0000      -0.404972       -11.0198
  61   2.0000      -0.401664       -10.9298
  62   2.0000      -0.398210       -10.8358
  63   2.0000      -0.390477       -10.6254
  64   2.0000      -0.379291       -10.3210
  65   2.0000      -0.376858       -10.2548
  66   2.0000      -0.372419       -10.1340
  67   2.0000      -0.363001        -9.8778
  68   2.0000      -0.355868        -9.6837
  69   2.0000      -0.352153        -9.5826
  70   2.0000      -0.347530        -9.4568
  71   2.0000      -0.347092        -9.4448
  72   2.0000      -0.341380        -9.2894
  73   2.0000      -0.338748        -9.2178
  74   2.0000      -0.335146        -9.1198
  75   2.0000      -0.332374        -9.0444
  76   2.0000      -0.325785        -8.8651
  77   2.0000      -0.312192        -8.4952
  78   2.0000      -0.310747        -8.4559
  79   2.0000      -0.266610        -7.2548
  80   2.0000      -0.264515        -7.1978
  81   2.0000      -0.248093        -6.7510
  82   2.0000      -0.244183        -6.6446
  83   2.0000      -0.239927        -6.5287
  84   2.0000      -0.230725        -6.2783
  85   2.0000      -0.224493        -6.1088
  86   2.0000      -0.210281        -5.7220
  87   2.0000      -0.201800        -5.4913
  88   0.0000      -0.082192        -2.2366
  89   0.0000      -0.043834        -1.1928
  90   0.0000      -0.035304        -0.9607
  91   0.0000      -0.030626        -0.8334
  92   0.0000       0.021456         0.5838

MULLIKEN ATOMIC CHARGES
-----------------------
   0 C :   -0.477222
   1 N :    0.243312
   2 C :    0.043272
   3 C :    0.233522
   4 C :   -0.600139
   5 C :   -0.525623
   6 N :   -0.684841
   7 N :   -0.143220
   8 C :    0.115435
   9 C :    0.092755
  10 O :   -0.544414
  11 N :   -0.083123
  12 C :   -0.370984
  13 C :    0.107010
  14 C :   -0.169518
  15 C :   -0.321440
  16 C :    0.361203
  17 F :   -0.236368
  18 C :   -0.285818
  19 C :   -0.210755
  20 C :    0.046311
  21 O :   -0.364563
  22 C :    0.090071
  23 O :   -0.433942
  24 H :    0.186102
  25 H :    0.228184
  26 H :    0.194062
  27 H :    0.179323
  28 H :    0.176078
  29 H :    0.170885
  30 H :    0.178611
  31 H :    0.180734
  32 H :    0.184388
  33 H :    0.286347
  34 H :    0.293178
  35 H :    0.311308
  36 H :    0.205822
  37 H :    0.183636
  38 H :    0.199863
  39 H :    0.197279
  40 H :    0.196758
  41 H :    0.187850
  42 H :    0.378673
Sum of atomic charges:   -0.0000000

LOEWDIN ATOMIC CHARGES
----------------------
   0 C :   -0.097216
   1 N :   -0.629004
   2 C :    0.369573
   3 C :    0.063483
   4 C :   -0.364102
   5 C :   -0.354228
   6 N :   -0.707860
   7 N :   -0.601981
   8 C :    0.196647
   9 C :    0.369312
  10 O :   -0.533864
  11 N :   -0.585672
  12 C :    0.003377
  13 C :   -0.080239
  14 C :   -0.139263
  15 C :   -0.158045
  16 C :    0.200695
  17 F :   -0.296732
  18 C :   -0.160232
  19 C :   -0.144913
  20 C :    0.272363
  21 O :   -0.457733
  22 C :    0.377698
  23 O :   -0.468768
  24 H :    0.202461
  25 H :    0.215514
  26 H :    0.190663
  27 H :    0.170052
  28 H :    0.168061
  29 H :    0.162103
  30 H :    0.171244
  31 H :    0.170041
  32 H :    0.171891
  33 H :    0.253911
  34 H :    0.255528
  35 H :    0.298966
  36 H :    0.211182
  37 H :    0.201882
  38 H :    0.194553
  39 H :    0.194267
  40 H :    0.194214
  41 H :    0.187113
  42 H :    0.313056

  Mayer bond orders larger than 0.100000
B(  0-C ,  1-N ) :   0.8442 B(  0-C , 24-H ) :   0.9406 B(  0-C , 25-H ) :   0.9211
B(  0-C , 26-H ) :   0.9402 B(  1-N ,  2-C ) :   1.2674 B(  1-N , 22-C ) :   1.0765
B(  2-C ,  3-C ) :   0.8980 B(  2-C ,  7-N ) :   1.6676 B(  2-C , 20-C ) :   0.1086
B(  3-C ,  4-C ) :   0.9634 B(  3-C ,  5-C ) :   0.9334 B(  3-C ,  6-N ) :   0.7707
B(  3-C ,  7-N ) :  -0.1238 B(  4-C , 27-H ) :   0.9666 B(  4-C , 28-H ) :   0.9780
B(  4-C , 29-H ) :   0.9665 B(  5-C , 30-H ) :   0.9469 B(  5-C , 31-H ) :   0.9626
B(  5-C , 32-H ) :   0.9737 B(  6-N , 33-H ) :   0.9099 B(  6-N , 34-H ) :   0.9126
B(  7-N ,  8-C ) :   1.0167 B(  8-C ,  9-C ) :   0.9862 B(  8-C , 20-C ) :   1.2575
B(  9-C , 10-O ) :   1.6674 B(  9-C , 11-N ) :   1.2860 B( 10-O , 12-C ) :   0.1018
B( 10-O , 42-H ) :   0.1005 B( 11-N , 12-C ) :   0.8318 B( 11-N , 35-H ) :   0.8846
B( 12-C , 13-C ) :   0.8557 B( 12-C , 36-H ) :   0.9749 B( 12-C , 37-H ) :   0.9750
B( 13-C , 14-C ) :   1.3797 B( 13-C , 19-C ) :   1.4059 B( 14-C , 15-C ) :   1.3786
B( 14-C , 38-H ) :   0.9402 B( 15-C , 16-C ) :   1.3841 B( 15-C , 39-H ) :   0.9344
B( 16-C , 17-F ) :   0.8828 B( 16-C , 18-C ) :   1.4085 B( 18-C , 19-C ) :   1.3594
B( 18-C , 40-H ) :   0.9347 B( 19-C , 41-H ) :   0.9469 B( 20-C , 21-O ) :   1.1498
B( 20-C , 22-C ) :   1.0224 B( 21-O , 42-H ) :   0.7534 B( 22-C , 23-O ) :   1.8958

Dispersion correction           -0.019550338
FINAL SINGLE POINT ENERGY     -1165.528601022137

DIPOLE MOMENT
-------------
                                X             Y             Z
Electronic contribution:     22.45600      -8.88359       9.78469
Nuclear contribution   :    -23.41295      12.63811     -11.58826
                        -----------------------------------------
Total Dipole Moment    :     -0.95695       3.75453      -1.80357
                        -----------------------------------------
Magnitude (a.u.)       :      4.27377
Magnitude (Debye)      :     10.86306

Rotational constants in cm-1:     0.012728     0.003936     0.003450
Rotational constants in MHz :   381.589757   117.993360   103.423256

                             ****ORCA TERMINATED NORMALLY****
TOTAL RUN TIME: 0 days 0 hours 1 minutes 30 seconds 98 msec
