   * xtb version 6.5.1 (579679a) compiled by 'ehlert@majestix' on 2022-07-11
          program call               : /lustre/hpc/kemi/ree/PhD/git/ReactivityQM/dep/xtb-6.5.1/bin/xtb --gfn 1 /lustre/hpc/kemi/ree/PhD/git/ReactivityQM/calculations/RaltegravirCLI/reac02/conf04/RaltegravirCLI_reac02_conf04_gfn1.xyz --opt --vfukui --chrg 0 --uhf 0 --alpb DMSO

   ID    Z sym.   atoms
    1    6 C      1, 3-6, 9, 10, 13-17, 19-21, 23
    2    7 N      2, 7, 8, 12
    3    8 O      11, 22, 24
    4    9 F      18
    5    1 H      25-43

      * Solvation model:               ALPB
        Solvent                        DMSO
        Solvent mass                       7.8130E+01 g/mol
          :  Hamiltonian                  GFN1-xTB          :
 * total energy  :   -76.1768039 Eh     change       -0.7503331E-11 Eh
 * total energy  :   -76.1833796 Eh     change       -0.6575720E-02 Eh
 * total energy  :   -76.1851242 Eh     change       -0.1744642E-02 Eh
 * total energy  :   -76.1854431 Eh     change       -0.3188957E-03 Eh
 * total energy  :   -76.1857974 Eh     change       -0.3542515E-03 Eh
 * total energy  :   -76.1859324 Eh     change       -0.1350145E-03 Eh
 * total energy  :   -76.1860300 Eh     change       -0.9757584E-04 Eh
 * total energy  :   -76.1860769 Eh     change       -0.4693683E-04 Eh
 * total energy  :   -76.1861105 Eh     change       -0.3355249E-04 Eh
 * total energy  :   -76.1861486 Eh     change       -0.3810424E-04 Eh
 * total energy  :   -76.1862953 Eh     change       -0.3382342E-04 Eh
 * total energy  :   -76.1863113 Eh     change       -0.1594644E-04 Eh
 * total energy  :   -76.1863454 Eh     change       -0.3411852E-04 Eh
 * total energy  :   -76.1863547 Eh     change       -0.9340055E-05 Eh
 * total energy  :   -76.1863756 Eh     change       -0.2088288E-04 Eh
 * total energy  :   -76.1863566 Eh     change        0.1905921E-04 Eh
 * total energy  :   -76.1863788 Eh     change       -0.2222880E-04 Eh
 * total energy  :   -76.1863870 Eh     change       -0.8193577E-05 Eh
 * total energy  :   -76.1863900 Eh     change       -0.2965354E-05 Eh
   *** GEOMETRY OPTIMIZATION CONVERGED AFTER 22 ITERATIONS ***

 final structure:
================
43
 xtb: 6.5.1 (579679a)
C           -4.25383800821614       -1.75354757525250        0.13333106373946
N           -2.80394527725950       -1.64451639399114       -0.05683451945085
C           -2.16440761093216       -0.49791139205290       -0.44208693827651
C           -2.89814344068346        0.81454819768766       -0.69444760034475
C           -1.93010757318527        1.82265847266442       -1.33451643031125
C           -3.40462192073803        1.38063982385715        0.63994038454958
N           -4.03146687006804        0.59998424119466       -1.59232713021105
N           -0.87209356016285       -0.45579587434269       -0.56554726369729
C           -0.11111320782754       -1.56286888032469       -0.32593032649319
C            1.35650215659780       -1.42386836727327       -0.48465908843380
O            2.12846072816547       -2.36666513572165       -0.27977971033990
N            1.76320793932905       -0.20759650869380       -0.87111791300868
C            3.17238705603705        0.11788074154979       -1.04470515814926
C            3.75725673267047        0.68995056213988        0.22955386073954
C            3.98169572811995       -0.14207174040592        1.32554302663089
C            4.51649961998229        0.36750046952206        2.49944736246277
C            4.81861819470859        1.71692494525953        2.55146443039722
F            5.33903162989796        2.21741338233766        3.68428869753787
C            4.60718502816919        2.57061670757302        1.48478239782397
C            4.06941242751472        2.04365149254570        0.31777408631033
C           -0.67907292289813       -2.74806999605772        0.05955528931631
O            0.02516637209469       -3.86064211054898        0.30748352449723
C           -2.12260230519319       -2.82891643312850        0.23196705680632
O           -2.73572098108175       -3.82368908969555        0.60100460027228
H           -4.58063972333394       -2.71351554407068       -0.26872645647796
H           -4.76304343134928       -0.94983655435633       -0.38831726304488
H           -4.47963826278101       -1.71996351654461        1.19989000176475
H           -1.52240667294795        1.41638072695073       -2.25845346031007
H           -1.10695245451337        2.04691363334956       -0.65814532737172
H           -2.46589236604469        2.74320795336282       -1.55954617061314
H           -4.14665553119775        0.72429134513024        1.09051725472225
H           -3.86120306522310        2.35470856792977        0.47033900454793
H           -2.57141767199256        1.49980878343216        1.33187019698208
H           -3.68805219495122        0.36014134196099       -2.51268753733275
H           -4.54588734331891        1.46559574305340       -1.67464009495780
H            1.07573563305248        0.52479176451136       -0.96852110428234
H            3.69462945463741       -0.80475935358515       -1.31902728797135
H            3.25551036414834        0.83594283097280       -1.86319885583667
H            3.74018126323349       -1.19659839246678        1.25752179086964
H            4.70034803180494       -0.26652798113308        3.35724119992566
H            4.85547105279059        3.62068780198780        1.56530722519146
H            3.89679254149765        2.69540697359374       -0.53040062768917
H            0.98483344144594       -3.66228566292102        0.16499580951770

          :  Hamiltonian                  GFN1-xTB          :
         :: total energy             -76.186389955085 Eh    ::
         :: gradient norm              0.000259358326 Eh/a0 ::
         :: HOMO-LUMO gap              2.788964247914 eV    ::
         :: SCC energy               -77.029586096752 Eh    ::
         :: -> Gsolv                  -0.049781618296 Eh    ::
         :: repulsion energy           0.870790358986 Eh    ::

    * Orbital Energies and Occupations

         #    Occupation            Energy/Eh            Energy/eV
      -------------------------------------------------------------
         1        2.0000           -0.8632155             -23.4893
       ...           ...                  ...                  ...
        52        2.0000           -0.5010528             -13.6343
        53        2.0000           -0.4939633             -13.4414
        54        2.0000           -0.4857289             -13.2174
        55        2.0000           -0.4729987             -12.8710
        56        2.0000           -0.4695810             -12.7780
        57        2.0000           -0.4645116             -12.6400
        58        2.0000           -0.4506816             -12.2637
        59        2.0000           -0.4503744             -12.2553
        60        2.0000           -0.4417646             -12.0210
        61        2.0000           -0.4362225             -11.8702
        62        2.0000           -0.4302164             -11.7068
        63        2.0000           -0.4168969             -11.3443
        64        2.0000           -0.4128011             -11.2329 (HOMO)
        65                         -0.3103085              -8.4439 (LUMO)
        66                         -0.2742086              -7.4616
        67                         -0.2725808              -7.4173
        68                         -0.2663099              -7.2467
        69                         -0.2271103              -6.1800
        70                         -0.1471305              -4.0036
        71                         -0.1446416              -3.9359
        72                         -0.1337924              -3.6407
        73                         -0.1239375              -3.3725
        74                         -0.1211316              -3.2962
        75                         -0.1182711              -3.2183
       ...                                ...                  ...
       134                          0.7137739              19.4228
      -------------------------------------------------------------
                  HL-Gap            0.1024926 Eh            2.7890 eV

Wiberg/Mayer (AO) data.
largest (>0.10) Wiberg bond orders for each atom

     #   Z sym  total        # sym  WBO       # sym  WBO       # sym  WBO
 ---------------------------------------------------------------------------
     1   6 C    3.922 --    27 H    0.977    25 H    0.977    26 H    0.968
                             2 N    0.930
     2   7 N    3.509 --     3 C    1.188    23 C    1.110     1 C    0.930
                            24 O    0.133
     3   6 C    3.923 --     8 N    1.547     2 N    1.188     4 C    0.975
     4   6 C    3.965 --     5 C    0.992     6 C    0.984     7 N    0.981
                             3 C    0.975
     5   6 C    3.994 --     4 C    0.992    30 H    0.985    28 H    0.984
                            29 H    0.983
     6   6 C    3.993 --    33 H    0.986     4 C    0.984    32 H    0.983
                            31 H    0.982
     7   7 N    2.995 --     4 C    0.981    34 H    0.941    35 H    0.939
     8   7 N    3.046 --     3 C    1.547     9 C    1.193
     9   6 C    3.963 --    21 C    1.482     8 N    1.193    10 C    1.017
    10   6 C    3.906 --    11 O    1.514    12 N    1.290     9 C    1.017
    11   8 O    1.904 --    10 C    1.514    12 N    0.163
    12   7 N    3.369 --    10 C    1.290    13 C    0.938    36 H    0.894
                            11 O    0.163
    13   6 C    3.945 --    14 C    0.993    38 H    0.977    37 H    0.968
                            12 N    0.938
    14   6 C    3.987 --    20 C    1.424    15 C    1.414    13 C    0.993
    15   6 C    3.992 --    16 C    1.448    14 C    1.414    39 H    0.969
                            19 C    0.112
    16   6 C    3.992 --    15 C    1.448    17 C    1.397    40 H    0.970
                            20 C    0.110
    17   6 C    3.860 --    19 C    1.404    16 C    1.397    18 F    0.924
    18   9 F    1.052 --    17 C    0.924
    19   6 C    3.991 --    20 C    1.438    17 C    1.404    41 H    0.969
                            15 C    0.112
    20   6 C    3.994 --    19 C    1.438    14 C    1.424    42 H    0.971
                            16 C    0.110
    21   6 C    3.923 --     9 C    1.482    22 O    1.108    23 C    1.083
    22   8 O    2.071 --    21 C    1.108    43 H    0.773
    23   6 C    3.913 --    24 O    1.568     2 N    1.110    21 C    1.083
    24   8 O    1.882 --    23 C    1.568     2 N    0.133
    25   1 H    1.010 --     1 C    0.977
    26   1 H    1.029 --     1 C    0.968
    27   1 H    1.004 --     1 C    0.977
    28   1 H    1.009 --     5 C    0.984
    29   1 H    1.012 --     5 C    0.983
    30   1 H    1.003 --     5 C    0.985
    31   1 H    1.003 --     6 C    0.982
    32   1 H    1.000 --     6 C    0.983
    33   1 H    1.003 --     6 C    0.986
    34   1 H    0.956 --     7 N    0.941
    35   1 H    0.954 --     7 N    0.939
    36   1 H    0.959 --    12 N    0.894
    37   1 H    1.008 --    13 C    0.968
    38   1 H    1.002 --    13 C    0.977
    39   1 H    1.009 --    15 C    0.969
    40   1 H    0.998 --    16 C    0.970
    41   1 H    0.998 --    19 C    0.969
    42   1 H    0.999 --    20 C    0.971
    43   1 H    0.860 --    22 O    0.773
 ---------------------------------------------------------------------------

           -------------------------------------------------
          | TOTAL ENERGY              -76.186389955085 Eh   |
          | GRADIENT NORM               0.000259358326 Eh/α |
          | HOMO-LUMO GAP               2.788964247914 eV   |
           -------------------------------------------------

 * finished run on 2023/06/20 at 14:51:54.348
