   * xtb version 6.5.1 (579679a) compiled by 'ehlert@majestix' on 2022-07-11
          program call               : /lustre/hpc/kemi/ree/PhD/git/ReactivityQM/dep/xtb-6.5.1/bin/xtb --gfn 1 /lustre/hpc/kemi/ree/PhD/git/ReactivityQM/calculations/R02oxygendeprot/reac01prodN14/conf15/R02oxygendeprot_reac01prodN14_conf15_gfn1.xyz --opt --vfukui --chrg 0 --uhf 0 --alpb DMSO

   ID    Z sym.   atoms
    1    6 C      1, 3, 5, 6, 8, 9, 12-15, 17, 19, 22, 23
    2    8 O      2, 4, 7, 10, 18, 24
    3    7 N      11, 16, 20, 21, 25
    4    1 H      26-42

      * Solvation model:               ALPB
        Solvent                        DMSO
        Solvent mass                       7.8130E+01 g/mol
          :  Hamiltonian                  GFN1-xTB          :
 * total energy  :   -82.8922787 Eh     change       -0.5755396E-11 Eh
 * total energy  :   -82.9091861 Eh     change       -0.1690739E-01 Eh
 * total energy  :   -82.9198226 Eh     change       -0.1063649E-01 Eh
 * total energy  :   -82.9221714 Eh     change       -0.2348784E-02 Eh
 * total energy  :   -82.9240348 Eh     change       -0.1863385E-02 Eh
 * total energy  :   -82.9251014 Eh     change       -0.1066686E-02 Eh
 * total energy  :   -82.9261400 Eh     change       -0.1038512E-02 Eh
 * total energy  :   -82.9269858 Eh     change       -0.8458793E-03 Eh
 * total energy  :   -82.9277873 Eh     change       -0.8014246E-03 Eh
 * total energy  :   -82.9284527 Eh     change       -0.6654068E-03 Eh
 * total energy  :   -82.9785371 Eh     change       -0.8265341E-04 Eh
 * total energy  :   -82.9786013 Eh     change       -0.6417882E-04 Eh
 * total energy  :   -82.9786501 Eh     change       -0.4882318E-04 Eh
 * total energy  :   -82.9786701 Eh     change       -0.1998953E-04 Eh
 * total energy  :   -82.9786826 Eh     change       -0.1249989E-04 Eh
 * total energy  :   -82.9786933 Eh     change       -0.1071630E-04 Eh
 * total energy  :   -82.9786979 Eh     change       -0.4556589E-05 Eh
 * total energy  :   -82.9787024 Eh     change       -0.4514099E-05 Eh
 * total energy  :   -82.9787057 Eh     change       -0.3331915E-05 Eh
   *** GEOMETRY OPTIMIZATION CONVERGED AFTER 93 ITERATIONS ***

 final structure:
================
42
 xtb: 6.5.1 (579679a)
C           -2.70930562344257       -3.65323843854560        2.02826899211391
O           -2.27612229790986       -2.51053745680041        1.28876637655017
C           -3.24816448204207       -1.79657269637428        0.68901269012613
O           -4.42320843908014       -2.09532622783668        0.76602823115287
C           -2.72374540063726       -0.65126089606557       -0.03823927608506
C           -3.48002244493814        0.24457820523140       -0.76992767524828
O           -4.60973178448161        0.49371741853319       -1.06910874336478
C           -2.63935272863480        2.63642770357143       -0.92363069843799
C           -2.76103522102315        2.81176950914191        0.54541297705582
O           -2.82042528138491        3.45340529621406       -1.76934329909326
N           -2.32390772983671        1.25913936326603       -1.35125272970220
C           -1.10530591827236        0.64762769964880       -0.79438534834603
C            0.26313877499157        1.15791653357976       -1.15511796037600
C            0.47708594566061        1.04040024069276       -2.67280178920607
C            0.47817000414843        2.60391399839980       -0.68812268349795
N            1.18750814852299        0.27189717162275       -0.45219636004954
C            2.52930630197724        0.37636383191721       -0.52219842068574
O            3.14459659868177        1.20332448520193       -1.17211802628028
C            3.18102366056772       -0.66627817308980        0.31160097077578
N            2.57367183695926       -1.57167624947910        1.01771968420206
N            3.54290949282932       -2.31596025182369        1.61991487280865
C            4.68072659286551       -1.81614619229784        1.24263596453541
C            6.03655238223890       -2.26866282634538        1.62420888518443
O            4.51820715623660       -0.77269301445974        0.41587864386997
N           -1.35867600359323       -0.38002229754955       -0.09422740890935
H           -3.20552110499949       -4.36843359088269        1.36632930550082
H           -1.81770692602044       -4.10170363003869        2.46271231857738
H           -3.40320348704218       -3.35383624135941        2.81820985805836
H           -3.79509828177957        2.58847483575596        0.81723392368489
H           -2.55430898638857        3.84749258652367        0.80491224063514
H           -2.10474446137529        2.13759972498785        1.08942496518634
H           -2.35383043192735        1.23416897746612       -2.36909748397998
H           -0.24524071218039        1.66630020782611       -3.19320284656659
H            0.35077260047671        0.00637836761163       -2.98825107246358
H            1.48145237228619        1.37362256106748       -2.92834158712785
H            0.33345008937589        2.67586927830606        0.38818887644520
H           -0.22308233089277        3.26432313398725       -1.19274341129288
H            1.49132016862053        2.91831211823830       -0.93297518043239
H            0.77750589674725       -0.46000531651327        0.11685596030554
H            5.96247238308381       -3.13569793577204        2.27597748256423
H            6.56409422001993       -1.46738998205856        2.14158467340077
H            6.60777445158709       -2.52757983148188        0.73295110841272

          :  Hamiltonian                  GFN1-xTB          :
         :: total energy             -82.978705732977 Eh    ::
         :: gradient norm              0.000976496497 Eh/a0 ::
         :: HOMO-LUMO gap              2.622644751107 eV    ::
         :: SCC energy               -83.776852862164 Eh    ::
         :: -> Gsolv                  -0.057055660832 Eh    ::
         :: repulsion energy           0.824826903412 Eh    ::

    * Orbital Energies and Occupations

         #    Occupation            Energy/Eh            Energy/eV
      -------------------------------------------------------------
         1        2.0000           -0.8676935             -23.6111
       ...           ...                  ...                  ...
        55        2.0000           -0.5082411             -13.8299
        56        2.0000           -0.5077603             -13.8169
        57        2.0000           -0.5073709             -13.8063
        58        2.0000           -0.4951052             -13.4725
        59        2.0000           -0.4887798             -13.3004
        60        2.0000           -0.4842418             -13.1769
        61        2.0000           -0.4731351             -12.8747
        62        2.0000           -0.4667798             -12.7017
        63        2.0000           -0.4635433             -12.6137
        64        2.0000           -0.4631755             -12.6036
        65        2.0000           -0.4539734             -12.3532
        66        2.0000           -0.4505079             -12.2589
        67        2.0000           -0.4209224             -11.4539 (HOMO)
        68                         -0.3245420              -8.8312 (LUMO)
        69                         -0.3123409              -8.4992
        70                         -0.3062436              -8.3333
        71                         -0.2761333              -7.5140
        72                         -0.2583624              -7.0304
        73                         -0.2001729              -5.4470
        74                         -0.1695816              -4.6146
        75                         -0.1618036              -4.4029
        76                         -0.1533862              -4.1739
        77                         -0.1441814              -3.9234
        78                         -0.1432441              -3.8979
       ...                                ...                  ...
       134                          0.8493688              23.1125
      -------------------------------------------------------------
                  HL-Gap            0.0963804 Eh            2.6226 eV

Wiberg/Mayer (AO) data.
largest (>0.10) Wiberg bond orders for each atom

     #   Z sym  total        # sym  WBO       # sym  WBO       # sym  WBO
 ---------------------------------------------------------------------------
     1   6 C    3.879 --    27 H    0.986    26 H    0.980    28 H    0.980
                             2 O    0.906
     2   8 O    2.170 --     3 C    1.073     1 C    0.906     4 O    0.120
     3   6 C    3.865 --     4 O    1.614     5 C    1.083     2 O    1.073
     4   8 O    1.891 --     3 C    1.614     2 O    0.120
     5   6 C    3.883 --     6 C    1.355    25 N    1.104     3 C    1.083
                             7 O    0.140
     6   6 C    3.865 --     7 O    1.695     5 C    1.355    11 N    0.646
     7   8 O    2.042 --     6 C    1.695     5 C    0.140
     8   6 C    3.830 --    10 O    1.814     9 C    1.025    11 N    0.895
     9   6 C    3.983 --     8 C    1.025    31 H    0.972    30 H    0.968
                            29 H    0.933
    10   8 O    2.043 --     8 C    1.814
    11   7 N    3.546 --     8 C    0.895    12 C    0.879    32 H    0.867
                             6 C    0.646
    12   6 C    3.892 --    25 N    1.771    13 C    0.991    11 N    0.879
    13   6 C    3.939 --    12 C    0.991    15 C    0.978    14 C    0.973
                            16 N    0.934
    14   6 C    3.985 --    34 H    0.985    33 H    0.983    35 H    0.977
                            13 C    0.973
    15   6 C    3.986 --    36 H    0.984    37 H    0.982    13 C    0.978
                            38 H    0.976
    16   7 N    3.348 --    17 C    1.255    13 C    0.934    39 H    0.880
                            18 O    0.178
    17   6 C    3.917 --    18 O    1.591    16 N    1.255    19 C    0.989
    18   8 O    1.911 --    17 C    1.591    16 N    0.178
    19   6 C    3.875 --    20 N    1.611    24 O    1.064    17 C    0.989
    20   7 N    3.016 --    19 C    1.611    21 N    1.200
    21   7 N    2.981 --    22 C    1.605    20 N    1.200
    22   6 C    3.871 --    21 N    1.605    24 O    1.083    23 C    1.031
    23   6 C    3.986 --    22 C    1.031    40 H    0.983    42 H    0.964
                            41 H    0.963
    24   8 O    2.330 --    22 C    1.083    19 C    1.064
    25   7 N    3.076 --    12 C    1.771     5 C    1.104
    26   1 H    1.009 --     1 C    0.980
    27   1 H    1.012 --     1 C    0.986
    28   1 H    1.009 --     1 C    0.980
    29   1 H    0.990 --     9 C    0.933
    30   1 H    0.993 --     9 C    0.968
    31   1 H    0.998 --     9 C    0.972
    32   1 H    0.920 --    11 N    0.867
    33   1 H    0.998 --    14 C    0.983
    34   1 H    1.001 --    14 C    0.985
    35   1 H    1.006 --    14 C    0.977
    36   1 H    1.002 --    15 C    0.984
    37   1 H    1.002 --    15 C    0.982
    38   1 H    1.006 --    15 C    0.976
    39   1 H    0.964 --    16 N    0.880
    40   1 H    0.998 --    23 C    0.983
    41   1 H    0.997 --    23 C    0.963
    42   1 H    0.996 --    23 C    0.964
 ---------------------------------------------------------------------------

           -------------------------------------------------
          | TOTAL ENERGY              -82.978705732977 Eh   |
          | GRADIENT NORM               0.000976496497 Eh/α |
          | HOMO-LUMO GAP               2.622644751107 eV   |
           -------------------------------------------------

 * finished run on 2023/06/21 at 17:33:10.777
