   * xtb version 6.5.1 (579679a) compiled by 'ehlert@majestix' on 2022-07-11
          program call               : /lustre/hpc/kemi/ree/PhD/git/ReactivityQM/dep/xtb-6.5.1/bin/xtb --gfn 1 /lustre/hpc/kemi/ree/PhD/git/ReactivityQM/calculations/R03/reac01prodN02/conf07/R03_reac01prodN02_conf07_gfn1.xyz --opt --vfukui --chrg 1 --uhf 0 --alpb DMSO

   ID    Z sym.   atoms
    1    6 C      1-3, 5-7, 9, 10
    2    7 N      4
    3    9 F      8
    4    1 H      11-21

      * Solvation model:               ALPB
        Solvent                        DMSO
        Solvent mass                       7.8130E+01 g/mol
          :  Hamiltonian                  GFN1-xTB          :
 * total energy  :   -30.7593416 Eh     change       -0.1365308E-10 Eh
 * total energy  :   -30.7646392 Eh     change       -0.5297558E-02 Eh
 * total energy  :   -30.7668145 Eh     change       -0.2175310E-02 Eh
 * total energy  :   -30.7672885 Eh     change       -0.4740325E-03 Eh
 * total energy  :   -30.7682490 Eh     change       -0.9604938E-03 Eh
 * total energy  :   -30.7688714 Eh     change       -0.6223389E-03 Eh
 * total energy  :   -30.7697160 Eh     change       -0.8446412E-03 Eh
 * total energy  :   -30.7702047 Eh     change       -0.4886321E-03 Eh
 * total energy  :   -30.7713217 Eh     change       -0.1117010E-02 Eh
 * total energy  :   -30.7721603 Eh     change       -0.8386717E-03 Eh
 * total energy  :   -30.7790443 Eh     change       -0.2045195E-03 Eh
 * total energy  :   -30.7792720 Eh     change       -0.2277659E-03 Eh
 * total energy  :   -30.7797601 Eh     change       -0.4880566E-03 Eh
 * total energy  :   -30.7801549 Eh     change       -0.3947969E-03 Eh
 * total energy  :   -30.7804854 Eh     change       -0.3304850E-03 Eh
 * total energy  :   -30.7805690 Eh     change       -0.8360358E-04 Eh
 * total energy  :   -30.7805928 Eh     change       -0.2383944E-04 Eh
 * total energy  :   -30.7806070 Eh     change       -0.1417201E-04 Eh
 * total energy  :   -30.7806116 Eh     change       -0.4643609E-05 Eh
   *** GEOMETRY OPTIMIZATION CONVERGED AFTER 39 ITERATIONS ***

 final structure:
================
21
 xtb: 6.5.1 (579679a)
C           -0.49732431565349        2.28020350454702       -0.61622057681006
C            0.19929479378597        1.00381453269989       -0.23086803535964
C           -1.75378607161835       -0.50693985256868       -0.04484856804265
N           -1.36636928242163       -1.68535557510862        0.29584723290305
C            0.70735041871250        0.14853939329651       -1.22148125269757
C            1.43986809905199       -0.97508839462796       -0.87930884544620
C            1.67878766625953       -1.22215262744871        0.46430606418395
F            2.37321158480470       -2.30861411235608        0.80145273416361
C            1.22701291340121       -0.38188109437866        1.47114189264672
C            0.49768767141138        0.73908075534325        1.11486580595923
H            0.24780605073829        3.06538065925707       -0.76134043244377
H           -1.04769726143834        2.15842434790749       -1.54790381206849
H           -1.18290973431308        2.60201864039028        0.16616146835233
H           -2.09576926655407        0.18157593885855        0.71253054082192
H           -1.91929646057228       -0.27906143188283       -1.08731896282613
H           -1.12710875351097       -2.38214846740195       -0.39295706907287
H           -1.29448417318100       -1.95724311633557        1.26478092251269
H            0.51094420939474        0.36355854534330       -2.26504190508071
H            1.82031181700414       -1.65054341049255       -1.63405715234644
H            1.44453778764576       -0.60649690515558        2.50711533823144
H            0.13793130705368        1.41292867011285        1.88314561241890

          :  Hamiltonian                  GFN1-xTB          :
         :: total energy             -30.780611627076 Eh    ::
         :: gradient norm              0.000921307366 Eh/a0 ::
         :: HOMO-LUMO gap              2.198884014272 eV    ::
         :: SCC energy               -31.211843341066 Eh    ::
         :: -> Gsolv                  -0.098311616420 Eh    ::
         :: repulsion energy           0.442690100686 Eh    ::

    * Orbital Energies and Occupations

         #    Occupation            Energy/Eh            Energy/eV
      -------------------------------------------------------------
         1        2.0000           -0.8888634             -24.1872
       ...           ...                  ...                  ...
        15        2.0000           -0.5962639             -16.2252
        16        2.0000           -0.5840553             -15.8930
        17        2.0000           -0.5791479             -15.7594
        18        2.0000           -0.5623175             -15.3014
        19        2.0000           -0.5606088             -15.2549
        20        2.0000           -0.5554593             -15.1148
        21        2.0000           -0.5545694             -15.0906
        22        2.0000           -0.5250350             -14.2869
        23        2.0000           -0.5231984             -14.2370
        24        2.0000           -0.5137947             -13.9811
        25        2.0000           -0.4960683             -13.4987
        26        2.0000           -0.4777348             -12.9998
        27        2.0000           -0.4609343             -12.5427 (HOMO)
        28                         -0.3801268             -10.3438 (LUMO)
        29                         -0.2989196              -8.1340
        30                         -0.2901476              -7.8953
        31                         -0.1784771              -4.8566
        32                         -0.1729427              -4.7060
        33                         -0.1669989              -4.5443
        34                         -0.1527230              -4.1558
        35                         -0.1379723              -3.7544
        36                         -0.1196328              -3.2554
        37                         -0.1157810              -3.1506
        38                         -0.1133100              -3.0833
       ...                                ...                  ...
        62                          0.6156994              16.7540
      -------------------------------------------------------------
                  HL-Gap            0.0808075 Eh            2.1989 eV

Wiberg/Mayer (AO) data.
largest (>0.10) Wiberg bond orders for each atom

     #   Z sym  total        # sym  WBO       # sym  WBO       # sym  WBO
 ---------------------------------------------------------------------------
     1   6 C    3.991 --     2 C    1.025    13 H    0.980    12 H    0.980
                            11 H    0.961
     2   6 C    3.983 --    10 C    1.347     5 C    1.346     1 C    1.025
                             3 C    0.109
     3   6 C    3.871 --     4 N    1.700    14 H    0.967    15 H    0.967
                             2 C    0.109
     4   7 N    3.548 --     3 C    1.700    17 H    0.872    16 H    0.872
     5   6 C    3.991 --     6 C    1.467     2 C    1.346    18 H    0.968
     6   6 C    3.990 --     5 C    1.467     7 C    1.377    19 H    0.966
     7   6 C    3.867 --     6 C    1.377     9 C    1.376     8 F    0.949
     8   9 F    1.088 --     7 C    0.949
     9   6 C    3.990 --    10 C    1.468     7 C    1.376    20 H    0.966
    10   6 C    3.991 --     9 C    1.468     2 C    1.347    21 H    0.968
    11   1 H    0.998 --     1 C    0.961
    12   1 H    0.998 --     1 C    0.980
    13   1 H    0.998 --     1 C    0.980
    14   1 H    0.995 --     3 C    0.967
    15   1 H    0.996 --     3 C    0.967
    16   1 H    0.908 --     4 N    0.872
    17   1 H    0.907 --     4 N    0.872
    18   1 H    0.996 --     5 C    0.968
    19   1 H    0.994 --     6 C    0.966
    20   1 H    0.994 --     9 C    0.966
    21   1 H    0.996 --    10 C    0.968
 ---------------------------------------------------------------------------

           -------------------------------------------------
          | TOTAL ENERGY              -30.780611627076 Eh   |
          | GRADIENT NORM               0.000921307366 Eh/α |
          | HOMO-LUMO GAP               2.198884014272 eV   |
           -------------------------------------------------

 * finished run on 2023/06/20 at 15:14:10.331
