   * xtb version 6.5.1 (579679a) compiled by 'ehlert@majestix' on 2022-07-11
          program call               : /lustre/hpc/kemi/ree/PhD/git/ReactivityQM/dep/xtb-6.5.1/bin/xtb --gfn 1 /lustre/hpc/kemi/ree/PhD/git/ReactivityQM/calculations/RaltegravirCLI/reac02prodE09/conf17/RaltegravirCLI_reac02prodE09_conf17_gfn1.xyz --opt --vfukui --chrg -1 --uhf 0 --alpb DMSO

   ID    Z sym.   atoms
    1    6 C      1, 3-6, 9, 10, 13-18, 20-22, 24
    2    7 N      2, 7, 8, 12
    3    8 O      11, 23, 25
    4    9 F      19
    5    1 H      26-47

      * Solvation model:               ALPB
        Solvent                        DMSO
        Solvent mass                       7.8130E+01 g/mol
          :  Hamiltonian                  GFN1-xTB          :
 * total energy  :   -80.1804303 Eh     change       -0.2464162E-10 Eh
 * total energy  :   -80.1907553 Eh     change       -0.1032502E-01 Eh
 * total energy  :   -80.1948887 Eh     change       -0.4133382E-02 Eh
 * total energy  :   -80.1963929 Eh     change       -0.1504265E-02 Eh
 * total energy  :   -80.1980902 Eh     change       -0.1697254E-02 Eh
 * total energy  :   -80.1999627 Eh     change       -0.1872524E-02 Eh
 * total energy  :   -80.2027436 Eh     change       -0.2780859E-02 Eh
 * total energy  :   -80.2059179 Eh     change       -0.3174354E-02 Eh
 * total energy  :   -80.2090400 Eh     change       -0.3122083E-02 Eh
 * total energy  :   -80.2115645 Eh     change       -0.2524469E-02 Eh
 * total energy  :   -80.2259008 Eh     change       -0.9191236E-05 Eh
 * total energy  :   -80.2259128 Eh     change       -0.1203106E-04 Eh
 * total energy  :   -80.2259263 Eh     change       -0.1355145E-04 Eh
 * total energy  :   -80.2259356 Eh     change       -0.9233547E-05 Eh
 * total energy  :   -80.2259427 Eh     change       -0.7171595E-05 Eh
 * total energy  :   -80.2259506 Eh     change       -0.7818879E-05 Eh
 * total energy  :   -80.2259592 Eh     change       -0.8669686E-05 Eh
 * total energy  :   -80.2259659 Eh     change       -0.6636274E-05 Eh
 * total energy  :   -80.2259700 Eh     change       -0.4138435E-05 Eh
   *** GEOMETRY OPTIMIZATION CONVERGED AFTER 115 ITERATIONS ***

 final structure:
================
47
 xtb: 6.5.1 (579679a)
C           -4.33582137115504       -2.21239109461941       -1.21460191498425
N           -3.18233036827620       -1.50563577700490       -0.66010261325446
C           -3.25405493622778       -0.28290894106671       -0.03552120826845
C           -4.56198978431003        0.48663659500200        0.19669585433825
C           -5.42001119714228        0.64849340675847       -1.06534478042108
C           -5.35624795826346       -0.16178429913825        1.34061699001349
N           -4.21558002032319        1.83292214822546        0.63953496183515
N           -2.19534909879196        0.29925134415733        0.43446809484121
C           -0.95792100161673       -0.27185925353016        0.35292397599502
C            0.16027329132869        0.54641982943817        0.93976635158062
O            0.08189883596904        1.76274704434876        1.05183556636341
N            1.23285116374074       -0.16448698386246        1.33455008971666
C            2.40593225857483        0.47467800705682        1.90944005057438
C            3.57588744231149        0.51707075839655        0.94690975564223
C            3.48142655050178        0.05116985986755       -0.35992020118539
C            4.57663016842008        0.11151703826078       -1.20986354607739
C            5.79207063014114        0.63953020392961       -0.77790872447113
C            6.96362327750827        0.73551786434967       -1.70780196069204
F            6.77793209599623        3.42111123248433       -3.13578127997663
C            5.88275485873979        1.09957608615381        0.53627414647119
C            4.79074564360490        1.03862390440030        1.38803242451553
C           -0.81757615259642       -1.47451749635838       -0.27266191497059
O            0.36327802311111       -2.11170254147040       -0.43640386148362
C           -1.96814833607501       -2.14989701013906       -0.83509867040194
O           -1.86550867582773       -3.22848178735997       -1.41802137083198
H           -4.58609902496368       -1.80382761628505       -2.19295611066029
H           -5.18659319831789       -2.13616114327445       -0.54637277824918
H           -4.06354838844083       -3.26150251601919       -1.32660444504974
H           -4.79313161705839        0.83855899384288       -1.93556197525531
H           -6.03790335639856       -0.22484199670720       -1.25544452198615
H           -6.08178181378895        1.50240194871554       -0.92063090061670
H           -5.74721738998070       -1.13725155591489        1.06187642779755
H           -6.19266747829076        0.48651098617238        1.59962259193732
H           -4.71814826026040       -0.27920999840341        2.21595575451763
H           -3.64028343274889        2.27463316674955       -0.06984278577406
H           -3.65706437821816        1.76592918160215        1.48469305641527
H            1.23500816453130       -1.16704567482026        1.26734422999378
H            2.12528529927652        1.49368626645650        2.20316525589513
H            2.68878163968274       -0.07226840346509        2.81508100004397
H            2.54916550575477       -0.37282804128555       -0.71670768497639
H            4.48147290365497       -0.26974942785771       -2.22176398533457
H            7.90347593966649        0.66550700440806       -1.15992582439597
H            6.94103903023167        1.70687385742859       -2.22948963005358
H            6.93124713452303       -0.05323645516351       -2.45956797240270
H            6.82074180900002        1.50228271972213        0.90522093197337
H            4.88329934034776        1.39454186282420        2.40863242026729
H            0.19015723248379       -2.95460529698211       -0.89534426899592

          :  Hamiltonian                  GFN1-xTB          :
         :: total energy             -80.225970013109 Eh    ::
         :: gradient norm              0.000326218491 Eh/a0 ::
         :: HOMO-LUMO gap              0.715120985456 eV    ::
         :: SCC energy               -81.118949424807 Eh    ::
         :: -> Gsolv                  -0.161448008028 Eh    ::
         :: repulsion energy           0.922379036105 Eh    ::

    * Orbital Energies and Occupations

         #    Occupation            Energy/Eh            Energy/eV
      -------------------------------------------------------------
         1        2.0000           -0.8242426             -22.4288
       ...           ...                  ...                  ...
        56        2.0000           -0.4632641             -12.6061
        57        2.0000           -0.4561036             -12.4112
        58        2.0000           -0.4496481             -12.2355
        59        2.0000           -0.4437163             -12.0741
        60        2.0000           -0.4301813             -11.7058
        61        2.0000           -0.4296987             -11.6927
        62        2.0000           -0.4233645             -11.5203
        63        2.0000           -0.4171328             -11.3508
        64        2.0000           -0.4095550             -11.1446
        65        2.0000           -0.4066777             -11.0663
        66        2.0000           -0.3320634              -9.0359
        67        2.0000           -0.3320609              -9.0358
        68        2.0000           -0.3315610              -9.0222 (HOMO)
        69        0.0000           -0.3052808              -8.3071 (LUMO)
        70                         -0.2705779              -7.3628
        71                         -0.2451689              -6.6714
        72                         -0.2409791              -6.5574
        73                         -0.2237011              -6.0872
        74                         -0.1486872              -4.0460
        75                         -0.1443192              -3.9271
        76                         -0.1263513              -3.4382
        77                         -0.1204282              -3.2770
        78                         -0.1163825              -3.1669
        79                         -0.1133241              -3.0837
       ...                                ...                  ...
       144                          0.7199720              19.5914
      -------------------------------------------------------------
                  HL-Gap            0.0262802 Eh            0.7151 eV

Wiberg/Mayer (AO) data.
largest (>0.10) Wiberg bond orders for each atom

     #   Z sym  total        # sym  WBO       # sym  WBO       # sym  WBO
 ---------------------------------------------------------------------------
     1   6 C    3.926 --    27 H    0.977    26 H    0.977    28 H    0.973
                             2 N    0.933
     2   7 N    3.506 --     3 C    1.167    24 C    1.129     1 C    0.933
                            25 O    0.132
     3   6 C    3.919 --     8 N    1.565     2 N    1.167     4 C    0.964
     4   6 C    3.969 --     7 N    0.997     5 C    0.991     6 C    0.983
                             3 C    0.964
     5   6 C    3.994 --     4 C    0.991    29 H    0.986    31 H    0.983
                            30 H    0.983
     6   6 C    3.994 --    34 H    0.985     4 C    0.983    33 H    0.983
                            32 H    0.979
     7   7 N    2.960 --     4 C    0.997    35 H    0.944    36 H    0.941
     8   7 N    3.039 --     3 C    1.565     9 C    1.201
     9   6 C    3.964 --    22 C    1.512     8 N    1.201    10 C    0.980
    10   6 C    3.908 --    11 O    1.579    12 N    1.270     9 C    0.980
    11   8 O    1.874 --    10 C    1.579    12 N    0.174
    12   7 N    3.360 --    10 C    1.270    13 C    0.947    37 H    0.897
                            11 O    0.174
    13   6 C    3.944 --    14 C    0.993    39 H    0.969    38 H    0.964
                            12 N    0.947
    14   6 C    3.985 --    15 C    1.419    21 C    1.406    13 C    0.993
                            17 C    0.105
    15   6 C    3.995 --    16 C    1.446    14 C    1.419    40 H    0.970
                            20 C    0.107
    16   6 C    3.995 --    15 C    1.446    17 C    1.409    41 H    0.973
                            21 C    0.109
    17   6 C    3.987 --    16 C    1.409    20 C    1.400    18 C    1.032
                            14 C    0.105
    18   6 C    3.989 --    17 C    1.032    44 H    0.984    42 H    0.984
                            43 H    0.928
    19   9 F    0.099
    20   6 C    3.995 --    21 C    1.457    17 C    1.400    45 H    0.973
                            15 C    0.107
    21   6 C    3.995 --    20 C    1.457    14 C    1.406    46 H    0.974
                            16 C    0.109
    22   6 C    3.917 --     9 C    1.512    24 C    1.097    23 O    1.066
    23   8 O    2.059 --    22 C    1.066    47 H    0.805
    24   6 C    3.916 --    25 O    1.537     2 N    1.129    22 C    1.097
    25   8 O    1.887 --    24 C    1.537     2 N    0.132
    26   1 H    1.003 --     1 C    0.977
    27   1 H    1.008 --     1 C    0.977
    28   1 H    1.008 --     1 C    0.973
    29   1 H    1.001 --     5 C    0.986
    30   1 H    1.004 --     5 C    0.983
    31   1 H    1.008 --     5 C    0.983
    32   1 H    1.005 --     6 C    0.979
    33   1 H    1.005 --     6 C    0.983
    34   1 H    1.002 --     6 C    0.985
    35   1 H    0.969 --     7 N    0.944
    36   1 H    0.976 --     7 N    0.941
    37   1 H    0.948 --    12 N    0.897
    38   1 H    1.015 --    13 C    0.964
    39   1 H    1.007 --    13 C    0.969
    40   1 H    1.011 --    15 C    0.970
    41   1 H    1.003 --    16 C    0.973
    42   1 H    1.006 --    18 C    0.984
    43   1 H    1.039 --    18 C    0.928
    44   1 H    1.006 --    18 C    0.984
    45   1 H    1.003 --    20 C    0.973
    46   1 H    1.001 --    21 C    0.974
    47   1 H    0.848 --    23 O    0.805
 ---------------------------------------------------------------------------

           -------------------------------------------------
          | TOTAL ENERGY              -80.225970013109 Eh   |
          | GRADIENT NORM               0.000326218491 Eh/α |
          | HOMO-LUMO GAP               0.715120985456 eV   |
           -------------------------------------------------

 * finished run on 2023/06/20 at 15:09:37.158
