   * xtb version 6.5.1 (579679a) compiled by 'ehlert@majestix' on 2022-07-11
          program call               : /lustre/hpc/kemi/ree/PhD/git/ReactivityQM/dep/xtb-6.5.1/bin/xtb --gfn 1 /lustre/hpc/kemi/ree/PhD/git/ReactivityQM/calculations/R02oxygendeprot/reac01prodN12/conf15/R02oxygendeprot_reac01prodN12_conf15_gfn1.xyz --opt --vfukui --chrg 0 --uhf 0 --alpb DMSO

   ID    Z sym.   atoms
    1    6 C      1, 3, 5, 7-10, 12, 14, 15, 18, 19, 22, 24
    2    8 O      2, 4, 13, 20, 23, 25
    3    7 N      6, 11, 16, 17, 21
    4    1 H      26-42

      * Solvation model:               ALPB
        Solvent                        DMSO
        Solvent mass                       7.8130E+01 g/mol
          :  Hamiltonian                  GFN1-xTB          :
 * total energy  :   -82.9338932 Eh     change       -0.2946621E-09 Eh
 * total energy  :   -82.9445339 Eh     change       -0.1064070E-01 Eh
 * total energy  :   -82.9486142 Eh     change       -0.4080340E-02 Eh
 * total energy  :   -82.9492659 Eh     change       -0.6516343E-03 Eh
 * total energy  :   -82.9496995 Eh     change       -0.4336772E-03 Eh
 * total energy  :   -82.9498803 Eh     change       -0.1807480E-03 Eh
 * total energy  :   -82.9500207 Eh     change       -0.1404554E-03 Eh
 * total energy  :   -82.9501343 Eh     change       -0.1135600E-03 Eh
 * total energy  :   -82.9502516 Eh     change       -0.1172933E-03 Eh
 * total energy  :   -82.9503601 Eh     change       -0.1085149E-03 Eh
 * total energy  :   -82.9508569 Eh     change       -0.3022520E-04 Eh
 * total energy  :   -82.9508784 Eh     change       -0.2150532E-04 Eh
 * total energy  :   -82.9508914 Eh     change       -0.1297482E-04 Eh
 * total energy  :   -82.9509078 Eh     change       -0.1641803E-04 Eh
 * total energy  :   -82.9509144 Eh     change       -0.6548310E-05 Eh
 * total energy  :   -82.9509277 Eh     change       -0.1334298E-04 Eh
 * total energy  :   -82.9509333 Eh     change       -0.5526860E-05 Eh
 * total energy  :   -82.9509390 Eh     change       -0.5770256E-05 Eh
 * total energy  :   -82.9509439 Eh     change       -0.4838598E-05 Eh
   *** GEOMETRY OPTIMIZATION CONVERGED AFTER 28 ITERATIONS ***

 final structure:
================
42
 xtb: 6.5.1 (579679a)
C            6.05708890950344        2.60109423849022       -0.34738743325319
O            5.08739576624026        1.80975382794481        0.33719862849691
C            4.06393820933325        1.36066987818442       -0.39857865258485
O            3.95295499549758        1.61694946073351       -1.58254144897443
C            3.09900560565900        0.52565411158628        0.34973147024762
N            2.09168522255518        0.05221222920775       -0.42534183657567
C            1.17228225582212       -0.72150989242216        0.06492358454429
C            0.09382813982081       -1.25291398078416       -0.85801285093060
C            0.34041343278565       -0.73777048468021       -2.27639473295260
C            0.05817302720565       -2.78456670530532       -0.84865679911445
N           -1.22856905215208       -0.71172434423766       -0.44822712392217
C           -1.91634571105057       -1.10418031503450        0.61397754433103
O           -1.56183160540671       -1.85553046195576        1.49696068861821
C           -3.35995140617863       -0.47726171112857        0.71511748593133
C           -4.36457991013876       -1.62229707728793        0.84834316110056
N           -3.36268039025004        0.40603950370949        1.83388181344813
N           -3.62936620300140        1.60145785722284        1.41921893797019
C           -3.81966712480076        1.55897646073377        0.09950677799794
C           -4.16445446229324        2.69712994193772       -0.76324633858189
O           -3.66415257163938        0.34867547520463       -0.38928664779741
N            1.17328746189130       -1.09155092370707        1.37428265403706
C            2.10190594296229       -0.65938966968584        2.29890253411887
O            2.01294935235810       -1.00418751579742        3.46475153681163
C            3.19588713985078        0.23428058434738        1.75151102803345
O            4.07263264226640        0.64492704906287        2.51452503719133
H            6.79248815328429        2.90960019388261        0.39351901861575
H            6.53836255304238        2.01316515680620       -1.13304823813390
H            5.58354850721579        3.47729868570848       -0.79710267007400
H            0.35339066416992        0.35103718488271       -2.28579612568427
H            1.30364782314629       -1.09935746486280       -2.63279082500940
H           -0.44286076932041       -1.09462019244683       -2.94119461702009
H            1.00654650888727       -3.16528531163768       -1.22494123553196
H           -0.10469533103576       -3.17437673684464        0.15338801648387
H           -0.74503865328029       -3.13193201287919       -1.49546331784135
H           -1.69621101132742       -0.14278824893298       -1.13497994597007
H           -4.07185741935946       -2.24726735493777        1.68963029969353
H           -5.35634548429278       -1.20894230999756        1.01378915629667
H           -4.36154178072998       -2.20745272574222       -0.06778880118519
H           -3.31168433973163        3.37486656695843       -0.83727357033439
H           -4.98986091386166        3.25554038641869       -0.32122918081450
H           -4.43371337260306        2.34796054807603       -1.75676433297406
H            0.43399419895796       -1.69238490079516        1.72027735128846

          :  Hamiltonian                  GFN1-xTB          :
         :: total energy             -82.950943864001 Eh    ::
         :: gradient norm              0.000797360189 Eh/a0 ::
         :: HOMO-LUMO gap              0.083131660552 eV    ::
         :: SCC energy               -83.719301553306 Eh    ::
         :: -> Gsolv                  -0.080127148936 Eh    ::
         :: repulsion energy           0.794811712180 Eh    ::

    * Orbital Energies and Occupations

         #    Occupation            Energy/Eh            Energy/eV
      -------------------------------------------------------------
         1        2.0000           -0.8911541             -24.2495
       ...           ...                  ...                  ...
        55        2.0000           -0.5142939             -13.9946
        56        2.0000           -0.5077508             -13.8166
        57        2.0000           -0.5068931             -13.7933
        58        2.0000           -0.4944117             -13.4536
        59        2.0000           -0.4875000             -13.2656
        60        2.0000           -0.4867870             -13.2461
        61        2.0000           -0.4788991             -13.0315
        62        2.0000           -0.4759374             -12.9509
        63        2.0000           -0.4728058             -12.8657
        64        2.0000           -0.4672484             -12.7145
        65        2.0000           -0.4512616             -12.2795
        66        2.0000           -0.4147413             -11.2857
        67        1.6662           -0.4002397             -10.8911 (HOMO)
        68        0.3338           -0.3971847             -10.8079 (LUMO)
        69                         -0.3017014              -8.2097
        70                         -0.2925850              -7.9616
        71                         -0.2798335              -7.6147
        72                         -0.2762912              -7.5183
        73                         -0.2276742              -6.1953
        74                         -0.1592738              -4.3341
        75                         -0.1479109              -4.0249
        76                         -0.1407530              -3.8301
        77                         -0.1333669              -3.6291
        78                         -0.1324145              -3.6032
       ...                                ...                  ...
       134                          0.7462190              20.3057
      -------------------------------------------------------------
                  HL-Gap            0.0030550 Eh            0.0831 eV

Wiberg/Mayer (AO) data.
largest (>0.10) Wiberg bond orders for each atom

     #   Z sym  total        # sym  WBO       # sym  WBO       # sym  WBO
 ---------------------------------------------------------------------------
     1   6 C    3.880 --    26 H    0.986    28 H    0.979    27 H    0.979
                             2 O    0.906
     2   8 O    2.186 --     3 C    1.097     1 C    0.906     4 O    0.127
     3   6 C    3.841 --     4 O    1.623     2 O    1.097     5 C    1.038
     4   8 O    1.870 --     3 C    1.623     2 O    0.127
     5   6 C    3.743 --     6 N    1.265    24 C    1.186     3 C    1.038
     6   7 N    2.995 --     7 C    1.507     5 C    1.265
     7   6 C    3.833 --     6 N    1.507    21 N    1.178     8 C    0.978
     8   6 C    3.918 --     9 C    1.001    10 C    0.986     7 C    0.978
                            11 N    0.885
     9   6 C    3.987 --     8 C    1.001    31 H    0.984    29 H    0.982
                            30 H    0.981
    10   6 C    3.983 --     8 C    0.986    32 H    0.983    34 H    0.983
                            33 H    0.978
    11   7 N    3.364 --    12 C    1.339    35 H    0.887     8 C    0.885
                            13 O    0.175
    12   6 C    3.878 --    13 O    1.608    11 N    1.339    14 C    0.821
    13   8 O    1.971 --    12 C    1.608    11 N    0.175
    14   6 C    3.846 --    16 N    1.055    15 C    0.932    20 O    0.903
                            12 C    0.821
    15   6 C    3.934 --    38 H    0.981    37 H    0.980    36 H    0.978
                            14 C    0.932
    16   7 N    2.705 --    17 N    1.477    14 C    1.055
    17   7 N    2.965 --    16 N    1.477    18 C    1.343
    18   6 C    3.684 --    17 N    1.343    20 O    1.167    19 C    1.053
    19   6 C    3.971 --    18 C    1.053    41 H    0.977    40 H    0.951
                            39 H    0.937
    20   8 O    2.240 --    18 C    1.167    14 C    0.903
    21   7 N    3.430 --     7 C    1.178    22 C    1.126    42 H    0.863
                            23 O    0.117
    22   6 C    3.849 --    23 O    1.631    21 N    1.126    24 C    0.953
    23   8 O    1.862 --    22 C    1.631    21 N    0.117
    24   6 C    3.880 --    25 O    1.591     5 C    1.186    22 C    0.953
    25   8 O    1.787 --    24 C    1.591
    26   1 H    1.012 --     1 C    0.986
    27   1 H    1.008 --     1 C    0.979
    28   1 H    1.009 --     1 C    0.979
    29   1 H    1.006 --     9 C    0.982
    30   1 H    1.005 --     9 C    0.981
    31   1 H    0.998 --     9 C    0.984
    32   1 H    0.999 --    10 C    0.983
    33   1 H    1.004 --    10 C    0.978
    34   1 H    0.998 --    10 C    0.983
    35   1 H    0.934 --    11 N    0.887
    36   1 H    1.001 --    15 C    0.978
    37   1 H    0.994 --    15 C    0.980
    38   1 H    0.995 --    15 C    0.981
    39   1 H    0.978 --    19 C    0.937
    40   1 H    0.984 --    19 C    0.951
    41   1 H    0.991 --    19 C    0.977
    42   1 H    0.938 --    21 N    0.863
 ---------------------------------------------------------------------------

           -------------------------------------------------
          | TOTAL ENERGY              -82.950943864001 Eh   |
          | GRADIENT NORM               0.000797360189 Eh/α |
          | HOMO-LUMO GAP               0.083131660552 eV   |
           -------------------------------------------------

 * finished run on 2023/06/21 at 17:27:29.954
