   * xtb version 6.5.1 (579679a) compiled by 'ehlert@majestix' on 2022-07-11
          program call               : /lustre/hpc/kemi/ree/PhD/git/ReactivityQM/dep/xtb-6.5.1/bin/xtb --gfn 1 /lustre/hpc/kemi/ree/PhD/git/ReactivityQM/calculations/R02oxygendeprot/reac01prodE06/conf07/R02oxygendeprot_reac01prodE06_conf07_gfn1.xyz --opt --vfukui --chrg -2 --uhf 0 --alpb DMSO

   ID    Z sym.   atoms
    1    6 C      1, 3, 5, 6, 8, 11-15, 17, 19, 22, 23
    2    8 O      2, 4, 7, 9, 18, 24
    3    7 N      10, 16, 20, 21, 25
    4    1 H      26-42

      * Solvation model:               ALPB
        Solvent                        DMSO
        Solvent mass                       7.8130E+01 g/mol
          :  Hamiltonian                  GFN1-xTB          :
 * total energy  :   -83.6060212 Eh     change       -0.1492140E-11 Eh
 * total energy  :   -83.6181635 Eh     change       -0.1214223E-01 Eh
 * total energy  :   -83.6227184 Eh     change       -0.4554895E-02 Eh
 * total energy  :   -83.6238074 Eh     change       -0.1089009E-02 Eh
 * total energy  :   -83.6243778 Eh     change       -0.5703884E-03 Eh
 * total energy  :   -83.6245993 Eh     change       -0.2215317E-03 Eh
 * total energy  :   -83.6247431 Eh     change       -0.1438467E-03 Eh
 * total energy  :   -83.6248664 Eh     change       -0.1232647E-03 Eh
 * total energy  :   -83.6249887 Eh     change       -0.1222905E-03 Eh
 * total energy  :   -83.6251140 Eh     change       -0.1252916E-03 Eh
 * total energy  :   -83.6257726 Eh     change       -0.1141610E-04 Eh
 * total energy  :   -83.6257832 Eh     change       -0.1060944E-04 Eh
 * total energy  :   -83.6257910 Eh     change       -0.7783559E-05 Eh
 * total energy  :   -83.6257965 Eh     change       -0.5532475E-05 Eh
 * total energy  :   -83.6258020 Eh     change       -0.5457832E-05 Eh
 * total energy  :   -83.6258082 Eh     change       -0.6187582E-05 Eh
 * total energy  :   -83.6258141 Eh     change       -0.5909833E-05 Eh
 * total energy  :   -83.6258191 Eh     change       -0.5022002E-05 Eh
 * total energy  :   -83.6258234 Eh     change       -0.4334269E-05 Eh
   *** GEOMETRY OPTIMIZATION CONVERGED AFTER 38 ITERATIONS ***

 final structure:
================
42
 xtb: 6.5.1 (579679a)
C           -4.30054398265138        3.55906391617078        0.28203867008329
O           -4.10876972133881        2.16215056890919        0.39168291971239
C           -2.80517580554722        1.73584069750459        0.33268647525133
O           -1.90658949738591        2.57157453458407        0.20274923182629
C           -2.61156706867201        0.29538218669475        0.41090755728795
C           -3.70119358749563       -0.61916889661773        0.52557895155026
O           -4.91603248199478       -0.30885024834111        0.73674093176110
C           -3.35215669008231       -2.05457137275264        0.32183622839427
O           -4.18235445261172       -2.97338986763061        0.23776969576739
N           -2.02277395974245       -2.34208551668581        0.10617154260178
C           -0.96539295141078       -1.43647172733861        0.53563436631525
C           -0.69043405386865       -1.67288092481090        2.04846288546935
C            0.32296638284426       -1.72652526002529       -0.31319179296915
C            0.95531309014951       -3.08479111373867        0.00672714535500
C           -0.03822423677677       -1.64487428791509       -1.80495074411335
N            1.24324843461820       -0.64269194139203        0.01938976948780
C            2.51139159438847       -0.52971364561275       -0.46655977042415
O            3.12190559933648       -1.43093773962133       -1.06432164741850
C            3.09323365925633        0.76780792020366       -0.15538927277693
N            2.49943382769843        1.77024734197825        0.46650112683960
N            3.40656274051868        2.79200170214947        0.51715309424093
C            4.48285698020052        2.37226117588287       -0.06425687021613
C            5.74807882494965        3.12037085781368       -0.25896393053492
O            4.37003711585669        1.10628277221464       -0.51887583310750
N           -1.29796660347633       -0.06379560948475        0.31621969316326
H           -3.92422856164896        3.93554198027997       -0.67636145393571
H           -3.78777534778169        4.09403440969445        1.08981176252566
H           -5.37259169873757        3.74596637917428        0.34842358107949
H           -1.80071666063580       -3.32468240652524        0.13803882329077
H           -1.54582730588214       -1.32110726488700        2.62491597919695
H           -0.54151806958694       -2.73042848975999        2.25623506067811
H            0.19440436357719       -1.11657077736037        2.35300704888496
H            1.42580708597606       -3.07111621320970        0.98878389086032
H            1.71573888390543       -3.33490854559864       -0.73188387933830
H            0.19773582398093       -3.86687539438185       -0.00933236461491
H            0.85515963016576       -1.75380793363593       -2.41832101247113
H           -0.74006610332728       -2.43781257803214       -2.06090520868679
H           -0.50199040685154       -0.67978816372631       -2.01537326095986
H            0.76488215369274        0.22072661684373        0.28811370776400
H            5.96961700145651        3.22054469829027       -1.32156111563817
H            6.57716982574969        2.58910834858919        0.20802732425467
H            5.65834822919595        4.10893881210196        0.18452769356544

          :  Hamiltonian                  GFN1-xTB          :
         :: total energy             -83.625823441278 Eh    ::
         :: gradient norm              0.000364917564 Eh/a0 ::
         :: HOMO-LUMO gap              0.091900991128 eV    ::
         :: SCC energy               -84.347629220987 Eh    ::
         :: -> Gsolv                  -0.275764779112 Eh    ::
         :: repulsion energy           0.748972143979 Eh    ::

    * Orbital Energies and Occupations

         #    Occupation            Energy/Eh            Energy/eV
      -------------------------------------------------------------
         1        2.0000           -0.8188094             -22.2809
       ...           ...                  ...                  ...
        56        2.0000           -0.4432857             -12.0624
        57        2.0000           -0.4389871             -11.9454
        58        2.0000           -0.4209806             -11.4555
        59        2.0000           -0.4184612             -11.3869
        60        2.0000           -0.4143837             -11.2760
        61        2.0000           -0.4086781             -11.1207
        62        2.0000           -0.4029327             -10.9644
        63        2.0000           -0.3973258             -10.8118
        64        2.0000           -0.3916133             -10.6563
        65        2.0000           -0.3790169             -10.3136
        66        2.0000           -0.3659877              -9.9590
        67        2.0000           -0.3354277              -9.1275
        68        1.7108           -0.2756013              -7.4995 (HOMO)
        69        0.2892           -0.2722240              -7.4076 (LUMO)
        70                         -0.2380457              -6.4776
        71                         -0.2225260              -6.0552
        72                         -0.1650358              -4.4909
        73                         -0.1524451              -4.1482
        74                         -0.1297788              -3.5315
        75                         -0.1130651              -3.0767
        76                         -0.1056287              -2.8743
        77                         -0.0974575              -2.6520
        78                         -0.0863892              -2.3508
        79                         -0.0816089              -2.2207
       ...                                ...                  ...
       134                          0.7368804              20.0515
      -------------------------------------------------------------
                  HL-Gap            0.0033773 Eh            0.0919 eV

Wiberg/Mayer (AO) data.
largest (>0.10) Wiberg bond orders for each atom

     #   Z sym  total        # sym  WBO       # sym  WBO       # sym  WBO
 ---------------------------------------------------------------------------
     1   6 C    3.913 --    28 H    0.987    26 H    0.980    27 H    0.980
                             2 O    0.940
     2   8 O    2.134 --     3 C    1.012     1 C    0.940     4 O    0.100
     3   6 C    3.816 --     4 O    1.544     5 C    1.119     2 O    1.012
     4   8 O    1.815 --     3 C    1.544     2 O    0.100
     5   6 C    3.912 --    25 N    1.264     6 C    1.235     3 C    1.119
     6   6 C    3.877 --     7 O    1.407     5 C    1.235     8 C    1.012
     7   8 O    1.656 --     6 C    1.407
     8   6 C    3.860 --     9 O    1.526    10 N    1.154     6 C    1.012
     9   8 O    1.791 --     8 C    1.526    10 N    0.127
    10   7 N    3.249 --     8 C    1.154    11 C    0.929    29 H    0.917
                             9 O    0.127
    11   6 C    3.941 --    25 N    1.028    12 C    0.960    13 C    0.943
                            10 N    0.929
    12   6 C    3.978 --    31 H    0.986    32 H    0.985    30 H    0.985
                            11 C    0.960
    13   6 C    3.935 --    14 C    1.000    15 C    0.990    11 C    0.943
                            16 N    0.938
    14   6 C    3.994 --    13 C    1.000    33 H    0.985    35 H    0.983
                            34 H    0.980
    15   6 C    3.993 --    13 C    0.990    36 H    0.986    37 H    0.985
                            38 H    0.983
    16   7 N    3.274 --    17 C    1.197    13 C    0.938    39 H    0.886
                            18 O    0.146
    17   6 C    3.834 --    18 O    1.481    16 N    1.197    19 C    1.070
    18   8 O    1.759 --    17 C    1.481    16 N    0.146
    19   6 C    3.745 --    20 N    1.483    17 C    1.070    24 O    1.004
    20   7 N    2.849 --    19 C    1.483    21 N    1.186
    21   7 N    2.980 --    22 C    1.626    20 N    1.186
    22   6 C    3.837 --    21 N    1.626    24 O    1.061    23 C    1.026
    23   6 C    3.993 --    22 C    1.026    42 H    0.985    41 H    0.970
                            40 H    0.969
    24   8 O    2.228 --    22 C    1.061    19 C    1.004
    25   7 N    2.690 --     5 C    1.264    11 C    1.028
    26   1 H    1.018 --     1 C    0.980
    27   1 H    1.018 --     1 C    0.980
    28   1 H    1.018 --     1 C    0.987
    29   1 H    0.970 --    10 N    0.917
    30   1 H    1.011 --    12 C    0.985
    31   1 H    1.007 --    12 C    0.986
    32   1 H    1.015 --    12 C    0.985
    33   1 H    1.008 --    14 C    0.985
    34   1 H    1.021 --    14 C    0.980
    35   1 H    1.005 --    14 C    0.983
    36   1 H    1.011 --    15 C    0.986
    37   1 H    1.014 --    15 C    0.985
    38   1 H    1.023 --    15 C    0.983
    39   1 H    1.001 --    16 N    0.886
    40   1 H    1.000 --    23 C    0.969
    41   1 H    1.000 --    23 C    0.970
    42   1 H    1.003 --    23 C    0.985
 ---------------------------------------------------------------------------

           -------------------------------------------------
          | TOTAL ENERGY              -83.625823441278 Eh   |
          | GRADIENT NORM               0.000364917564 Eh/α |
          | HOMO-LUMO GAP               0.091900991128 eV   |
           -------------------------------------------------

 * finished run on 2023/06/21 at 17:08:04.705
