   * xtb version 6.5.1 (579679a) compiled by 'ehlert@majestix' on 2022-07-11
          program call               : /lustre/hpc/kemi/ree/PhD/git/ReactivityQM/dep/xtb-6.5.1/bin/xtb --gfn 1 /lustre/hpc/kemi/ree/PhD/git/ReactivityQM/calculations/R01/reac02prodN05/conf10/R01_reac02prodN05_conf10_gfn1.xyz --opt --vfukui --chrg 1 --uhf 0 --alpb DMSO

   ID    Z sym.   atoms
    1    6 C      1, 3, 4, 6, 8-11, 14, 16
    2    8 O      2, 5, 15, 17
    3    7 N      7, 12, 13
    4    1 H      18-33

      * Solvation model:               ALPB
        Solvent                        DMSO
        Solvent mass                       7.8130E+01 g/mol
          :  Hamiltonian                  GFN1-xTB          :
 * total energy  :   -57.7194476 Eh     change       -0.7320011E-10 Eh
 * total energy  :   -57.7343616 Eh     change       -0.1491394E-01 Eh
 * total energy  :   -57.7420758 Eh     change       -0.7714183E-02 Eh
 * total energy  :   -57.7445374 Eh     change       -0.2461683E-02 Eh
 * total energy  :   -57.7469555 Eh     change       -0.2418058E-02 Eh
 * total energy  :   -57.7484423 Eh     change       -0.1486845E-02 Eh
 * total energy  :   -57.7499629 Eh     change       -0.1520550E-02 Eh
 * total energy  :   -57.7516323 Eh     change       -0.1669370E-02 Eh
 * total energy  :   -57.7536486 Eh     change       -0.2016307E-02 Eh
 * total energy  :   -57.7560715 Eh     change       -0.2422934E-02 Eh
 * total energy  :   -57.7741889 Eh     change       -0.2605867E-04 Eh
 * total energy  :   -57.7742116 Eh     change       -0.2266446E-04 Eh
 * total energy  :   -57.7742334 Eh     change       -0.2180542E-04 Eh
 * total energy  :   -57.7742528 Eh     change       -0.1941463E-04 Eh
 * total energy  :   -57.7742672 Eh     change       -0.1432618E-04 Eh
 * total energy  :   -57.7742741 Eh     change       -0.6948343E-05 Eh
 * total energy  :   -57.7742819 Eh     change       -0.7763808E-05 Eh
 * total energy  :   -57.7742874 Eh     change       -0.5492855E-05 Eh
 * total energy  :   -57.7742905 Eh     change       -0.3108094E-05 Eh
   *** GEOMETRY OPTIMIZATION CONVERGED AFTER 61 ITERATIONS ***

 final structure:
================
33
 xtb: 6.5.1 (579679a)
C            3.54345230101613        0.54677674235252        1.90064707437065
O            2.31997891584279        0.56548214719935        1.16702290620763
C            2.34746671913621        0.09315485848829       -0.12915701638845
C            2.37327394709743        1.31850189817347       -1.12244207850848
O            3.42919702494244       -0.72535955674927       -0.34813856998929
C            0.99943460235743       -0.49191209841685       -0.51267305494692
N           -0.06824156116925       -0.01726714414731        0.06551265441379
C           -1.27775267236453       -0.50789449917829       -0.23029283545942
C           -2.47402850989125        0.10545460876438        0.41082901957922
C           -2.41104918718035       -0.15631245950283        1.92611739389552
C           -2.42814120224182        1.62980526115357        0.14381286183428
N           -3.66070820947741       -0.49087326221381       -0.14333195640255
N           -1.43233763653287       -1.58147896332483       -1.00570912987427
C           -0.41229779487929       -2.19794525457886       -1.73689837471640
O           -0.61492290842944       -3.16010427251050       -2.41691598634135
C            0.92134386898805       -1.44614217670263       -1.63706546440830
O            1.82301069840272       -1.65306591184575       -2.41053449811785
H            3.84021662355719       -0.48191501846747        2.12780102383966
H            4.34148695847163        1.03897260158112        1.33690548960040
H            3.34789438511070        1.09381500375290        2.82229464770381
H            2.32724297222076        0.98001614792640       -2.15312458130452
H            3.32292348243549        1.81611850348546       -0.93449510352415
H            1.54798124455781        1.98688622431206       -0.89679187693413
H           -3.24120044553493        0.35748440925987        2.40662455029227
H           -1.47155276983637        0.21789050440844        2.32884720034949
H           -2.48877629685815       -1.22500289547080        2.11788574856503
H           -3.28367988965719        2.09177495215543        0.63041111920449
H           -1.50698577778471        2.04655808510013        0.54669176150884
H           -2.47477542242316        1.82066448341948       -0.92600669907121
H           -3.84240807421246       -0.16726172509750       -1.08086746675951
H           -4.46939296968367       -0.32737145538919        0.43744803046995
H           -2.36612440009703       -1.97970832339641       -1.06810536630786
H            3.43947398411740       -1.09974241453975       -1.24369742277721

          :  Hamiltonian                  GFN1-xTB          :
         :: total energy             -57.774290463172 Eh    ::
         :: gradient norm              0.000599783686 Eh/a0 ::
         :: HOMO-LUMO gap              0.280177337691 eV    ::
         :: SCC energy               -58.339325074113 Eh    ::
         :: -> Gsolv                  -0.100913446223 Eh    ::
         :: repulsion energy           0.584101593171 Eh    ::

    * Orbital Energies and Occupations

         #    Occupation            Energy/Eh            Energy/eV
      -------------------------------------------------------------
         1        2.0000           -0.8897705             -24.2119
       ...           ...                  ...                  ...
        35        2.0000           -0.5548517             -15.0983
        36        2.0000           -0.5502061             -14.9719
        37        2.0000           -0.5434329             -14.7876
        38        2.0000           -0.5416378             -14.7387
        39        2.0000           -0.5374238             -14.6240
        40        2.0000           -0.5364300             -14.5970
        41        2.0000           -0.5260147             -14.3136
        42        2.0000           -0.5227198             -14.2239
        43        2.0000           -0.5184251             -14.1071
        44        2.0000           -0.5146357             -14.0039
        45        2.0000           -0.4909766             -13.3602
        46        2.0000           -0.4710846             -12.8189
        47        1.9912           -0.4552553             -12.3881 (HOMO)
        48        0.0088           -0.4449590             -12.1079 (LUMO)
        49                         -0.3536465              -9.6232
        50                         -0.3347399              -9.1087
        51                         -0.2450328              -6.6677
        52                         -0.1510067              -4.1091
        53                         -0.1486158              -4.0440
        54                         -0.1454685              -3.9584
        55                         -0.1435830              -3.9071
        56                         -0.1375573              -3.7431
        57                         -0.1209494              -3.2912
        58                         -0.1093165              -2.9747
       ...                                ...                  ...
       100                          0.7501130              20.4116
      -------------------------------------------------------------
                  HL-Gap            0.0102963 Eh            0.2802 eV

Wiberg/Mayer (AO) data.
largest (>0.10) Wiberg bond orders for each atom

     #   Z sym  total        # sym  WBO       # sym  WBO       # sym  WBO
 ---------------------------------------------------------------------------
     1   6 C    3.868 --    20 H    0.983    18 H    0.975    19 H    0.974
                             2 O    0.904
     2   8 O    2.071 --     3 C    0.992     1 C    0.904
     3   6 C    3.880 --     5 O    1.005     2 O    0.992     6 C    0.965
                             4 C    0.821
     4   6 C    3.948 --    21 H    0.984    23 H    0.983    22 H    0.956
                             3 C    0.821
     5   8 O    1.959 --     3 C    1.005    33 H    0.810
     6   6 C    3.907 --     7 N    1.540    16 C    1.028     3 C    0.965
     7   7 N    3.076 --     6 C    1.540     8 C    1.279
     8   6 C    3.880 --    13 N    1.317     7 N    1.279     9 C    1.023
     9   6 C    3.953 --     8 C    1.023    12 N    1.011    10 C    0.942
                            11 C    0.918
    10   6 C    3.972 --    25 H    0.984    26 H    0.983    24 H    0.977
                             9 C    0.942
    11   6 C    3.966 --    29 H    0.984    28 H    0.982    27 H    0.978
                             9 C    0.918
    12   7 N    3.039 --     9 C    1.011    30 H    0.917    31 H    0.915
    13   7 N    3.504 --     8 C    1.317    14 C    1.062    32 H    0.845
    14   6 C    3.871 --    15 O    1.771    13 N    1.062    16 C    0.901
    15   8 O    2.017 --    14 C    1.771
    16   6 C    3.874 --    17 O    1.778     6 C    1.028    14 C    0.901
    17   8 O    2.027 --    16 C    1.778
    18   1 H    1.006 --     1 C    0.975
    19   1 H    1.001 --     1 C    0.974
    20   1 H    1.010 --     1 C    0.983
    21   1 H    0.997 --     4 C    0.984
    22   1 H    0.990 --     4 C    0.956
    23   1 H    1.001 --     4 C    0.983
    24   1 H    0.994 --    10 C    0.977
    25   1 H    1.001 --    10 C    0.984
    26   1 H    0.996 --    10 C    0.983
    27   1 H    0.995 --    11 C    0.978
    28   1 H    1.001 --    11 C    0.982
    29   1 H    0.996 --    11 C    0.984
    30   1 H    0.934 --    12 N    0.917
    31   1 H    0.931 --    12 N    0.915
    32   1 H    0.915 --    13 N    0.845
    33   1 H    0.848 --     5 O    0.810
 ---------------------------------------------------------------------------

           -------------------------------------------------
          | TOTAL ENERGY              -57.774290463172 Eh   |
          | GRADIENT NORM               0.000599783686 Eh/α |
          | HOMO-LUMO GAP               0.280177337691 eV   |
           -------------------------------------------------

 * finished run on 2023/06/20 at 15:06:41.019
