                         Program Version 5.0.1 -  RELEASE  -
|  1> # ORCA input file
|  2> ! SP r2SCAN-3c CPCM
|  3>
|  4> %maxcore 1875.0
|  5> %pal nprocs 4 end
|  6> %cpcm smd true SMDsolvent "DMSO" end
|  7>
|  8> *xyz 0 1
|  9> C       5.097563    2.371950    1.473491
| 10> O       4.755503    1.106953    0.920010
| 11> C       3.438523    0.889707    0.708011
| 12> O       2.602583    1.742219    0.985584
| 13> C       3.117486   -0.408624    0.133707
| 14> N       1.759315   -0.567268   -0.067289
| 15> C       1.283338   -1.647271   -0.564561
| 16> C      -0.219890   -1.768912   -0.743484
| 17> C      -0.788048   -2.876941    0.149874
| 18> C      -0.592869   -1.977640   -2.214538
| 19> N      -0.718835   -0.464652   -0.289991
| 20> C      -1.945203   -0.045136   -0.212172
| 21> O      -2.914347   -0.836504   -0.575636
| 22> C      -4.300900   -0.468343   -0.518605
| 23> C      -2.118662    1.303329    0.285207
| 24> N      -1.138589    2.088301    0.634870
| 25> N      -1.690414    3.247667    1.040002
| 26> C      -2.981680    3.117584    0.920065
| 27> C      -4.026533    4.107580    1.243402
| 28> O      -3.311623    1.907712    0.446235
| 29> N       2.083642   -2.700872   -0.928804
| 30> C       3.456124   -2.685064   -0.792488
| 31> O       4.108300   -3.657215   -1.150465
| 32> C       4.051807   -1.425585   -0.193582
| 33> O       5.281495   -1.370631   -0.036429
| 34> H       6.180233    2.385291    1.594080
| 35> H       4.613322    2.511981    2.444647
| 36> H       4.787726    3.180927    0.804977
| 37> H      -0.582299   -2.654663    1.195947
| 38> H      -0.319771   -3.823414   -0.112909
| 39> H      -1.862074   -2.967202    0.008331
| 40> H      -0.203126   -1.159651   -2.818407
| 41> H      -0.166194   -2.915467   -2.564368
| 42> H      -1.673047   -2.022725   -2.328703
| 43> H       0.061694    0.154639    0.010962
| 44> H      -4.844585   -1.339911   -0.878028
| 45> H      -4.586342   -0.237762    0.507899
| 46> H      -4.488873    0.390295   -1.163442
| 47> H      -4.618957    3.754597    2.088073
| 48> H      -3.567366    5.060504    1.494963
| 49> H      -4.697302    4.229645    0.394079
| 50> H       1.678872   -3.529430   -1.330515
| 51> **                         ****END OF INPUT****

CARTESIAN COORDINATES (ANGSTROEM)
---------------------------------
  C      5.097563    2.371950    1.473491
  O      4.755503    1.106953    0.920010
  C      3.438523    0.889707    0.708011
  O      2.602583    1.742219    0.985584
  C      3.117486   -0.408624    0.133707
  N      1.759315   -0.567268   -0.067289
  C      1.283338   -1.647271   -0.564561
  C     -0.219890   -1.768912   -0.743484
  C     -0.788048   -2.876941    0.149874
  C     -0.592869   -1.977640   -2.214538
  N     -0.718835   -0.464652   -0.289991
  C     -1.945203   -0.045136   -0.212172
  O     -2.914347   -0.836504   -0.575636
  C     -4.300900   -0.468343   -0.518605
  C     -2.118662    1.303329    0.285207
  N     -1.138589    2.088301    0.634870
  N     -1.690414    3.247667    1.040002
  C     -2.981680    3.117584    0.920065
  C     -4.026533    4.107580    1.243402
  O     -3.311623    1.907712    0.446235
  N      2.083642   -2.700872   -0.928804
  C      3.456124   -2.685064   -0.792488
  O      4.108300   -3.657215   -1.150465
  C      4.051807   -1.425585   -0.193582
  O      5.281495   -1.370631   -0.036429
  H      6.180233    2.385291    1.594080
  H      4.613322    2.511981    2.444647
  H      4.787726    3.180927    0.804977
  H     -0.582299   -2.654663    1.195947
  H     -0.319771   -3.823414   -0.112909
  H     -1.862074   -2.967202    0.008331
  H     -0.203126   -1.159651   -2.818407
  H     -0.166194   -2.915467   -2.564368
  H     -1.673047   -2.022725   -2.328703
  H      0.061694    0.154639    0.010962
  H     -4.844585   -1.339911   -0.878028
  H     -4.586342   -0.237762    0.507899
  H     -4.488873    0.390295   -1.163442
  H     -4.618957    3.754597    2.088073
  H     -3.567366    5.060504    1.494963
  H     -4.697302    4.229645    0.394079
  H      1.678872   -3.529430   -1.330515

 Total Charge           Charge          ....    0
 Multiplicity           Mult            ....    1
 Number of Electrons    NEL             ....  184
 Basis Dimension        Dim             ....  615

ORBITAL ENERGIES
----------------

  NO   OCC          E(Eh)            E(eV)
   0   2.0000     -19.085329      -519.3382
   1   2.0000     -19.055652      -518.5307
   2   2.0000     -18.973394      -516.2923
   3   2.0000     -18.914429      -514.6878
   4   2.0000     -18.905967      -514.4575
   5   2.0000     -18.883942      -513.8582
   6   2.0000     -14.239191      -387.4681
   7   2.0000     -14.226641      -387.1266
   8   2.0000     -14.213904      -386.7800
   9   2.0000     -14.208975      -386.6459
  10   2.0000     -14.156090      -385.2068
  11   2.0000     -10.216259      -277.9986
  12   2.0000     -10.171524      -276.7812
  13   2.0000     -10.164211      -276.5822
  14   2.0000     -10.129526      -275.6384
  15   2.0000     -10.123008      -275.4610
  16   2.0000     -10.116504      -275.2841
  17   2.0000     -10.105985      -274.9978
  18   2.0000     -10.102699      -274.9084
  19   2.0000     -10.080105      -274.2936
  20   2.0000     -10.064173      -273.8601
  21   2.0000     -10.051399      -273.5125
  22   2.0000     -10.043596      -273.3001
  23   2.0000     -10.030123      -272.9335
  24   2.0000     -10.029834      -272.9257
  25   2.0000      -1.176763       -32.0213
  26   2.0000      -1.118111       -30.4253
  27   2.0000      -1.044908       -28.4334
  28   2.0000      -1.007436       -27.4137
  29   2.0000      -0.999372       -27.1943
  30   2.0000      -0.974089       -26.5063
  31   2.0000      -0.951588       -25.8940
  32   2.0000      -0.946023       -25.7426
  33   2.0000      -0.939268       -25.5588
  34   2.0000      -0.861730       -23.4489
  35   2.0000      -0.852638       -23.2015
  36   2.0000      -0.797021       -21.6880
  37   2.0000      -0.735601       -20.0167
  38   2.0000      -0.727792       -19.8042
  39   2.0000      -0.718450       -19.5500
  40   2.0000      -0.692048       -18.8316
  41   2.0000      -0.674940       -18.3660
  42   2.0000      -0.670828       -18.2542
  43   2.0000      -0.642779       -17.4909
  44   2.0000      -0.622369       -16.9355
  45   2.0000      -0.611818       -16.6484
  46   2.0000      -0.602176       -16.3860
  47   2.0000      -0.577599       -15.7173
  48   2.0000      -0.562963       -15.3190
  49   2.0000      -0.525052       -14.2874
  50   2.0000      -0.518781       -14.1168
  51   2.0000      -0.515488       -14.0271
  52   2.0000      -0.502883       -13.6841
  53   2.0000      -0.487026       -13.2526
  54   2.0000      -0.481007       -13.0889
  55   2.0000      -0.478432       -13.0188
  56   2.0000      -0.473853       -12.8942
  57   2.0000      -0.444539       -12.0965
  58   2.0000      -0.440211       -11.9788
  59   2.0000      -0.437544       -11.9062
  60   2.0000      -0.428640       -11.6639
  61   2.0000      -0.421050       -11.4574
  62   2.0000      -0.418423       -11.3859
  63   2.0000      -0.413814       -11.2604
  64   2.0000      -0.410339       -11.1659
  65   2.0000      -0.399782       -10.8786
  66   2.0000      -0.388909       -10.5827
  67   2.0000      -0.386008       -10.5038
  68   2.0000      -0.383222       -10.4280
  69   2.0000      -0.372795       -10.1443
  70   2.0000      -0.365390        -9.9428
  71   2.0000      -0.364385        -9.9154
  72   2.0000      -0.359422        -9.7804
  73   2.0000      -0.358232        -9.7480
  74   2.0000      -0.355122        -9.6634
  75   2.0000      -0.343971        -9.3599
  76   2.0000      -0.336626        -9.1601
  77   2.0000      -0.334162        -9.0930
  78   2.0000      -0.328316        -8.9339
  79   2.0000      -0.324377        -8.8267
  80   2.0000      -0.312916        -8.5149
  81   2.0000      -0.302526        -8.2322
  82   2.0000      -0.299672        -8.1545
  83   2.0000      -0.278425        -7.5763
  84   2.0000      -0.270442        -7.3591
  85   2.0000      -0.262661        -7.1474
  86   2.0000      -0.256306        -6.9744
  87   2.0000      -0.248627        -6.7655
  88   2.0000      -0.233134        -6.3439
  89   2.0000      -0.216121        -5.8810
  90   2.0000      -0.179914        -4.8957
  91   2.0000      -0.164636        -4.4800
  92   0.0000      -0.128886        -3.5072
  93   0.0000      -0.057027        -1.5518
  94   0.0000      -0.037980        -1.0335
  95   0.0000      -0.017094        -0.4652
  96   0.0000       0.015953         0.4341

MULLIKEN ATOMIC CHARGES
-----------------------
   0 C :   -0.329303
   1 O :   -0.153323
   2 C :    0.207363
   3 O :   -0.447270
   4 C :   -0.101743
   5 N :   -0.206060
   6 C :    0.408118
   7 C :   -0.253021
   8 C :   -0.582419
   9 C :   -0.575497
  10 N :    0.124125
  11 C :   -0.040775
  12 O :   -0.189005
  13 C :   -0.309858
  14 C :    0.297644
  15 N :   -0.038343
  16 N :   -0.328946
  17 C :    0.460867
  18 C :   -0.630542
  19 O :   -0.010923
  20 N :   -0.039757
  21 C :    0.053748
  22 O :   -0.389166
  23 C :   -0.080627
  24 O :   -0.369011
  25 H :    0.165472
  26 H :    0.164697
  27 H :    0.164080
  28 H :    0.195626
  29 H :    0.194511
  30 H :    0.193429
  31 H :    0.194683
  32 H :    0.194309
  33 H :    0.192610
  34 H :    0.341360
  35 H :    0.199438
  36 H :    0.194464
  37 H :    0.195084
  38 H :    0.210815
  39 H :    0.210322
  40 H :    0.205055
  41 H :    0.307770
Sum of atomic charges:    0.0000000

LOEWDIN ATOMIC CHARGES
----------------------
   0 C :   -0.053769
   1 O :   -0.598692
   2 C :    0.388769
   3 O :   -0.476985
   4 C :    0.131524
   5 N :   -0.614216
   6 C :    0.330699
   7 C :    0.114841
   8 C :   -0.335998
   9 C :   -0.336241
  10 N :   -0.502272
  11 C :    0.474934
  12 O :   -0.542652
  13 C :    0.003707
  14 C :    0.417609
  15 N :   -0.311789
  16 N :   -0.326628
  17 C :    0.400924
  18 C :   -0.310306
  19 O :   -0.379654
  20 N :   -0.472074
  21 C :    0.361662
  22 O :   -0.463217
  23 C :    0.231895
  24 O :   -0.556787
  25 H :    0.178298
  26 H :    0.174641
  27 H :    0.174176
  28 H :    0.179332
  29 H :    0.177897
  30 H :    0.179108
  31 H :    0.178891
  32 H :    0.177659
  33 H :    0.179218
  34 H :    0.343428
  35 H :    0.200466
  36 H :    0.196143
  37 H :    0.196024
  38 H :    0.198312
  39 H :    0.195191
  40 H :    0.195568
  41 H :    0.300365

  Mayer bond orders larger than 0.100000
B(  0-C ,  1-O ) :   0.8452 B(  0-C , 25-H ) :   0.9687 B(  0-C , 26-H ) :   0.9619
B(  0-C , 27-H ) :   0.9614 B(  1-O ,  2-C ) :   1.1307 B(  2-C ,  3-O ) :   1.8418
B(  2-C ,  4-C ) :   1.1440 B(  4-C ,  5-N ) :   1.0069 B(  4-C , 23-C ) :   0.9470
B(  5-N ,  6-C ) :   1.6908 B(  5-N ,  7-C ) :   0.1039 B(  5-N , 34-H ) :   0.1094
B(  6-C ,  7-C ) :   0.7300 B(  6-C , 10-N ) :  -0.1246 B(  6-C , 20-N ) :   1.0765
B(  7-C ,  8-C ) :   0.9366 B(  7-C ,  9-C ) :   0.9475 B(  7-C , 10-N ) :   0.9050
B(  8-C , 28-H ) :   0.9647 B(  8-C , 29-H ) :   0.9513 B(  8-C , 30-H ) :   0.9522
B(  9-C , 31-H ) :   0.9620 B(  9-C , 32-H ) :   0.9510 B(  9-C , 33-H ) :   0.9531
B( 10-N , 11-C ) :   1.5264 B( 10-N , 12-O ) :   0.1116 B( 10-N , 34-H ) :   0.7693
B( 11-C , 12-O ) :   1.2301 B( 11-C , 14-C ) :   0.9875 B( 12-O , 13-C ) :   0.8167
B( 13-C , 35-H ) :   0.9498 B( 13-C , 36-H ) :   0.9377 B( 13-C , 37-H ) :   0.9379
B( 14-C , 15-N ) :   1.5718 B( 14-C , 16-N ) :   0.1048 B( 14-C , 19-O ) :   1.1472
B( 15-N , 16-N ) :   1.1930 B( 16-N , 17-C ) :   1.5301 B( 17-C , 18-C ) :   0.8397
B( 17-C , 19-O ) :   1.0636 B( 18-C , 38-H ) :   0.9305 B( 18-C , 39-H ) :   0.9811
B( 18-C , 40-H ) :   0.9446 B( 20-N , 21-C ) :   0.9809 B( 20-N , 41-H ) :   0.8843
B( 21-C , 22-O ) :   2.0855 B( 21-C , 23-C ) :   0.8806 B( 23-C , 24-O ) :   1.9519

Dispersion correction           -0.018758343
FINAL SINGLE POINT ENERGY     -1268.601416326345

DIPOLE MOMENT
-------------
                                X             Y             Z
Electronic contribution:      9.83417      -0.33604       0.43582
Nuclear contribution   :    -22.38233       1.51486      -1.07244
                        -----------------------------------------
Total Dipole Moment    :    -12.54815       1.17882      -0.63662
                        -----------------------------------------
Magnitude (a.u.)       :     12.61947
Magnitude (Debye)      :     32.07615

Rotational constants in cm-1:     0.010753     0.004564     0.003279
Rotational constants in MHz :   322.379049   136.827011    98.297309

                             ****ORCA TERMINATED NORMALLY****
TOTAL RUN TIME: 0 days 0 hours 1 minutes 37 seconds 284 msec
