   * xtb version 6.5.1 (579679a) compiled by 'ehlert@majestix' on 2022-07-11
          program call               : /lustre/hpc/kemi/ree/PhD/git/ReactivityQM/dep/xtb-6.5.1/bin/xtb --gfn 1 /lustre/hpc/kemi/ree/PhD/git/ReactivityQM/calculations/R02oxygendeprot/reac01prodN02/conf17/R02oxygendeprot_reac01prodN02_conf17_gfn1.xyz --opt --vfukui --chrg 0 --uhf 0 --alpb DMSO

   ID    Z sym.   atoms
    1    6 C      1, 3, 5, 7-10, 12, 14, 15, 18, 19, 22, 24
    2    8 O      2, 4, 13, 20, 23, 25
    3    7 N      6, 11, 16, 17, 21
    4    1 H      26-42

      * Solvation model:               ALPB
        Solvent                        DMSO
        Solvent mass                       7.8130E+01 g/mol
          :  Hamiltonian                  GFN1-xTB          :
 * total energy  :   -82.9465100 Eh     change       -0.4157386E-09 Eh
 * total energy  :   -82.9656245 Eh     change       -0.1911452E-01 Eh
 * total energy  :   -82.9743671 Eh     change       -0.8742621E-02 Eh
 * total energy  :   -82.9759884 Eh     change       -0.1621262E-02 Eh
 * total energy  :   -82.9768591 Eh     change       -0.8707906E-03 Eh
 * total energy  :   -82.9771159 Eh     change       -0.2567801E-03 Eh
 * total energy  :   -82.9773021 Eh     change       -0.1862085E-03 Eh
 * total energy  :   -82.9774178 Eh     change       -0.1156220E-03 Eh
 * total energy  :   -82.9775181 Eh     change       -0.1003775E-03 Eh
 * total energy  :   -82.9776205 Eh     change       -0.1023560E-03 Eh
 * total energy  :   -82.9786069 Eh     change       -0.9392465E-05 Eh
 * total energy  :   -82.9786156 Eh     change       -0.8790356E-05 Eh
 * total energy  :   -82.9786222 Eh     change       -0.6548449E-05 Eh
 * total energy  :   -82.9786377 Eh     change       -0.1547392E-04 Eh
 * total energy  :   -82.9786443 Eh     change       -0.6611021E-05 Eh
 * total energy  :   -82.9786549 Eh     change       -0.1065456E-04 Eh
 * total energy  :   -82.9786641 Eh     change       -0.9130818E-05 Eh
 * total energy  :   -82.9786703 Eh     change       -0.6258138E-05 Eh
 * total energy  :   -82.9786744 Eh     change       -0.4085999E-05 Eh
   *** GEOMETRY OPTIMIZATION CONVERGED AFTER 44 ITERATIONS ***

 final structure:
================
42
 xtb: 6.5.1 (579679a)
C            5.09756315753067        2.37195032429201        1.47349094556212
O            4.75550294920348        1.10695347664802        0.92001036744094
C            3.43852316185778        0.88970712888587        0.70801124072509
O            2.60258254685747        1.74221939869843        0.98558351735768
C            3.11748558984120       -0.40862393824617        0.13370718345727
N            1.75931521902523       -0.56726806137647       -0.06728928036740
C            1.28333840651355       -1.64727106261192       -0.56456117335488
C           -0.21988993658160       -1.76891177142771       -0.74348374558554
C           -0.78804786379203       -2.87694092811274        0.14987415435830
C           -0.59286911230126       -1.97763974945039       -2.21453819132675
N           -0.71883477614877       -0.46465211828111       -0.28999112890136
C           -1.94520269568963       -0.04513613319343       -0.21217168151152
O           -2.91434702600731       -0.83650415739922       -0.57563565006170
C           -4.30090025745684       -0.46834345217882       -0.51860475819967
C           -2.11866243978135        1.30332887898607        0.28520660786095
N           -1.13858867140100        2.08830067430235        0.63487028222145
N           -1.69041353860162        3.24766710338859        1.04000196472656
C           -2.98168012894347        3.11758395026964        0.92006489642422
C           -4.02653332437461        4.10757996405889        1.24340244790821
O           -3.31162258673055        1.90771217653327        0.44623509642445
N            2.08364163132510       -2.70087207734973       -0.92880389986825
C            3.45612405396949       -2.68506405095668       -0.79248782445646
O            4.10830025515785       -3.65721504693076       -1.15046548946344
C            4.05180736031637       -1.42558537252533       -0.19358212672950
O            5.28149500075976       -1.37063129642451       -0.03642867957125
H            6.18023279647856        2.38529093374461        1.59407974931070
H            4.61332202143021        2.51198080450273        2.44464666756014
H            4.78772561514666        3.18092652521668        0.80497680010139
H           -0.58229861375680       -2.65466252917516        1.19594650221402
H           -0.31977117038967       -3.82341379717518       -0.11290948273426
H           -1.86207427828702       -2.96720239039437        0.00833125389440
H           -0.20312636071073       -1.15965070869110       -2.81840660204924
H           -0.16619397903313       -2.91546653367563       -2.56436809742462
H           -1.67304736967465       -2.02272461253260       -2.32870306795835
H            0.06169355313175        0.15463920363116        0.01096160006923
H           -4.84458465630582       -1.33991078307430       -0.87802830849528
H           -4.58634177855086       -0.23776228924446        0.50789903387201
H           -4.48887252869475        0.39029510716020       -1.16344159071764
H           -4.61895698356167        3.75459689837630        2.08807318112340
H           -3.56736590186473        5.06050395228310        1.49496275052380
H           -4.69730166592733        4.22964504944994        0.39407913748069
H            1.67887232603428       -3.52942968998979       -1.33051460184900

          :  Hamiltonian                  GFN1-xTB          :
         :: total energy             -82.978674409534 Eh    ::
         :: gradient norm              0.000566033579 Eh/a0 ::
         :: HOMO-LUMO gap              0.416203488024 eV    ::
         :: SCC energy               -83.754877729879 Eh    ::
         :: -> Gsolv                  -0.100928607288 Eh    ::
         :: repulsion energy           0.801941251668 Eh    ::

    * Orbital Energies and Occupations

         #    Occupation            Energy/Eh            Energy/eV
      -------------------------------------------------------------
         1        2.0000           -0.8956356             -24.3715
       ...           ...                  ...                  ...
        55        2.0000           -0.5086057             -13.8399
        56        2.0000           -0.5014185             -13.6443
        57        2.0000           -0.4989598             -13.5774
        58        2.0000           -0.4949609             -13.4686
        59        2.0000           -0.4811912             -13.0939
        60        2.0000           -0.4775084             -12.9937
        61        2.0000           -0.4731758             -12.8758
        62        2.0000           -0.4699262             -12.7873
        63        2.0000           -0.4559663             -12.4075
        64        2.0000           -0.4477097             -12.1828
        65        2.0000           -0.4370320             -11.8922
        66        2.0000           -0.3923615             -10.6767
        67        1.9994           -0.3793135             -10.3216 (HOMO)
        68        0.0006           -0.3640183              -9.9054 (LUMO)
        69                         -0.2822210              -7.6796
        70                         -0.2820547              -7.6751
        71                         -0.2573956              -7.0041
        72                         -0.2455221              -6.6810
        73                         -0.2086138              -5.6767
        74                         -0.1548092              -4.2126
        75                         -0.1525666              -4.1515
        76                         -0.1424618              -3.8766
        77                         -0.1345448              -3.6611
        78                         -0.1268917              -3.4529
       ...                                ...                  ...
       134                          0.7530339              20.4911
      -------------------------------------------------------------
                  HL-Gap            0.0152952 Eh            0.4162 eV

Wiberg/Mayer (AO) data.
largest (>0.10) Wiberg bond orders for each atom

     #   Z sym  total        # sym  WBO       # sym  WBO       # sym  WBO
 ---------------------------------------------------------------------------
     1   6 C    3.894 --    26 H    0.987    28 H    0.981    27 H    0.981
                             2 O    0.920
     2   8 O    2.169 --     3 C    1.061     1 C    0.920     4 O    0.112
     3   6 C    3.853 --     4 O    1.575     5 C    1.108     2 O    1.061
     4   8 O    1.852 --     3 C    1.575     2 O    0.112
     5   6 C    3.907 --    24 C    1.266     6 N    1.146     3 C    1.108
                            25 O    0.129
     6   7 N    3.094 --     7 C    1.616     5 C    1.146
     7   6 C    3.937 --     6 N    1.616    21 N    1.113     8 C    0.974
     8   6 C    3.904 --    10 C    0.980     9 C    0.979     7 C    0.974
                            11 N    0.900
     9   6 C    3.984 --    29 H    0.984    31 H    0.982    30 H    0.981
                             8 C    0.979
    10   6 C    3.985 --    32 H    0.984    34 H    0.982    33 H    0.981
                             8 C    0.980
    11   7 N    3.501 --    12 C    1.491     8 C    0.900    35 H    0.817
                            13 O    0.114
    12   6 C    3.899 --    11 N    1.491    13 O    1.186    15 C    1.076
    13   8 O    2.271 --    12 C    1.186    14 C    0.862    11 N    0.114
    14   6 C    3.830 --    36 H    0.981    37 H    0.976    38 H    0.976
                            13 O    0.862
    15   6 C    3.889 --    16 N    1.558    12 C    1.076    20 O    1.053
    16   7 N    3.030 --    15 C    1.558    17 N    1.247
    17   7 N    2.990 --    18 C    1.561    16 N    1.247
    18   6 C    3.854 --    17 N    1.561    20 O    1.082    19 C    1.038
    19   6 C    3.980 --    18 C    1.038    40 H    0.980    41 H    0.960
                            39 H    0.953
    20   8 O    2.336 --    18 C    1.082    15 C    1.053
    21   7 N    3.424 --    22 C    1.139     7 C    1.113    42 H    0.894
                            23 O    0.132
    22   6 C    3.873 --    23 O    1.602    21 N    1.139    24 C    0.961
    23   8 O    1.880 --    22 C    1.602    21 N    0.132
    24   6 C    3.943 --    25 O    1.535     5 C    1.266    22 C    0.961
    25   8 O    1.840 --    24 C    1.535     5 C    0.129
    26   1 H    1.015 --     1 C    0.987
    27   1 H    1.013 --     1 C    0.981
    28   1 H    1.013 --     1 C    0.981
    29   1 H    1.000 --     9 C    0.984
    30   1 H    0.998 --     9 C    0.981
    31   1 H    1.003 --     9 C    0.982
    32   1 H    1.000 --    10 C    0.984
    33   1 H    0.998 --    10 C    0.981
    34   1 H    1.002 --    10 C    0.982
    35   1 H    0.961 --    11 N    0.817
    36   1 H    1.003 --    14 C    0.981
    37   1 H    1.003 --    14 C    0.976
    38   1 H    1.003 --    14 C    0.976
    39   1 H    0.992 --    19 C    0.953
    40   1 H    0.995 --    19 C    0.980
    41   1 H    0.992 --    19 C    0.960
    42   1 H    0.940 --    21 N    0.894
 ---------------------------------------------------------------------------

           -------------------------------------------------
          | TOTAL ENERGY              -82.978674409534 Eh   |
          | GRADIENT NORM               0.000566033579 Eh/α |
          | HOMO-LUMO GAP               0.416203488024 eV   |
           -------------------------------------------------

 * finished run on 2023/06/21 at 17:18:13.681
