   * xtb version 6.5.1 (579679a) compiled by 'ehlert@majestix' on 2022-07-11
          program call               : /lustre/hpc/kemi/ree/PhD/git/ReactivityQM/dep/xtb-6.5.1/bin/xtb --gfn 1 /lustre/hpc/kemi/ree/PhD/git/ReactivityQM/calculations/R02oxygendeprot/reac01prodE11/conf17/R02oxygendeprot_reac01prodE11_conf17_gfn1.xyz --opt --vfukui --chrg -2 --uhf 0 --alpb DMSO

   ID    Z sym.   atoms
    1    6 C      1, 3, 5, 7-10, 12, 14, 17-19, 22, 24
    2    8 O      2, 4, 13, 20, 23, 25
    3    7 N      6, 11, 15, 16, 21
    4    1 H      26-42

      * Solvation model:               ALPB
        Solvent                        DMSO
        Solvent mass                       7.8130E+01 g/mol
          :  Hamiltonian                  GFN1-xTB          :
 * total energy  :   -83.6552149 Eh     change       -0.6484413E-10 Eh
 * total energy  :   -83.6642066 Eh     change       -0.8991761E-02 Eh
 * total energy  :   -83.6668540 Eh     change       -0.2647381E-02 Eh
 * total energy  :   -83.6674579 Eh     change       -0.6038653E-03 Eh
 * total energy  :   -83.6680242 Eh     change       -0.5663504E-03 Eh
 * total energy  :   -83.6682703 Eh     change       -0.2460611E-03 Eh
 * total energy  :   -83.6684153 Eh     change       -0.1450402E-03 Eh
 * total energy  :   -83.6684799 Eh     change       -0.6460145E-04 Eh
 * total energy  :   -83.6685074 Eh     change       -0.2748707E-04 Eh
 * total energy  :   -83.6685242 Eh     change       -0.1672907E-04 Eh
 * total energy  :   -83.6685394 Eh     change       -0.1519920E-04 Eh
 * total energy  :   -83.6685465 Eh     change       -0.7116970E-05 Eh
 * total energy  :   -83.6685574 Eh     change       -0.1092024E-04 Eh
 * total energy  :   -83.6685622 Eh     change       -0.4789557E-05 Eh
   *** GEOMETRY OPTIMIZATION CONVERGED AFTER 14 ITERATIONS ***

 final structure:
================
42
 xtb: 6.5.1 (579679a)
C           -6.03016262534311        1.25675341200799       -1.03165787011370
O           -4.79171234592218        0.63839705177267       -0.72265851122096
C           -4.50177399524622       -0.49690383370716       -1.43754327078106
O           -5.29231147576102       -0.91062925311334       -2.27387712309948
C           -3.22262476201309       -1.07415785083397       -1.07094508988209
N           -2.52660542290420       -0.39094988601283       -0.08843006771715
C           -1.38503877276867       -0.81199886001399        0.31345899508883
C           -0.64459292413041       -0.11542381152838        1.44053434104478
C           -0.94568605458261       -0.89552934981863        2.73280500531409
C           -1.13869980971662        1.33412215352250        1.55656813205397
N            0.78402731493874       -0.17601544848624        1.13225731314799
C            1.71307416426581        0.48415685087075        1.96569319988814
O            1.44949356557966        0.77452986515752        3.15172809471095
C            2.95864470730878        0.72279368058921        1.34737149323394
N            4.02936462632758        1.28284409179058        1.89526373377948
N            5.00460649259698        1.36977256062972        1.04344884720194
C            4.53755172989473        0.79664995100802       -0.22994401537425
C            4.59935312210321        1.86490856066296       -1.33397059760061
C            5.40693168012278       -0.41795661631849       -0.59837925501867
O            3.19450942630276        0.39195431572260       -0.00484177151476
N           -0.81299539746975       -1.96034285151141       -0.19599895653344
C           -1.38922039252330       -2.73717288876712       -1.16327518455254
O           -0.81551261787799       -3.75219681012219       -1.55846381505794
C           -2.73284973373623       -2.26330984869628       -1.67311932155015
O           -3.30650770329341       -2.93001544379524       -2.55576826852990
H           -6.04694999327445        1.59896581550222       -2.07177317594235
H           -6.13735605866276        2.11106569970565       -0.36425070174671
H           -6.86310497083998        0.56278425246455       -0.87669332024656
H           -2.02423530301210       -0.96058384791729        2.87458136625316
H           -0.50711563637489       -0.39913440475640        3.59637659603572
H           -0.53779581497321       -1.90315762814043        2.65965055591097
H           -2.22219544678317        1.33950542641165        1.67247024723558
H           -0.88230539930333        1.88954543899149        0.65480098584030
H           -0.68574259915138        1.82145976886440        2.41824745794525
H            0.98667761471783       -0.03490873538059        0.14929879419851
H            4.25187796394657        1.45308306963913       -2.27990188925255
H            3.96749838786675        2.70776829994529       -1.05811582974138
H            5.62413005348510        2.21244961937181       -1.44737431983868
H            5.36263126283858       -1.15061290205764        0.20598126356327
H            6.43932040467143       -0.10164200058638       -0.73268293723218
H            5.04730127650442       -0.87596715099358       -1.51827600672546
H            0.08610146218877       -2.25490246208122        0.15644887681636

          :  Hamiltonian                  GFN1-xTB          :
         :: total energy             -83.668562186867 Eh    ::
         :: gradient norm              0.000818866264 Eh/a0 ::
         :: HOMO-LUMO gap              1.346511530599 eV    ::
         :: SCC energy               -84.405882039197 Eh    ::
         :: -> Gsolv                  -0.253026312130 Eh    ::
         :: repulsion energy           0.762830341941 Eh    ::

    * Orbital Energies and Occupations

         #    Occupation            Energy/Eh            Energy/eV
      -------------------------------------------------------------
         1        2.0000           -0.7906504             -21.5147
       ...           ...                  ...                  ...
        56        2.0000           -0.4452631             -12.1162
        57        2.0000           -0.4425740             -12.0431
        58        2.0000           -0.4301112             -11.7039
        59        2.0000           -0.4294677             -11.6864
        60        2.0000           -0.4281001             -11.6492
        61        2.0000           -0.4090700             -11.1314
        62        2.0000           -0.4050095             -11.0209
        63        2.0000           -0.3997569             -10.8779
        64        2.0000           -0.3871299             -10.5343
        65        2.0000           -0.3681316             -10.0174
        66        2.0000           -0.3648105              -9.9270
        67        2.0000           -0.3553164              -9.6687
        68        2.0000           -0.3110394              -8.4638 (HOMO)
        69                         -0.2615560              -7.1173 (LUMO)
        70                         -0.2336193              -6.3571
        71                         -0.2252371              -6.1290
        72                         -0.1880386              -5.1168
        73                         -0.1211264              -3.2960
        74                         -0.1188647              -3.2345
        75                         -0.1010818              -2.7506
        76                         -0.1008754              -2.7450
        77                         -0.0974578              -2.6520
        78                         -0.0949615              -2.5840
        79                         -0.0947931              -2.5795
       ...                                ...                  ...
       134                          0.7703159              20.9614
      -------------------------------------------------------------
                  HL-Gap            0.0494834 Eh            1.3465 eV

Wiberg/Mayer (AO) data.
largest (>0.10) Wiberg bond orders for each atom

     #   Z sym  total        # sym  WBO       # sym  WBO       # sym  WBO
 ---------------------------------------------------------------------------
     1   6 C    3.903 --    27 H    0.987    26 H    0.980    28 H    0.980
                             2 O    0.931
     2   8 O    2.133 --     3 C    1.018     1 C    0.931     4 O    0.106
     3   6 C    3.849 --     4 O    1.585     5 C    1.128     2 O    1.018
     4   8 O    1.862 --     3 C    1.585     2 O    0.106
     5   6 C    3.918 --    24 C    1.271     6 N    1.148     3 C    1.128
                            25 O    0.129
     6   7 N    3.025 --     7 C    1.635     5 C    1.148
     7   6 C    3.929 --     6 N    1.635    21 N    1.094     8 C    0.978
     8   6 C    3.958 --    10 C    0.990     9 C    0.981     7 C    0.978
                            11 N    0.952
     9   6 C    3.992 --    29 H    0.988    31 H    0.986     8 C    0.981
                            30 H    0.978
    10   6 C    3.994 --     8 C    0.990    33 H    0.986    32 H    0.985
                            34 H    0.984
    11   7 N    3.179 --    12 C    1.058     8 C    0.952    35 H    0.919
    12   6 C    3.924 --    13 O    1.450    14 C    1.235    11 N    1.058
    13   8 O    1.791 --    12 C    1.450
    14   6 C    3.843 --    15 N    1.393    12 C    1.235    20 O    0.922
                            16 N    0.156
    15   7 N    3.024 --    16 N    1.474    14 C    1.393
    16   7 N    2.879 --    15 N    1.474    17 C    0.981    14 C    0.156
    17   6 C    3.899 --    16 N    0.981    18 C    0.978    19 C    0.977
                            20 O    0.924
    18   6 C    3.994 --    38 H    0.988    36 H    0.987    37 H    0.985
                            17 C    0.978
    19   6 C    3.993 --    40 H    0.988    41 H    0.987    39 H    0.985
                            17 C    0.977
    20   8 O    2.053 --    17 C    0.924    14 C    0.922
    21   7 N    3.434 --    22 C    1.172     7 C    1.094    42 H    0.895
                            23 O    0.136
    22   6 C    3.881 --    23 O    1.567    21 N    1.172    24 C    0.969
    23   8 O    1.846 --    22 C    1.567    21 N    0.136
    24   6 C    3.943 --    25 O    1.515     5 C    1.271    22 C    0.969
    25   8 O    1.819 --    24 C    1.515     5 C    0.129
    26   1 H    1.014 --     1 C    0.980
    27   1 H    1.017 --     1 C    0.987
    28   1 H    1.015 --     1 C    0.980
    29   1 H    1.008 --     9 C    0.988
    30   1 H    1.024 --     9 C    0.978
    31   1 H    1.009 --     9 C    0.986
    32   1 H    1.019 --    10 C    0.985
    33   1 H    1.008 --    10 C    0.986
    34   1 H    1.016 --    10 C    0.984
    35   1 H    0.969 --    11 N    0.919
    36   1 H    1.008 --    18 C    0.987
    37   1 H    1.015 --    18 C    0.985
    38   1 H    1.011 --    18 C    0.988
    39   1 H    1.015 --    19 C    0.985
    40   1 H    1.011 --    19 C    0.988
    41   1 H    1.008 --    19 C    0.987
    42   1 H    0.954 --    21 N    0.895
 ---------------------------------------------------------------------------

           -------------------------------------------------
          | TOTAL ENERGY              -83.668562186867 Eh   |
          | GRADIENT NORM               0.000818866264 Eh/α |
          | HOMO-LUMO GAP               1.346511530599 eV   |
           -------------------------------------------------

 * finished run on 2023/06/21 at 17:12:35.824
