   * xtb version 6.5.1 (579679a) compiled by 'ehlert@majestix' on 2022-07-11
          program call               : /lustre/hpc/kemi/ree/PhD/git/ReactivityQM/dep/xtb-6.5.1/bin/xtb --gfn 1 /lustre/hpc/kemi/ree/PhD/git/ReactivityQM/calculations/R02oxygendeprot/reac01prodN13/conf09/R02oxygendeprot_reac01prodN13_conf09_gfn1.xyz --opt --vfukui --chrg 0 --uhf 0 --alpb DMSO

   ID    Z sym.   atoms
    1    6 C      1, 3, 5, 7-10, 12, 14, 17-19, 22, 24
    2    8 O      2, 4, 13, 20, 23, 25
    3    7 N      6, 11, 15, 16, 21
    4    1 H      26-42

      * Solvation model:               ALPB
        Solvent                        DMSO
        Solvent mass                       7.8130E+01 g/mol
          :  Hamiltonian                  GFN1-xTB          :
 * total energy  :   -82.9215292 Eh     change       -0.9535484E-11 Eh
 * total energy  :   -82.9324228 Eh     change       -0.1089365E-01 Eh
 * total energy  :   -82.9368681 Eh     change       -0.4445232E-02 Eh
 * total energy  :   -82.9375583 Eh     change       -0.6901995E-03 Eh
 * total energy  :   -82.9379676 Eh     change       -0.4093088E-03 Eh
 * total energy  :   -82.9381665 Eh     change       -0.1989467E-03 Eh
 * total energy  :   -82.9383240 Eh     change       -0.1575118E-03 Eh
 * total energy  :   -82.9384692 Eh     change       -0.1451678E-03 Eh
 * total energy  :   -82.9385855 Eh     change       -0.1163196E-03 Eh
 * total energy  :   -82.9386733 Eh     change       -0.8782383E-04 Eh
 * total energy  :   -82.9394689 Eh     change       -0.5846753E-05 Eh
 * total energy  :   -82.9394751 Eh     change       -0.6213360E-05 Eh
 * total energy  :   -82.9394835 Eh     change       -0.8304810E-05 Eh
 * total energy  :   -82.9394930 Eh     change       -0.9510692E-05 Eh
 * total energy  :   -82.9395010 Eh     change       -0.8050699E-05 Eh
 * total energy  :   -82.9395076 Eh     change       -0.6628842E-05 Eh
 * total energy  :   -82.9395137 Eh     change       -0.6099231E-05 Eh
 * total energy  :   -82.9395189 Eh     change       -0.5151150E-05 Eh
 * total energy  :   -82.9395217 Eh     change       -0.2852507E-05 Eh
   *** GEOMETRY OPTIMIZATION CONVERGED AFTER 37 ITERATIONS ***

 final structure:
================
42
 xtb: 6.5.1 (579679a)
C           -6.67626833350903        1.98733869017077       -0.57562163440987
O           -5.62072918573389        1.04800682491452       -0.78291182244181
C           -4.58274808336232        1.13108189468729        0.05029297059952
O           -4.51705197274741        1.95701996578376        0.93846174358697
C           -3.52073302024419        0.12325189962773       -0.20300721198370
N           -2.49399652087856        0.20211396589447        0.66744565389490
C           -1.48106999646644       -0.61499966877183        0.59457524824521
C           -0.36790983313234       -0.49592247943314        1.62163473162659
C           -0.13358215837495       -1.82415181333148        2.34923914838166
C           -0.71741378769908        0.60067072492969        2.62842919162308
N            0.85554799076806       -0.06052726308949        0.92612243577754
C            1.62798370510261       -0.83393867323136        0.13831684024382
O            1.41072759004716       -1.99423745592215       -0.17142802020023
C            2.81606888365429       -0.08638893207041       -0.34287709179051
N            3.04324876500779        1.21715893050752       -0.10270719940933
N            4.15299446209596        1.54752059074058       -0.65383592038621
C            4.71640615369060        0.39199255373755       -1.30631304275573
C            6.06107243577553        0.02443345623000       -0.67351533409818
C            4.82724655893262        0.63124466121632       -2.81454361925903
O            3.76454339764243       -0.64234770370494       -1.05225323184403
N           -1.39454598383099       -1.56148491971252       -0.36980642647139
C           -2.34936446268764       -1.75737292030509       -1.35191929532297
O           -2.19487312368872       -2.61974599133216       -2.19425335701818
C           -3.55453695889316       -0.84042007885136       -1.27376363087371
O           -4.45377829214159       -0.95698307413121       -2.10321751932475
H           -7.07291263824506        1.89122167388244        0.43830941279307
H           -7.44889030307687        1.75699774150316       -1.30673295979707
H           -6.30851496625469        3.00614865431547       -0.72136644430560
H           -1.01527347408066       -2.06515531267176        2.94098005092281
H            0.72358967679532       -1.72557331939948        3.01251293077575
H            0.05372102184658       -2.63699321968092        1.65177322572650
H           -0.87168410203894        1.54971700106176        2.11709788377181
H           -1.63490530694003        0.33572679512443        3.15143704417648
H            0.08783785099035        0.70709286768372        3.35203913835631
H            1.15646341556227        0.88844090224966        1.09172132807829
H            6.43737763362547       -0.88533643711615       -1.13510835677080
H            5.92479659838455       -0.13733538139261        0.39344220923749
H            6.76459552101285        0.83740970155305       -0.83343610635604
H            3.84491771260198        0.87323946130207       -3.21489835542197
H            5.50986400440778        1.45773217702511       -2.99430199646773
H            5.20454428868914       -0.26952176892234       -3.29258263455330
H           -0.57276416260294       -2.15712072107070       -0.40951197654802

          :  Hamiltonian                  GFN1-xTB          :
         :: total energy             -82.939521746626 Eh    ::
         :: gradient norm              0.000362304353 Eh/a0 ::
         :: HOMO-LUMO gap              0.058468942880 eV    ::
         :: SCC energy               -83.704165674525 Eh    ::
         :: -> Gsolv                  -0.065470793721 Eh    ::
         :: repulsion energy           0.790207552738 Eh    ::

    * Orbital Energies and Occupations

         #    Occupation            Energy/Eh            Energy/eV
      -------------------------------------------------------------
         1        2.0000           -0.8808999             -23.9705
       ...           ...                  ...                  ...
        55        2.0000           -0.5173443             -14.0777
        56        2.0000           -0.5115225             -13.9192
        57        2.0000           -0.5092716             -13.8580
        58        2.0000           -0.5034604             -13.6999
        59        2.0000           -0.4918265             -13.3833
        60        2.0000           -0.4859919             -13.2245
        61        2.0000           -0.4832146             -13.1489
        62        2.0000           -0.4772013             -12.9853
        63        2.0000           -0.4740257             -12.8989
        64        2.0000           -0.4693017             -12.7703
        65        2.0000           -0.4581166             -12.4660
        66        2.0000           -0.4235528             -11.5255
        67        1.5120           -0.4079755             -11.1016 (HOMO)
        68        0.4880           -0.4058268             -11.0431 (LUMO)
        69                         -0.3255403              -8.8584
        70                         -0.3096724              -8.4266
        71                         -0.2853125              -7.7637
        72                         -0.2351957              -6.4000
        73                         -0.2250970              -6.1252
        74                         -0.1573843              -4.2826
        75                         -0.1437331              -3.9112
        76                         -0.1382383              -3.7617
        77                         -0.1348452              -3.6693
        78                         -0.1344273              -3.6580
       ...                                ...                  ...
       134                          0.7471688              20.3315
      -------------------------------------------------------------
                  HL-Gap            0.0021487 Eh            0.0585 eV

Wiberg/Mayer (AO) data.
largest (>0.10) Wiberg bond orders for each atom

     #   Z sym  total        # sym  WBO       # sym  WBO       # sym  WBO
 ---------------------------------------------------------------------------
     1   6 C    3.875 --    27 H    0.986    26 H    0.979    28 H    0.979
                             2 O    0.902
     2   8 O    2.194 --     3 C    1.109     1 C    0.902     4 O    0.132
     3   6 C    3.841 --     4 O    1.633     2 O    1.109     5 C    1.022
     4   8 O    1.878 --     3 C    1.633     2 O    0.132
     5   6 C    3.716 --     6 N    1.303    24 C    1.160     3 C    1.022
     6   7 N    2.984 --     7 C    1.467     5 C    1.303
     7   6 C    3.794 --     6 N    1.467    21 N    1.211     8 C    0.968
     8   6 C    3.924 --    10 C    1.001     9 C    0.985     7 C    0.968
                            11 N    0.907
     9   6 C    3.981 --     8 C    0.985    29 H    0.983    30 H    0.983
                            31 H    0.978
    10   6 C    3.989 --     8 C    1.001    34 H    0.985    32 H    0.982
                            33 H    0.981
    11   7 N    3.335 --    12 C    1.260     8 C    0.907    35 H    0.888
                            13 O    0.187
    12   6 C    3.910 --    13 O    1.568    11 N    1.260    14 C    0.994
    13   8 O    1.908 --    12 C    1.568    11 N    0.187
    14   6 C    3.642 --    15 N    1.307    20 O    1.192    12 C    0.994
    15   7 N    3.015 --    16 N    1.541    14 C    1.307
    16   7 N    2.686 --    15 N    1.541    17 C    1.021
    17   6 C    3.836 --    16 N    1.021    18 C    0.938    19 C    0.938
                            20 O    0.878
    18   6 C    3.936 --    37 H    0.982    38 H    0.982    36 H    0.980
                            17 C    0.938
    19   6 C    3.936 --    39 H    0.982    40 H    0.982    41 H    0.980
                            17 C    0.938
    20   8 O    2.211 --    14 C    1.192    17 C    0.878
    21   7 N    3.432 --     7 C    1.211    22 C    1.111    42 H    0.856
                            23 O    0.110
    22   6 C    3.841 --    23 O    1.652    21 N    1.111    24 C    0.948
    23   8 O    1.870 --    22 C    1.652    21 N    0.110
    24   6 C    3.864 --    25 O    1.616     5 C    1.160    22 C    0.948
    25   8 O    1.792 --    24 C    1.616
    26   1 H    1.007 --     1 C    0.979
    27   1 H    1.011 --     1 C    0.986
    28   1 H    1.007 --     1 C    0.979
    29   1 H    0.999 --     9 C    0.983
    30   1 H    0.998 --     9 C    0.983
    31   1 H    1.007 --     9 C    0.978
    32   1 H    1.006 --    10 C    0.982
    33   1 H    1.005 --    10 C    0.981
    34   1 H    0.998 --    10 C    0.985
    35   1 H    0.944 --    11 N    0.888
    36   1 H    0.996 --    18 C    0.980
    37   1 H    0.996 --    18 C    0.982
    38   1 H    0.997 --    18 C    0.982
    39   1 H    0.996 --    19 C    0.982
    40   1 H    0.997 --    19 C    0.982
    41   1 H    0.996 --    19 C    0.980
    42   1 H    0.934 --    21 N    0.856
 ---------------------------------------------------------------------------

           -------------------------------------------------
          | TOTAL ENERGY              -82.939521746626 Eh   |
          | GRADIENT NORM               0.000362304353 Eh/α |
          | HOMO-LUMO GAP               0.058468942880 eV   |
           -------------------------------------------------

 * finished run on 2023/06/21 at 17:29:05.116
