   * xtb version 6.5.1 (579679a) compiled by 'ehlert@majestix' on 2022-07-11
          program call               : /lustre/hpc/kemi/ree/PhD/git/ReactivityQM/dep/xtb-6.5.1/bin/xtb --gfn 1 /lustre/hpc/kemi/ree/PhD/git/ReactivityQM/calculations/R02/reac01prodE04/conf12/R02_reac01prodE04_conf12_gfn1.xyz --opt --vfukui --chrg -1 --uhf 0 --alpb DMSO

   ID    Z sym.   atoms
    1    6 C      1, 3, 5, 6, 8-11, 13, 15, 18, 19, 22, 24
    2    8 O      2, 4, 14, 20, 23, 25
    3    7 N      7, 12, 16, 17, 21
    4    1 H      26-43

      * Solvation model:               ALPB
        Solvent                        DMSO
        Solvent mass                       7.8130E+01 g/mol
          :  Hamiltonian                  GFN1-xTB          :
 * total energy  :   -83.8423604 Eh     change       -0.5613288E-11 Eh
 * total energy  :   -83.8570284 Eh     change       -0.1466799E-01 Eh
 * total energy  :   -83.8631062 Eh     change       -0.6077818E-02 Eh
 * total energy  :   -83.8644058 Eh     change       -0.1299568E-02 Eh
 * total energy  :   -83.8653314 Eh     change       -0.9256618E-03 Eh
 * total energy  :   -83.8658235 Eh     change       -0.4920230E-03 Eh
 * total energy  :   -83.8661848 Eh     change       -0.3613175E-03 Eh
 * total energy  :   -83.8664823 Eh     change       -0.2975262E-03 Eh
 * total energy  :   -83.8667407 Eh     change       -0.2583844E-03 Eh
 * total energy  :   -83.8669917 Eh     change       -0.2510116E-03 Eh
 * total energy  :   -83.8719450 Eh     change       -0.1278967E-04 Eh
 * total energy  :   -83.8719571 Eh     change       -0.1211776E-04 Eh
 * total energy  :   -83.8719681 Eh     change       -0.1097201E-04 Eh
 * total energy  :   -83.8719778 Eh     change       -0.9659245E-05 Eh
 * total energy  :   -83.8719861 Eh     change       -0.8376056E-05 Eh
 * total energy  :   -83.8719933 Eh     change       -0.7142977E-05 Eh
 * total energy  :   -83.8719996 Eh     change       -0.6275059E-05 Eh
 * total energy  :   -83.8720053 Eh     change       -0.5783318E-05 Eh
 * total energy  :   -83.8720099 Eh     change       -0.4538240E-05 Eh
   *** GEOMETRY OPTIMIZATION CONVERGED AFTER 68 ITERATIONS ***

 final structure:
================
43
 xtb: 6.5.1 (579679a)
C           -4.87802655898268        1.02750793226709       -1.52316079802963
O           -3.71752830712931        0.32327740114489       -1.08666102965452
C           -3.93333952485512       -0.71074290520431       -0.25179594726908
O           -5.05691317468336       -1.01912882679937        0.11770005503971
C           -2.66527881988550       -1.31974380088560        0.33540988273042
C           -2.81538065383319       -2.84265316409320        0.46291097891390
N           -1.49987266873851       -1.03347805808760       -0.48636849987843
C           -0.77487016043986       -0.02161920369000       -0.19379562243502
C            0.40812918746246        0.30867579892469       -1.09725362373645
C            0.17040653742028        1.66690202256742       -1.76902266767657
C            0.59593004777018       -0.79153414187356       -2.14520229737811
N            1.59593708920579        0.37616684296774       -0.23237565646154
C            2.83840468556677        0.63394650606835       -0.67335250425860
O            3.14937801545809        0.92959917372614       -1.81600076065959
C            3.82748009708448        0.51069079367963        0.43438094524606
N            3.55920313583613        0.20799903811526        1.66832649297947
N            4.74878636326947        0.17987334491692        2.33477224368511
C            5.66625659659851        0.46496885488476        1.46298660161031
C            7.12649666973250        0.55156348583011        1.68404021805776
O            5.14875387483845        0.68491804962983        0.24476494888062
N           -0.98209819899125        0.81343780722080        0.85164968001268
C           -1.87536194389325        0.47047910296533        1.95595461489482
O           -1.75201584091058        1.17030847985411        2.99153675684192
C           -2.65457882819555       -0.61955392229576        1.68567786790399
O           -3.58099734792191       -1.12094671444309        2.62558387380269
H           -5.56565662398654        0.34733146185131       -2.03373368807323
H           -4.54167531368873        1.79988828277614       -2.21260358100623
H           -5.39444634718722        1.48205069043014       -0.67287922086526
H           -3.75031464043214       -3.08731995023664        0.96459560518961
H           -1.98391017957922       -3.24538577839619        1.04013350249292
H           -2.81018381994009       -3.29794569980809       -0.52684786577957
H            0.08035697301853        2.45006474551430       -1.01816145933033
H            0.99341618621145        1.91098677550074       -2.43804200820287
H           -0.75269816456873        1.62371546026480       -2.34564870928135
H            0.78757262477992       -1.74440980377502       -1.65368926335778
H           -0.31546167319466       -0.88211333831351       -2.73452106226826
H            1.42698855544317       -0.55260101442057       -2.80572703445097
H            1.49076297155313        0.10319231273619        0.73545540023687
H            7.49355185228279        1.53036697075780        1.37737398972810
H            7.34747148354414        0.39110973625791        2.73624066509350
H            7.63833217204984       -0.20269684293613        1.08653048719725
H           -0.30837273387996        1.53096230774157        1.06039311720117
H           -4.48463459421819       -0.99811221333093        2.29102937230972

          :  Hamiltonian                  GFN1-xTB          :
         :: total energy             -83.872009877901 Eh    ::
         :: gradient norm              0.000233807517 Eh/a0 ::
         :: HOMO-LUMO gap              0.437740214490 eV    ::
         :: SCC energy               -84.636415011753 Eh    ::
         :: -> Gsolv                  -0.117878651639 Eh    ::
         :: repulsion energy           0.791583805508 Eh    ::

    * Orbital Energies and Occupations

         #    Occupation            Energy/Eh            Energy/eV
      -------------------------------------------------------------
         1        2.0000           -0.8588656             -23.3709
       ...           ...                  ...                  ...
        56        2.0000           -0.4754045             -12.9364
        57        2.0000           -0.4699188             -12.7871
        58        2.0000           -0.4653879             -12.6638
        59        2.0000           -0.4590604             -12.4917
        60        2.0000           -0.4552496             -12.3880
        61        2.0000           -0.4540796             -12.3561
        62        2.0000           -0.4444146             -12.0931
        63        2.0000           -0.4371763             -11.8962
        64        2.0000           -0.4337477             -11.8029
        65        2.0000           -0.3959521             -10.7744
        66        2.0000           -0.3900525             -10.6139
        67        2.0000           -0.3778251             -10.2811
        68        1.9996           -0.3188932              -8.6775 (HOMO)
        69        0.0004           -0.3028066              -8.2398 (LUMO)
        70                         -0.2526887              -6.8760
        71                         -0.2343627              -6.3773
        72                         -0.2215828              -6.0296
        73                         -0.1911285              -5.2009
        74                         -0.1407627              -3.8303
        75                         -0.1322599              -3.5990
        76                         -0.1269965              -3.4557
        77                         -0.1126482              -3.0653
        78                         -0.1086563              -2.9567
        79                         -0.0981172              -2.6699
       ...                                ...                  ...
       136                          0.7307754              19.8854
      -------------------------------------------------------------
                  HL-Gap            0.0160867 Eh            0.4377 eV

Wiberg/Mayer (AO) data.
largest (>0.10) Wiberg bond orders for each atom

     #   Z sym  total        # sym  WBO       # sym  WBO       # sym  WBO
 ---------------------------------------------------------------------------
     1   6 C    3.890 --    27 H    0.987    26 H    0.981    28 H    0.981
                             2 O    0.912
     2   8 O    2.172 --     3 C    1.078     1 C    0.912     4 O    0.113
     3   6 C    3.816 --     4 O    1.602     2 O    1.078     5 C    0.933
     4   8 O    1.895 --     3 C    1.602     2 O    0.113
     5   6 C    3.962 --     6 C    0.984     7 N    0.977     3 C    0.933
                            24 C    0.932
     6   6 C    3.996 --    31 H    0.988    30 H    0.987    29 H    0.985
                             5 C    0.984
     7   7 N    2.979 --     8 C    1.674     5 C    0.977    21 N    0.171
     8   6 C    3.952 --     7 N    1.674    21 N    1.197     9 C    0.965
     9   6 C    3.926 --    11 C    0.995    10 C    0.986     8 C    0.965
                            12 N    0.909
    10   6 C    3.993 --     9 C    0.986    34 H    0.986    32 H    0.984
                            33 H    0.981
    11   6 C    3.993 --     9 C    0.995    35 H    0.985    36 H    0.984
                            37 H    0.984
    12   7 N    3.362 --    13 C    1.275     9 C    0.909    38 H    0.897
                            14 O    0.182
    13   6 C    3.921 --    14 O    1.580    12 N    1.275    15 C    0.983
    14   8 O    1.899 --    13 C    1.580    12 N    0.182
    15   6 C    3.871 --    16 N    1.615    20 O    1.063    13 C    0.983
    16   7 N    3.015 --    15 C    1.615    17 N    1.194
    17   7 N    2.980 --    18 C    1.611    16 N    1.194
    18   6 C    3.873 --    17 N    1.611    20 O    1.081    19 C    1.031
    19   6 C    3.987 --    18 C    1.031    40 H    0.983    39 H    0.965
                            41 H    0.963
    20   8 O    2.327 --    18 C    1.081    15 C    1.063
    21   7 N    3.324 --     8 C    1.197    42 H    0.911    22 C    0.899
                             7 N    0.171
    22   6 C    3.913 --    24 C    1.496    23 O    1.397    21 N    0.899
    23   8 O    1.721 --    22 C    1.397    24 C    0.174
    24   6 C    3.783 --    22 C    1.496    25 O    0.951     5 C    0.932
                            23 O    0.174
    25   8 O    1.909 --    24 C    0.951    43 H    0.860
    26   1 H    1.012 --     1 C    0.981
    27   1 H    1.014 --     1 C    0.987
    28   1 H    1.011 --     1 C    0.981
    29   1 H    1.016 --     6 C    0.985
    30   1 H    1.012 --     6 C    0.987
    31   1 H    1.010 --     6 C    0.988
    32   1 H    1.005 --    10 C    0.984
    33   1 H    1.011 --    10 C    0.981
    34   1 H    1.004 --    10 C    0.986
    35   1 H    1.013 --    11 C    0.985
    36   1 H    1.016 --    11 C    0.984
    37   1 H    1.010 --    11 C    0.984
    38   1 H    0.959 --    12 N    0.897
    39   1 H    0.997 --    19 C    0.965
    40   1 H    0.999 --    19 C    0.983
    41   1 H    0.997 --    19 C    0.963
    42   1 H    0.960 --    21 N    0.911
    43   1 H    0.900 --    25 O    0.860
 ---------------------------------------------------------------------------

           -------------------------------------------------
          | TOTAL ENERGY              -83.872009877901 Eh   |
          | GRADIENT NORM               0.000233807517 Eh/α |
          | HOMO-LUMO GAP               0.437740214490 eV   |
           -------------------------------------------------

 * finished run on 2023/06/20 at 14:57:27.250
