   * xtb version 6.5.1 (579679a) compiled by 'ehlert@majestix' on 2022-07-11
          program call               : /lustre/hpc/kemi/ree/PhD/git/ReactivityQM/dep/xtb-6.5.1/bin/xtb --gfn 1 /lustre/hpc/kemi/ree/PhD/git/ReactivityQM/calculations/R03/reac02prodN02/conf06/R03_reac02prodN02_conf06_gfn1.xyz --opt --vfukui --chrg 1 --uhf 0 --alpb DMSO

   ID    Z sym.   atoms
    1    6 C      1, 3, 5, 7-10, 12, 14, 15, 18, 19, 22, 23, 25
    2    8 O      2, 4, 13, 20, 24, 26
    3    7 N      6, 11, 16, 17, 21
    4    1 H      27-46

      * Solvation model:               ALPB
        Solvent                        DMSO
        Solvent mass                       7.8130E+01 g/mol
          :  Hamiltonian                  GFN1-xTB          :
 * total energy  :   -86.3215703 Eh     change       -0.3031175E-10 Eh
 * total energy  :   -86.3409641 Eh     change       -0.1939382E-01 Eh
 * total energy  :   -86.3479304 Eh     change       -0.6966313E-02 Eh
 * total energy  :   -86.3493629 Eh     change       -0.1432453E-02 Eh
 * total energy  :   -86.3501785 Eh     change       -0.8156260E-03 Eh
 * total energy  :   -86.3504725 Eh     change       -0.2939718E-03 Eh
 * total energy  :   -86.3507396 Eh     change       -0.2671344E-03 Eh
 * total energy  :   -86.3509350 Eh     change       -0.1953893E-03 Eh
 * total energy  :   -86.3510770 Eh     change       -0.1419435E-03 Eh
 * total energy  :   -86.3511611 Eh     change       -0.8411988E-04 Eh
 * total energy  :   -86.3514957 Eh     change       -0.2807553E-04 Eh
 * total energy  :   -86.3515060 Eh     change       -0.1031765E-04 Eh
 * total energy  :   -86.3515216 Eh     change       -0.1557483E-04 Eh
 * total energy  :   -86.3515276 Eh     change       -0.6037057E-05 Eh
 * total energy  :   -86.3515334 Eh     change       -0.5806817E-05 Eh
 * total energy  :   -86.3515391 Eh     change       -0.5693081E-05 Eh
 * total energy  :   -86.3515481 Eh     change       -0.9017532E-05 Eh
 * total energy  :   -86.3515558 Eh     change       -0.7643275E-05 Eh
 * total energy  :   -86.3515602 Eh     change       -0.4419514E-05 Eh
   *** GEOMETRY OPTIMIZATION CONVERGED AFTER 27 ITERATIONS ***

 final structure:
================
46
 xtb: 6.5.1 (579679a)
C            2.31702050073401        0.69911651237981        5.79426387186116
O            2.11804333677431        0.29269467038777        4.43578106913575
C            3.21669673660959        0.02261195872501        3.73057653168844
O            4.33336303047266        0.09950446356548        4.18436451992470
C            2.89535054547637       -0.37432044334111        2.32761603596302
N            1.56786143293971       -0.42675089300071        1.99814940623899
C            1.17550892742812       -0.75156340184431        0.81257100264759
C           -0.33306340544265       -0.81037048706809        0.60674829995581
C           -1.04028602252583       -0.29203328118302        1.86511370190424
C           -0.78438624952732       -2.24412640887401        0.29834819866396
N           -0.66784337636779        0.11866731323495       -0.49640124270886
C           -1.83380820526163        0.23493097328581       -1.08820522742722
O           -2.80351612279328       -0.55112456532432       -0.74606213633299
C           -4.10390978536924       -0.52136269039997       -1.36268600353889
C           -1.90753381625491        1.25832325771160       -2.10212779355141
N           -0.91233236467769        2.04448489401087       -2.41818368967131
N           -1.34702015246873        2.85128949008281       -3.39866216954164
C           -2.58929228299789        2.52295694824281       -3.64198904000620
C           -3.50139140400651        3.11373198735566       -4.63836417012060
O           -2.99396074917290        1.52310978543542       -2.84928747257004
N            2.05878512862269       -1.06313263042680       -0.19046197795618
C            1.68833761839267       -1.47180739427302       -1.54594991366941
C            3.42719673928340       -1.05257458475263        0.03864403055658
O            4.23627198273759       -1.33990092143621       -0.83322703767280
C            3.83932798411832       -0.67572948471867        1.38504715577140
O            5.15433818094826       -0.65974548360517        1.60225051471924
H            2.89802145858404        1.62411294597966        5.82677460554107
H            1.32757931421637        0.85899771188495        6.21705397836140
H            2.84568214843064       -0.08154647299473        6.34691232478918
H           -0.71257806352916        0.72104698047724        2.09044145446955
H           -2.11617802631229       -0.29737129203400        1.70811731743254
H           -0.79487367373097       -0.93868087976981        2.70570184886786
H           -1.83759933713247       -2.37021818972226        0.53819157144853
H           -0.20447955940318       -2.93390691953793        0.91096243893645
H           -0.63794573691157       -2.49131454341024       -0.74921274276463
H            0.02788059530833        0.80754510495795       -0.76063540728677
H           -4.56408443921918        0.45493644760284       -1.21105429685394
H           -4.67670919407279       -1.29911665542085       -0.86144497335598
H           -4.01347232197228       -0.73500176958555       -2.42732976694480
H           -4.39895635223398        3.48500224223980       -4.14338834496589
H           -3.80764341980210        2.35019831088186       -5.35437590462429
H           -3.00153026067949        3.92702249036696       -5.15963191121002
H            2.42413977424262       -1.05336402771384       -2.23304327088887
H            1.71461497920171       -2.55958064779652       -1.61124479863731
H            0.70264598920118       -1.10469961774101       -1.80058398277183
H            5.61572991812895       -0.91093980283486        0.78061639619050

          :  Hamiltonian                  GFN1-xTB          :
         :: total energy             -86.351560210372 Eh    ::
         :: gradient norm              0.000625011193 Eh/a0 ::
         :: HOMO-LUMO gap              1.716176069865 eV    ::
         :: SCC energy               -87.183943804186 Eh    ::
         :: -> Gsolv                  -0.118505855385 Eh    ::
         :: repulsion energy           0.861345031521 Eh    ::

    * Orbital Energies and Occupations

         #    Occupation            Energy/Eh            Energy/eV
      -------------------------------------------------------------
         1        2.0000           -0.9056914             -24.6451
       ...           ...                  ...                  ...
        58        2.0000           -0.5279975             -14.3675
        59        2.0000           -0.5248246             -14.2812
        60        2.0000           -0.5195735             -14.1383
        61        2.0000           -0.5189858             -14.1223
        62        2.0000           -0.5118992             -13.9295
        63        2.0000           -0.5020806             -13.6623
        64        2.0000           -0.4932454             -13.4219
        65        2.0000           -0.4909224             -13.3587
        66        2.0000           -0.4885444             -13.2940
        67        2.0000           -0.4878814             -13.2759
        68        2.0000           -0.4740660             -12.9000
        69        2.0000           -0.4597844             -12.5114
        70        2.0000           -0.4424468             -12.0396 (HOMO)
        71                         -0.3793785             -10.3234 (LUMO)
        72                         -0.3342320              -9.0949
        73                         -0.3012878              -8.1985
        74                         -0.2915961              -7.9347
        75                         -0.2586192              -7.0374
        76                         -0.2497211              -6.7953
        77                         -0.1694419              -4.6107
        78                         -0.1614550              -4.3934
        79                         -0.1574101              -4.2833
        80                         -0.1558229              -4.2402
        81                         -0.1480030              -4.0274
       ...                                ...                  ...
       144                          0.7363785              20.0379
      -------------------------------------------------------------
                  HL-Gap            0.0630683 Eh            1.7162 eV

Wiberg/Mayer (AO) data.
largest (>0.10) Wiberg bond orders for each atom

     #   Z sym  total        # sym  WBO       # sym  WBO       # sym  WBO
 ---------------------------------------------------------------------------
     1   6 C    3.869 --    28 H    0.986    27 H    0.979    29 H    0.979
                             2 O    0.895
     2   8 O    2.200 --     3 C    1.114     1 C    0.895     4 O    0.136
     3   6 C    3.854 --     4 O    1.665     2 O    1.114     5 C    0.997
     4   8 O    1.930 --     3 C    1.665     2 O    0.136
     5   6 C    3.961 --    25 C    1.491     6 N    1.183     3 C    0.997
     6   7 N    3.037 --     7 C    1.586     5 C    1.183
     7   6 C    3.939 --     6 N    1.586    21 N    1.166     8 C    0.975
     8   6 C    3.898 --     9 C    0.984    10 C    0.983     7 C    0.975
                            11 N    0.885
     9   6 C    3.982 --     8 C    0.984    31 H    0.983    30 H    0.983
                            32 H    0.980
    10   6 C    3.982 --     8 C    0.983    34 H    0.981    35 H    0.980
                            33 H    0.979
    11   7 N    3.468 --    12 C    1.430     8 C    0.885    36 H    0.874
                            13 O    0.110
    12   6 C    3.895 --    11 N    1.430    13 O    1.216    15 C    1.089
    13   8 O    2.291 --    12 C    1.216    14 C    0.852    11 N    0.110
    14   6 C    3.818 --    38 H    0.980    37 H    0.974    39 H    0.974
                            13 O    0.852
    15   6 C    3.891 --    16 N    1.537    12 C    1.089    20 O    1.057
    16   7 N    3.037 --    15 C    1.537    17 N    1.264
    17   7 N    2.991 --    18 C    1.540    16 N    1.264
    18   6 C    3.848 --    17 N    1.540    20 O    1.089    19 C    1.041
    19   6 C    3.977 --    18 C    1.041    42 H    0.979    40 H    0.955
                            41 H    0.952
    20   8 O    2.344 --    18 C    1.089    15 C    1.057
    21   7 N    3.505 --     7 C    1.166    23 C    1.121    22 C    0.926
                            24 O    0.135
    22   6 C    3.917 --    45 H    0.980    44 H    0.973    43 H    0.972
                            21 N    0.926
    23   6 C    3.911 --    24 O    1.572    21 N    1.121    25 C    1.069
    24   8 O    1.915 --    23 C    1.572    21 N    0.135
    25   6 C    3.922 --     5 C    1.491    26 O    1.121    23 C    1.069
    26   8 O    2.098 --    25 C    1.121    46 H    0.803
    27   1 H    1.006 --     1 C    0.979
    28   1 H    1.010 --     1 C    0.986
    29   1 H    1.006 --     1 C    0.979
    30   1 H    1.006 --     9 C    0.983
    31   1 H    1.001 --     9 C    0.983
    32   1 H    1.006 --     9 C    0.980
    33   1 H    1.003 --    10 C    0.979
    34   1 H    0.997 --    10 C    0.981
    35   1 H    0.999 --    10 C    0.980
    36   1 H    0.935 --    11 N    0.874
    37   1 H    1.001 --    14 C    0.974
    38   1 H    1.001 --    14 C    0.980
    39   1 H    1.001 --    14 C    0.974
    40   1 H    0.991 --    19 C    0.955
    41   1 H    0.990 --    19 C    0.952
    42   1 H    0.994 --    19 C    0.979
    43   1 H    1.003 --    22 C    0.972
    44   1 H    0.998 --    22 C    0.973
    45   1 H    1.003 --    22 C    0.980
    46   1 H    0.842 --    26 O    0.803
 ---------------------------------------------------------------------------

           -------------------------------------------------
          | TOTAL ENERGY              -86.351560210372 Eh   |
          | GRADIENT NORM               0.000625011193 Eh/α |
          | HOMO-LUMO GAP               1.716176069865 eV   |
           -------------------------------------------------

 * finished run on 2023/06/20 at 15:37:03.285
