   * xtb version 6.5.1 (579679a) compiled by 'ehlert@majestix' on 2022-07-11
          program call               : /lustre/hpc/kemi/ree/PhD/git/ReactivityQM/dep/xtb-6.5.1/bin/xtb --gfn 1 /lustre/hpc/kemi/ree/PhD/git/ReactivityQM/calculations/R03/reac01prodN01/conf08/R03_reac01prodN01_conf08_gfn1.xyz --opt --vfukui --chrg 1 --uhf 0 --alpb DMSO

   ID    Z sym.   atoms
    1    6 C      1, 3-7, 9, 10
    2    7 N      2
    3    9 F      8
    4    1 H      11-21

      * Solvation model:               ALPB
        Solvent                        DMSO
        Solvent mass                       7.8130E+01 g/mol
          :  Hamiltonian                  GFN1-xTB          :
 * total energy  :   -30.8261210 Eh     change       -0.2625455E-11 Eh
 * total energy  :   -30.8298767 Eh     change       -0.3755686E-02 Eh
 * total energy  :   -30.8304717 Eh     change       -0.5949615E-03 Eh
 * total energy  :   -30.8305361 Eh     change       -0.6437932E-04 Eh
 * total energy  :   -30.8305623 Eh     change       -0.2624192E-04 Eh
 * total energy  :   -30.8305736 Eh     change       -0.1130140E-04 Eh
 * total energy  :   -30.8305834 Eh     change       -0.9802136E-05 Eh
 * total energy  :   -30.8305918 Eh     change       -0.8403521E-05 Eh
 * total energy  :   -30.8305972 Eh     change       -0.5343352E-05 Eh
 * total energy  :   -30.8306010 Eh     change       -0.3845167E-05 Eh
   *** GEOMETRY OPTIMIZATION CONVERGED AFTER 10 ITERATIONS ***

 final structure:
================
21
 xtb: 6.5.1 (579679a)
C           -2.33401721753738        0.38882994870739        0.69872174692274
N           -2.04416121268320       -0.66481980675050       -0.30282858628782
C           -0.96409619896757       -0.28388013331187       -1.27079085207955
C            0.34212988894235       -0.07702005925090       -0.55107463215479
C            1.03250041862710       -1.17492052941648       -0.03777876520463
C            2.23624926110966       -0.99902150970176        0.62698416798590
C            2.73247537496039        0.28704083840141        0.75845876358296
F            3.89317235644262        0.46385909827681        1.39509949134312
C            2.07416856460436        1.39596945214105        0.25619862715068
C            0.86673045645764        1.20521237494708       -0.39989474269757
H           -3.11692829631815        0.01910031638208        1.35570419962255
H           -2.66397282594904        1.28280872052745        0.17569906335083
H           -1.42565984219889        0.58992905774514        1.26136413253778
H           -2.88974355204406       -0.86143195084315       -0.82953507319186
H           -1.77551024385146       -1.51992230096307        0.17855875901444
H           -0.90007957627760       -1.10476286389112       -1.98726141809937
H           -1.29587389857566        0.62228701770895       -1.77872382275249
H            0.62604213578561       -2.17100332679821       -0.16144598540190
H            2.78008661179067       -1.84170940968897        1.03400982361339
H            2.49497491505108        2.38572566099807        0.37859850370315
H            0.33151188063162        2.05773040478072       -0.80006240095746

          :  Hamiltonian                  GFN1-xTB          :
         :: total energy             -30.830601010034 Eh    ::
         :: gradient norm              0.000353490735 Eh/a0 ::
         :: HOMO-LUMO gap              4.520845418782 eV    ::
         :: SCC energy               -31.241724167297 Eh    ::
         :: -> Gsolv                  -0.102413325513 Eh    ::
         :: repulsion energy           0.421392825808 Eh    ::

    * Orbital Energies and Occupations

         #    Occupation            Energy/Eh            Energy/eV
      -------------------------------------------------------------
         1        2.0000           -0.8854084             -24.0932
       ...           ...                  ...                  ...
        15        2.0000           -0.5960967             -16.2206
        16        2.0000           -0.5817225             -15.8295
        17        2.0000           -0.5664161             -15.4130
        18        2.0000           -0.5643342             -15.3563
        19        2.0000           -0.5614558             -15.2780
        20        2.0000           -0.5582296             -15.1902
        21        2.0000           -0.5543918             -15.0858
        22        2.0000           -0.5355808             -14.5739
        23        2.0000           -0.5310518             -14.4507
        24        2.0000           -0.5182700             -14.1028
        25        2.0000           -0.4925233             -13.4022
        26        2.0000           -0.4715070             -12.8304
        27        2.0000           -0.4596339             -12.5073 (HOMO)
        28                         -0.2934959              -7.9864 (LUMO)
        29                         -0.2916149              -7.9352
        30                         -0.1833426              -4.9890
        31                         -0.1730354              -4.7085
        32                         -0.1688805              -4.5955
        33                         -0.1614398              -4.3930
        34                         -0.1388572              -3.7785
        35                         -0.1211530              -3.2967
        36                         -0.1123536              -3.0573
        37                         -0.1054142              -2.8685
        38                         -0.0991579              -2.6982
       ...                                ...                  ...
        62                          0.6265065              17.0481
      -------------------------------------------------------------
                  HL-Gap            0.1661380 Eh            4.5208 eV

Wiberg/Mayer (AO) data.
largest (>0.10) Wiberg bond orders for each atom

     #   Z sym  total        # sym  WBO       # sym  WBO       # sym  WBO
 ---------------------------------------------------------------------------
     1   6 C    3.897 --    12 H    0.984    13 H    0.983    11 H    0.981
                             2 N    0.922
     2   7 N    3.605 --     1 C    0.922     3 C    0.895    15 H    0.893
                            14 H    0.888
     3   6 C    3.902 --     4 C    1.008    17 H    0.975    16 H    0.968
                             2 N    0.895
     4   6 C    3.984 --    10 C    1.415     5 C    1.410     3 C    1.008
     5   6 C    3.993 --     6 C    1.451     4 C    1.410    18 H    0.969
                             9 C    0.109
     6   6 C    3.991 --     5 C    1.451     7 C    1.393    19 H    0.967
                            10 C    0.108
     7   6 C    3.866 --     9 C    1.398     6 C    1.393     8 F    0.941
     8   9 F    1.074 --     7 C    0.941
     9   6 C    3.991 --    10 C    1.444     7 C    1.398    20 H    0.967
                             5 C    0.109
    10   6 C    3.993 --     9 C    1.444     4 C    1.415    21 H    0.969
                             6 C    0.108
    11   1 H    0.989 --     1 C    0.981
    12   1 H    0.991 --     1 C    0.984
    13   1 H    0.999 --     1 C    0.983
    14   1 H    0.909 --     2 N    0.888
    15   1 H    0.922 --     2 N    0.893
    16   1 H    0.993 --     3 C    0.968
    17   1 H    0.994 --     3 C    0.975
    18   1 H    0.995 --     5 C    0.969
    19   1 H    0.995 --     6 C    0.967
    20   1 H    0.995 --     9 C    0.967
    21   1 H    0.997 --    10 C    0.969
 ---------------------------------------------------------------------------

           -------------------------------------------------
          | TOTAL ENERGY              -30.830601010034 Eh   |
          | GRADIENT NORM               0.000353490735 Eh/α |
          | HOMO-LUMO GAP               4.520845418782 eV   |
           -------------------------------------------------

 * finished run on 2023/06/20 at 15:13:51.347
