   * xtb version 6.5.1 (579679a) compiled by 'ehlert@majestix' on 2022-07-11
          program call               : /lustre/hpc/kemi/ree/PhD/git/ReactivityQM/dep/xtb-6.5.1/bin/xtb --gfn 1 /lustre/hpc/kemi/ree/PhD/git/ReactivityQM/calculations/R02oxygendeprot/reac01prodE08/conf13/R02oxygendeprot_reac01prodE08_conf13_gfn1.xyz --opt --vfukui --chrg -2 --uhf 0 --alpb DMSO

   ID    Z sym.   atoms
    1    6 C      1, 3, 5, 7-10, 12, 14, 15, 18, 19, 22, 24
    2    8 O      2, 4, 13, 20, 23, 25
    3    7 N      6, 11, 16, 17, 21
    4    1 H      26-42

      * Solvation model:               ALPB
        Solvent                        DMSO
        Solvent mass                       7.8130E+01 g/mol
          :  Hamiltonian                  GFN1-xTB          :
 * total energy  :   -83.6219876 Eh     change       -0.7389644E-11 Eh
 * total energy  :   -83.6365243 Eh     change       -0.1453671E-01 Eh
 * total energy  :   -83.6419790 Eh     change       -0.5454684E-02 Eh
 * total energy  :   -83.6429911 Eh     change       -0.1012122E-02 Eh
 * total energy  :   -83.6436224 Eh     change       -0.6312995E-03 Eh
 * total energy  :   -83.6438665 Eh     change       -0.2441064E-03 Eh
 * total energy  :   -83.6440619 Eh     change       -0.1954370E-03 Eh
 * total energy  :   -83.6442515 Eh     change       -0.1895811E-03 Eh
 * total energy  :   -83.6444882 Eh     change       -0.2366635E-03 Eh
 * total energy  :   -83.6449359 Eh     change       -0.4477395E-03 Eh
 * total energy  :   -83.6735572 Eh     change       -0.2642780E-04 Eh
 * total energy  :   -83.6735689 Eh     change       -0.1168161E-04 Eh
 * total energy  :   -83.6735925 Eh     change       -0.2357992E-04 Eh
 * total energy  :   -83.6736019 Eh     change       -0.9441392E-05 Eh
 * total energy  :   -83.6736124 Eh     change       -0.1050098E-04 Eh
 * total energy  :   -83.6736253 Eh     change       -0.1290917E-04 Eh
 * total energy  :   -83.6736343 Eh     change       -0.8953658E-05 Eh
 * total energy  :   -83.6736400 Eh     change       -0.5762396E-05 Eh
 * total energy  :   -83.6736439 Eh     change       -0.3861997E-05 Eh
   *** GEOMETRY OPTIMIZATION CONVERGED AFTER 58 ITERATIONS ***

 final structure:
================
42
 xtb: 6.5.1 (579679a)
C            6.75619425326534       -1.62815482450138        0.88428341219322
O            5.58403820129721       -0.92174828871890        1.25327250468335
C            4.58078855915090       -0.91838490889555        0.32889197216657
O            4.72885111430239       -1.50868915439902       -0.73843624044357
C            3.39134708199126       -0.18713107513829        0.72138267798309
N            2.40565990481765       -0.20141025028469       -0.25641321535400
C            1.28692460551254        0.39387838727965       -0.05566273927349
C            0.20434001589455        0.44998556461270       -1.12469915104879
C            0.57330302544419        1.61525262502350       -2.06863640310081
C            0.20820732109501       -0.87929038088453       -1.89915196250767
N           -1.06701776118747        0.68288397894399       -0.44428040013876
C           -2.14247174955071        0.79251300791036       -1.17514654838741
O           -2.29303752083650        0.76280784063449       -2.41951477696154
C           -3.43905300800518        1.01732706964944       -0.31176976612067
C           -4.20694348270565        2.23909441514025       -0.81716143768135
N           -3.14915707382069        1.14859343845864        1.12644143797785
N           -3.74941397325617        0.02366653845922        1.76436946589777
C           -4.38192633547085       -0.61817967211518        0.86810967735188
C           -5.20628099412761       -1.83558525314469        1.09809392473412
O           -4.29675560876263       -0.13894453896686       -0.39095447387073
N            1.03001476267897        1.07033264547788        1.11456319542418
C            1.89884924180798        1.16714213318555        2.15835623688544
O            1.58113341188583        1.78603081581484        3.17849910148916
C            3.23043577007444        0.47772585912705        1.96445984552031
O            4.07108242568526        0.53337848400010        2.88831375692434
H            7.21257135901408       -1.18813201671107       -0.00868383461534
H            6.53108742196588       -2.68008462853163        0.67942813406159
H            7.45048717848483       -1.55876075057640        1.72108402755566
H            1.58054409144077        1.46714517472275       -2.45998880952928
H            0.54271587367941        2.55854402158535       -1.52295692217380
H           -0.12497558353561        1.66648260954292       -2.90272907331289
H            1.21450457019973       -1.08886725061995       -2.26471546026713
H           -0.10250159177076       -1.69286623621175       -1.24266836958647
H           -0.47331030605049       -0.82875351592009       -2.74699596160567
H           -2.13065679517334        1.04620390785978        1.26491447696871
H           -4.37526950096429        2.14180048669366       -1.88906257096192
H           -3.62239352089274        3.13672778668289       -0.62440742031294
H           -5.16430472994647        2.31970634340715       -0.30526992622264
H           -4.85635096848610       -2.65226757708766        0.46725633782798
H           -6.24563906532996       -1.63409253913872        0.84016419281321
H           -5.14647734193392       -2.13026782639854        2.14295691276479
H            0.11085672212989        1.49012555403473        1.20446717225013

          :  Hamiltonian                  GFN1-xTB          :
         :: total energy             -83.673643898254 Eh    ::
         :: gradient norm              0.000367403429 Eh/a0 ::
         :: HOMO-LUMO gap              2.445017972655 eV    ::
         :: SCC energy               -84.413019495513 Eh    ::
         :: -> Gsolv                  -0.260890287906 Eh    ::
         :: repulsion energy           0.765520315125 Eh    ::

    * Orbital Energies and Occupations

         #    Occupation            Energy/Eh            Energy/eV
      -------------------------------------------------------------
         1        2.0000           -0.7895446             -21.4846
       ...           ...                  ...                  ...
        56        2.0000           -0.4466315             -12.1535
        57        2.0000           -0.4420205             -12.0280
        58        2.0000           -0.4373194             -11.9001
        59        2.0000           -0.4244016             -11.5486
        60        2.0000           -0.4229833             -11.5100
        61        2.0000           -0.4183539             -11.3840
        62        2.0000           -0.3950521             -10.7499
        63        2.0000           -0.3911731             -10.6444
        64        2.0000           -0.3671675              -9.9911
        65        2.0000           -0.3596731              -9.7872
        66        2.0000           -0.3500443              -9.5252
        67        2.0000           -0.3470952              -9.4449
        68        2.0000           -0.3452060              -9.3935 (HOMO)
        69                         -0.2553532              -6.9485 (LUMO)
        70                         -0.2142440              -5.8299
        71                         -0.2134293              -5.8077
        72                         -0.1822036              -4.9580
        73                         -0.1659232              -4.5150
        74                         -0.1253855              -3.4119
        75                         -0.1171920              -3.1890
        76                         -0.0971293              -2.6430
        77                         -0.0928018              -2.5253
        78                         -0.0865300              -2.3546
        79                         -0.0837511              -2.2790
       ...                                ...                  ...
       134                          0.7591186              20.6567
      -------------------------------------------------------------
                  HL-Gap            0.0898528 Eh            2.4450 eV

Wiberg/Mayer (AO) data.
largest (>0.10) Wiberg bond orders for each atom

     #   Z sym  total        # sym  WBO       # sym  WBO       # sym  WBO
 ---------------------------------------------------------------------------
     1   6 C    3.905 --    28 H    0.987    26 H    0.980    27 H    0.980
                             2 O    0.931
     2   8 O    2.150 --     3 C    1.032     1 C    0.931     4 O    0.105
     3   6 C    3.848 --     4 O    1.563     5 C    1.132     2 O    1.032
     4   8 O    1.841 --     3 C    1.563     2 O    0.105
     5   6 C    3.920 --    24 C    1.281     6 N    1.141     3 C    1.132
                            25 O    0.130
     6   7 N    3.018 --     7 C    1.630     5 C    1.141
     7   6 C    3.922 --     6 N    1.630    21 N    1.104     8 C    0.973
     8   6 C    3.973 --    10 C    0.984    11 N    0.982     7 C    0.973
                             9 C    0.969
     9   6 C    3.994 --    29 H    0.988    30 H    0.987    31 H    0.981
                             8 C    0.969
    10   6 C    3.996 --    33 H    0.987    32 H    0.986     8 C    0.984
                            34 H    0.984
    11   7 N    2.939 --    12 C    1.527     8 C    0.982    13 O    0.212
    12   6 C    3.935 --    11 N    1.527    13 O    1.436    14 C    0.887
    13   8 O    1.792 --    12 C    1.436    11 N    0.212
    14   6 C    3.839 --    15 C    0.991    16 N    0.960    12 C    0.887
                            20 O    0.881
    15   6 C    3.996 --    14 C    0.991    38 H    0.987    37 H    0.986
                            36 H    0.983
    16   7 N    3.034 --    17 N    1.006    14 C    0.960    35 H    0.909
    17   7 N    2.969 --    18 C    1.748    16 N    1.006    20 O    0.124
    18   6 C    3.905 --    17 N    1.748    20 O    1.050    19 C    1.017
    19   6 C    3.995 --    18 C    1.017    41 H    0.986    39 H    0.972
                            40 H    0.971
    20   8 O    2.143 --    18 C    1.050    14 C    0.881    17 N    0.124
    21   7 N    3.450 --    22 C    1.188     7 C    1.104    42 H    0.884
                            23 O    0.136
    22   6 C    3.887 --    23 O    1.549    21 N    1.188    24 C    0.974
    23   8 O    1.830 --    22 C    1.549    21 N    0.136
    24   6 C    3.945 --    25 O    1.497     5 C    1.281    22 C    0.974
    25   8 O    1.802 --    24 C    1.497     5 C    0.130
    26   1 H    1.015 --     1 C    0.980
    27   1 H    1.016 --     1 C    0.980
    28   1 H    1.017 --     1 C    0.987
    29   1 H    1.010 --     9 C    0.988
    30   1 H    1.009 --     9 C    0.987
    31   1 H    1.021 --     9 C    0.981
    32   1 H    1.020 --    10 C    0.986
    33   1 H    1.011 --    10 C    0.987
    34   1 H    1.021 --    10 C    0.984
    35   1 H    1.014 --    16 N    0.909
    36   1 H    1.018 --    15 C    0.983
    37   1 H    1.010 --    15 C    0.986
    38   1 H    1.012 --    15 C    0.987
    39   1 H    1.003 --    19 C    0.972
    40   1 H    1.003 --    19 C    0.971
    41   1 H    1.004 --    19 C    0.986
    42   1 H    0.981 --    21 N    0.884
 ---------------------------------------------------------------------------

           -------------------------------------------------
          | TOTAL ENERGY              -83.673643898254 Eh   |
          | GRADIENT NORM               0.000367403429 Eh/α |
          | HOMO-LUMO GAP               2.445017972655 eV   |
           -------------------------------------------------

 * finished run on 2023/06/21 at 17:10:37.419
