   * xtb version 6.5.1 (579679a) compiled by 'ehlert@majestix' on 2022-07-11
          program call               : /lustre/hpc/kemi/ree/PhD/git/ReactivityQM/dep/xtb-6.5.1/bin/xtb --gfn 1 /lustre/hpc/kemi/ree/PhD/git/ReactivityQM/calculations/R02methylcation/reac01prodE06/conf11/R02methylcation_reac01prodE06_conf11_gfn1.xyz --opt --vfukui --chrg -2 --uhf 0 --alpb DMSO

   ID    Z sym.   atoms
    1    6 C      1, 3, 5, 6, 8, 11-15, 17, 19, 22, 23
    2    8 O      2, 4, 7, 9, 18, 24
    3    7 N      10, 16, 20, 21, 25
    4    1 H      26-42

      * Solvation model:               ALPB
        Solvent                        DMSO
        Solvent mass                       7.8130E+01 g/mol
          :  Hamiltonian                  GFN1-xTB          :
 * total energy  :   -83.6053771 Eh     change       -0.1285798E-09 Eh
 * total energy  :   -83.6172664 Eh     change       -0.1188936E-01 Eh
 * total energy  :   -83.6215011 Eh     change       -0.4234630E-02 Eh
 * total energy  :   -83.6224654 Eh     change       -0.9643261E-03 Eh
 * total energy  :   -83.6230441 Eh     change       -0.5786990E-03 Eh
 * total energy  :   -83.6233026 Eh     change       -0.2585405E-03 Eh
 * total energy  :   -83.6234832 Eh     change       -0.1805974E-03 Eh
 * total energy  :   -83.6236143 Eh     change       -0.1310563E-03 Eh
 * total energy  :   -83.6237324 Eh     change       -0.1181262E-03 Eh
 * total energy  :   -83.6238378 Eh     change       -0.1054473E-03 Eh
 * total energy  :   -83.6244220 Eh     change       -0.1041125E-04 Eh
 * total energy  :   -83.6244289 Eh     change       -0.6931382E-05 Eh
 * total energy  :   -83.6244370 Eh     change       -0.8126983E-05 Eh
 * total energy  :   -83.6244459 Eh     change       -0.8914056E-05 Eh
 * total energy  :   -83.6244543 Eh     change       -0.8379531E-05 Eh
 * total energy  :   -83.6244644 Eh     change       -0.1010764E-04 Eh
 * total energy  :   -83.6244693 Eh     change       -0.4820241E-05 Eh
 * total energy  :   -83.6244770 Eh     change       -0.7782301E-05 Eh
 * total energy  :   -83.6244816 Eh     change       -0.4570489E-05 Eh
   *** GEOMETRY OPTIMIZATION CONVERGED AFTER 41 ITERATIONS ***

 final structure:
================
42
 xtb: 6.5.1 (579679a)
C           -4.83788673419489        3.00745840731502       -0.74241852552505
O           -4.09615918971369        2.14494462561225        0.09816104386371
C           -3.22554305691605        1.29861048543147       -0.54071346933044
O           -3.12840921610688        1.35349668017658       -1.76972129432568
C           -2.47179486698376        0.40181814515449        0.32463180476194
C           -2.59475848620206        0.42467990716314        1.74815748908405
O           -3.46766018508888        1.06745425284833        2.41172113867621
C           -1.54556837704674       -0.33590058627936        2.48422822089734
O           -1.37920990747840       -0.29276846483396        3.71275943682379
N           -0.63400187456153       -1.03598832242369        1.71555880619414
C           -0.97776076077154       -1.45597721994743        0.35842475645622
C           -1.92128796738648       -2.68519781352298        0.44592201271774
C            0.35055777184696       -1.78816119985085       -0.40523563670039
C            1.14044624930491       -2.95022153880351        0.21335165510427
C            0.04496431103000       -2.09406017680687       -1.87769098050634
N            1.13362200314343       -0.55550674172285       -0.31597154203517
C            2.40245814990557       -0.39989795217879       -0.79255469684373
O            2.96972863558091       -1.19158291500145       -1.56436768165588
C            2.99237686595583        0.84355908150168       -0.32463885382281
N            2.41992391790650        1.72369729704714        0.47999566988784
N            3.31850132545107        2.73997851761403        0.65064229602605
C            4.36922599898332        2.43701010968581       -0.03943204698501
C            5.61187411860895        3.23429482470112       -0.17440414798650
O            4.24720932807296        1.25815012053073       -0.68749469685636
N           -1.61342103463554       -0.39888066336745       -0.36686140414984
H           -4.17684990317917        3.66149790923251       -1.32291366304767
H           -5.46046676523669        2.43700801447866       -1.44109124843616
H           -5.47730043458011        3.61523806416589       -0.10174909549043
H           -0.07895846261669       -1.69104236183016        2.24372105877058
H           -1.45533815319395       -3.49995575275575        0.99535255533378
H           -2.83241404284019       -2.39157600028414        0.96717400231564
H           -2.18796543277076       -3.02780537582625       -0.55124153538398
H            0.56077691527217       -3.87005097047874        0.17079608318483
H            2.06440562654481       -3.10524824706846       -0.34326081270524
H            1.39679755598529       -2.74305676889309        1.25128473342088
H           -0.57801952452487       -1.30172599269270       -2.29670574227919
H            0.96824964851354       -2.16609638140866       -2.45032470821747
H           -0.48278819383710       -3.04245058868146       -1.96325421788665
H            0.85554560215045        0.07209285007487        0.43434114398791
H            5.55567963191690        4.10560154723794        0.47301112336064
H            6.47940417616158        2.63413367234039        0.09878720247276
H            5.74181373753889        3.56243152235638       -1.20597423317139

          :  Hamiltonian                  GFN1-xTB          :
         :: total energy             -83.624481609822 Eh    ::
         :: gradient norm              0.000639120286 Eh/a0 ::
         :: HOMO-LUMO gap              0.083910824191 eV    ::
         :: SCC energy               -84.346135918092 Eh    ::
         :: -> Gsolv                  -0.281506267818 Eh    ::
         :: repulsion energy           0.748829622657 Eh    ::

    * Orbital Energies and Occupations

         #    Occupation            Energy/Eh            Energy/eV
      -------------------------------------------------------------
         1        2.0000           -0.8187838             -22.2802
       ...           ...                  ...                  ...
        56        2.0000           -0.4440603             -12.0835
        57        2.0000           -0.4408834             -11.9970
        58        2.0000           -0.4209734             -11.4553
        59        2.0000           -0.4187077             -11.3936
        60        2.0000           -0.4153542             -11.3024
        61        2.0000           -0.4087311             -11.1221
        62        2.0000           -0.4051370             -11.0243
        63        2.0000           -0.3977702             -10.8239
        64        2.0000           -0.3925477             -10.6818
        65        2.0000           -0.3812809             -10.3752
        66        2.0000           -0.3652547              -9.9391
        67        2.0000           -0.3353110              -9.1243
        68        1.6704           -0.2762852              -7.5181 (HOMO)
        69        0.3296           -0.2732016              -7.4342 (LUMO)
        70                         -0.2396041              -6.5200
        71                         -0.2229516              -6.0668
        72                         -0.1665641              -4.5324
        73                         -0.1526641              -4.1542
        74                         -0.1301033              -3.5403
        75                         -0.1138432              -3.0978
        76                         -0.1080205              -2.9394
        77                         -0.1007397              -2.7413
        78                         -0.0873793              -2.3777
        79                         -0.0842584              -2.2928
       ...                                ...                  ...
       134                          0.7359985              20.0275
      -------------------------------------------------------------
                  HL-Gap            0.0030837 Eh            0.0839 eV

Wiberg/Mayer (AO) data.
largest (>0.10) Wiberg bond orders for each atom

     #   Z sym  total        # sym  WBO       # sym  WBO       # sym  WBO
 ---------------------------------------------------------------------------
     1   6 C    3.912 --    28 H    0.987    26 H    0.980    27 H    0.980
                             2 O    0.940
     2   8 O    2.135 --     3 C    1.014     1 C    0.940     4 O    0.100
     3   6 C    3.814 --     4 O    1.545     5 C    1.116     2 O    1.014
     4   8 O    1.813 --     3 C    1.545     2 O    0.100
     5   6 C    3.914 --    25 N    1.280     6 C    1.227     3 C    1.116
     6   6 C    3.870 --     7 O    1.408     5 C    1.227     8 C    1.015
     7   8 O    1.653 --     6 C    1.408
     8   6 C    3.857 --     9 O    1.531    10 N    1.140     6 C    1.015
     9   8 O    1.792 --     8 C    1.531    10 N    0.123
    10   7 N    3.243 --     8 C    1.140    11 C    0.925    29 H    0.917
                             9 O    0.123
    11   6 C    3.942 --    25 N    1.025    12 C    0.964    13 C    0.948
                            10 N    0.925
    12   6 C    3.975 --    30 H    0.984    31 H    0.984    32 H    0.983
                            11 C    0.964
    13   6 C    3.933 --    15 C    0.997    14 C    0.994    11 C    0.948
                            16 N    0.932
    14   6 C    3.993 --    13 C    0.994    33 H    0.984    35 H    0.982
                            34 H    0.980
    15   6 C    3.994 --    13 C    0.997    38 H    0.985    37 H    0.982
                            36 H    0.980
    16   7 N    3.266 --    17 C    1.193    13 C    0.932    39 H    0.902
                            18 O    0.145
    17   6 C    3.827 --    18 O    1.476    16 N    1.193    19 C    1.076
    18   8 O    1.754 --    17 C    1.476    16 N    0.145
    19   6 C    3.735 --    20 N    1.472    17 C    1.076    24 O    1.003
    20   7 N    2.840 --    19 C    1.472    21 N    1.185
    21   7 N    2.980 --    22 C    1.626    20 N    1.185
    22   6 C    3.835 --    21 N    1.626    24 O    1.059    23 C    1.026
    23   6 C    3.993 --    22 C    1.026    40 H    0.985    41 H    0.971
                            42 H    0.968
    24   8 O    2.224 --    22 C    1.059    19 C    1.003
    25   7 N    2.652 --     5 C    1.280    11 C    1.025
    26   1 H    1.018 --     1 C    0.980
    27   1 H    1.017 --     1 C    0.980
    28   1 H    1.018 --     1 C    0.987
    29   1 H    0.969 --    10 N    0.917
    30   1 H    1.006 --    12 C    0.984
    31   1 H    1.011 --    12 C    0.984
    32   1 H    1.012 --    12 C    0.983
    33   1 H    1.007 --    14 C    0.984
    34   1 H    1.015 --    14 C    0.980
    35   1 H    1.006 --    14 C    0.982
    36   1 H    1.035 --    15 C    0.980
    37   1 H    1.019 --    15 C    0.982
    38   1 H    1.008 --    15 C    0.985
    39   1 H    0.992 --    16 N    0.902
    40   1 H    1.003 --    23 C    0.985
    41   1 H    1.000 --    23 C    0.971
    42   1 H    1.000 --    23 C    0.968
 ---------------------------------------------------------------------------

           -------------------------------------------------
          | TOTAL ENERGY              -83.624481609822 Eh   |
          | GRADIENT NORM               0.000639120286 Eh/α |
          | HOMO-LUMO GAP               0.083910824191 eV   |
           -------------------------------------------------

 * finished run on 2023/06/21 at 17:15:15.695
