   * xtb version 6.5.1 (579679a) compiled by 'ehlert@majestix' on 2022-07-11
          program call               : /lustre/hpc/kemi/ree/PhD/git/ReactivityQM/dep/xtb-6.5.1/bin/xtb --gfn 1 /lustre/hpc/kemi/ree/PhD/git/ReactivityQM/calculations/R02methylcation/reac01/conf20/R02methylcation_reac01_conf20_gfn1.xyz --opt --vfukui --chrg -1 --uhf 0 --alpb DMSO

   ID    Z sym.   atoms
    1    6 C      1, 3, 5, 7-10, 12, 14, 17, 18, 21, 23
    2    8 O      2, 4, 13, 19, 22, 24
    3    7 N      6, 11, 15, 16, 20
    4    1 H      25-38

      * Solvation model:               ALPB
        Solvent                        DMSO
        Solvent mass                       7.8130E+01 g/mol
          :  Hamiltonian                  GFN1-xTB          :
 * total energy  :   -79.6056792 Eh     change       -0.3885248E-10 Eh
 * total energy  :   -79.6177333 Eh     change       -0.1205412E-01 Eh
 * total energy  :   -79.6220992 Eh     change       -0.4365883E-02 Eh
 * total energy  :   -79.6229324 Eh     change       -0.8331833E-03 Eh
 * total energy  :   -79.6237602 Eh     change       -0.8278002E-03 Eh
 * total energy  :   -79.6243391 Eh     change       -0.5788926E-03 Eh
 * total energy  :   -79.6248496 Eh     change       -0.5105871E-03 Eh
 * total energy  :   -79.6252249 Eh     change       -0.3752080E-03 Eh
 * total energy  :   -79.6254164 Eh     change       -0.1915737E-03 Eh
 * total energy  :   -79.6255242 Eh     change       -0.1077351E-03 Eh
 * total energy  :   -79.6270636 Eh     change       -0.4304388E-04 Eh
 * total energy  :   -79.6270964 Eh     change       -0.3274812E-04 Eh
 * total energy  :   -79.6271194 Eh     change       -0.2299953E-04 Eh
 * total energy  :   -79.6271383 Eh     change       -0.1893737E-04 Eh
 * total energy  :   -79.6271577 Eh     change       -0.1942297E-04 Eh
 * total energy  :   -79.6271748 Eh     change       -0.1703273E-04 Eh
 * total energy  :   -79.6271853 Eh     change       -0.1053068E-04 Eh
 * total energy  :   -79.6271913 Eh     change       -0.6033356E-05 Eh
 * total energy  :   -79.6271950 Eh     change       -0.3705499E-05 Eh
   *** GEOMETRY OPTIMIZATION CONVERGED AFTER 41 ITERATIONS ***

 final structure:
================
38
 xtb: 6.5.1 (579679a)
C           -6.52915011040047        0.68130237013715       -0.45239367450348
O           -5.24748349035270        0.33612643486752       -0.95506682291413
C           -4.26432970991783        0.20487461495934       -0.02713855052220
O           -4.50409084868827        0.38604995074280        1.16190666239566
C           -2.96322169987014       -0.15891985258259       -0.56560599915781
N           -1.99134986757636       -0.26831623897835        0.41491703276660
C           -0.79146688978801       -0.58395331861606        0.10614620892739
C            0.27100645100549       -0.74632009512589        1.17385745659330
C            0.50807653886113       -2.23722346918642        1.43481668554527
C           -0.15658101851355       -0.03112547003197        2.45829280150950
N            1.53780434232281       -0.18584047405292        0.68365420854799
C            1.65633061278360        1.08936686649266        0.26534026979064
O            0.74145985717525        1.89220513549309        0.18265923468577
C            3.04667621316945        1.43784751703877       -0.13101568439216
N            3.47110347660240        2.56230729160504       -0.61780950937849
N            4.80832886514449        2.41391482052042       -0.84361681111089
C            5.11601958922908        1.20843447364271       -0.48109493553658
C            6.44208673303833        0.55528622719704       -0.52848092752843
O            4.04714970718293        0.53666153723652       -0.02176944655130
N           -0.41198277824092       -0.84896561252905       -1.19436260379853
C           -1.26529320087499       -0.77426742495769       -2.26365189128598
O           -0.85285882051850       -1.02777585798128       -3.39375059758821
C           -2.69012557865549       -0.37637604049529       -1.94163500256332
O           -3.50306334988185       -0.27700889471285       -2.88006337389772
H           -6.90641547431006       -0.09841894085433        0.21648714229278
H           -7.19279073915225        0.78282875491903       -1.31028610564074
H           -6.48968504065521        1.62635326373044        0.09855499225706
H            1.27231712572354       -2.36859854989779        2.19815448042859
H           -0.41545136713678       -2.70185318178250        1.77742906646557
H            0.83440136042146       -2.73225217983018        0.52174858431125
H           -0.31811605003051        1.02870118067142        2.26384280222102
H           -1.08814044112559       -0.46769207043016        2.81666880327795
H            0.61151755450321       -0.14403335562234        3.22011259307925
H            2.36763929716668       -0.74048714944259        0.78990517061592
H            6.69835124039811        0.16366528598440        0.45494187976943
H            6.41981396226672       -0.28105482601466       -1.22711903918424
H            7.19465122407362        1.27269470731303       -0.84587703735709
H            0.53686332462040       -1.12813742942226       -1.37861806256708

          :  Hamiltonian                  GFN1-xTB          :
         :: total energy             -79.627195034746 Eh    ::
         :: gradient norm              0.000606954165 Eh/a0 ::
         :: HOMO-LUMO gap              1.628043719147 eV    ::
         :: SCC energy               -80.355285639911 Eh    ::
         :: -> Gsolv                  -0.141995844815 Eh    ::
         :: repulsion energy           0.751304602700 Eh    ::

    * Orbital Energies and Occupations

         #    Occupation            Energy/Eh            Energy/eV
      -------------------------------------------------------------
         1        2.0000           -0.8607586             -23.4224
       ...           ...                  ...                  ...
        52        2.0000           -0.4814309             -13.1004
        53        2.0000           -0.4749532             -12.9241
        54        2.0000           -0.4639494             -12.6247
        55        2.0000           -0.4593043             -12.4983
        56        2.0000           -0.4545368             -12.3686
        57        2.0000           -0.4540378             -12.3550
        58        2.0000           -0.4467908             -12.1578
        59        2.0000           -0.4417044             -12.0194
        60        2.0000           -0.4369578             -11.8902
        61        2.0000           -0.4347544             -11.8303
        62        2.0000           -0.4134122             -11.2495
        63        2.0000           -0.3770965             -10.2613
        64        2.0000           -0.3638241              -9.9002 (HOMO)
        65                         -0.3039946              -8.2721 (LUMO)
        66                         -0.2684270              -7.3043
        67                         -0.2525459              -6.8721
        68                         -0.2358963              -6.4191
        69                         -0.1954387              -5.3182
        70                         -0.1918457              -5.2204
        71                         -0.1395355              -3.7970
        72                         -0.1242082              -3.3799
        73                         -0.1213876              -3.3031
        74                         -0.1129682              -3.0740
        75                         -0.1070910              -2.9141
       ...                                ...                  ...
       124                          0.7549813              20.5441
      -------------------------------------------------------------
                  HL-Gap            0.0598295 Eh            1.6280 eV

Wiberg/Mayer (AO) data.
largest (>0.10) Wiberg bond orders for each atom

     #   Z sym  total        # sym  WBO       # sym  WBO       # sym  WBO
 ---------------------------------------------------------------------------
     1   6 C    3.900 --    26 H    0.987    25 H    0.980    27 H    0.980
                             2 O    0.926
     2   8 O    2.159 --     3 C    1.045     1 C    0.926     4 O    0.109
     3   6 C    3.850 --     4 O    1.573     5 C    1.117     2 O    1.045
     4   8 O    1.849 --     3 C    1.573     2 O    0.109
     5   6 C    3.916 --    23 C    1.274     6 N    1.149     3 C    1.117
                            24 O    0.130
     6   7 N    3.030 --     7 C    1.640     5 C    1.149
     7   6 C    3.933 --     6 N    1.640    20 N    1.091     8 C    0.973
     8   6 C    3.932 --    10 C    0.992     9 C    0.989     7 C    0.973
                            11 N    0.916
     9   6 C    3.991 --     8 C    0.989    30 H    0.984    29 H    0.984
                            28 H    0.984
    10   6 C    3.991 --     8 C    0.992    33 H    0.987    32 H    0.983
                            31 H    0.982
    11   7 N    3.354 --    12 C    1.264     8 C    0.916    34 H    0.895
                            13 O    0.179
    12   6 C    3.920 --    13 O    1.584    11 N    1.264    14 C    0.988
    13   8 O    1.887 --    12 C    1.584    11 N    0.179
    14   6 C    3.870 --    15 N    1.625    19 O    1.048    12 C    0.988
    15   7 N    2.997 --    14 C    1.625    16 N    1.194
    16   7 N    2.981 --    17 C    1.614    15 N    1.194
    17   6 C    3.870 --    16 N    1.614    19 O    1.072    18 C    1.031
    18   6 C    3.987 --    17 C    1.031    37 H    0.983    35 H    0.965
                            36 H    0.961
    19   8 O    2.316 --    17 C    1.072    14 C    1.048
    20   7 N    3.427 --    21 C    1.165     7 C    1.091    38 H    0.898
                            22 O    0.136
    21   6 C    3.879 --    22 O    1.575    20 N    1.165    23 C    0.968
    22   8 O    1.855 --    21 C    1.575    20 N    0.136
    23   6 C    3.943 --    24 O    1.517     5 C    1.274    21 C    0.968
    24   8 O    1.822 --    23 C    1.517     5 C    0.130
    25   1 H    1.014 --     1 C    0.980
    26   1 H    1.016 --     1 C    0.987
    27   1 H    1.015 --     1 C    0.980
    28   1 H    0.998 --     9 C    0.984
    29   1 H    1.003 --     9 C    0.984
    30   1 H    1.000 --     9 C    0.984
    31   1 H    1.014 --    10 C    0.982
    32   1 H    1.014 --    10 C    0.983
    33   1 H    1.003 --    10 C    0.987
    34   1 H    0.937 --    11 N    0.895
    35   1 H    0.997 --    18 C    0.965
    36   1 H    0.997 --    18 C    0.961
    37   1 H    0.999 --    18 C    0.983
    38   1 H    0.949 --    20 N    0.898
 ---------------------------------------------------------------------------

           -------------------------------------------------
          | TOTAL ENERGY              -79.627195034746 Eh   |
          | GRADIENT NORM               0.000606954165 Eh/α |
          | HOMO-LUMO GAP               1.628043719147 eV   |
           -------------------------------------------------

 * finished run on 2023/06/21 at 17:03:52.345
