   * xtb version 6.5.1 (579679a) compiled by 'ehlert@majestix' on 2022-07-11
          program call               : /lustre/hpc/kemi/ree/PhD/git/ReactivityQM/dep/xtb-6.5.1/bin/xtb --gfn 1 /lustre/hpc/kemi/ree/PhD/git/ReactivityQM/calculations/R02methylcation/reac01prodN17/conf20/R02methylcation_reac01prodN17_conf20_gfn1.xyz --opt --vfukui --chrg 0 --uhf 0 --alpb DMSO

   ID    Z sym.   atoms
    1    6 C      1, 3, 5, 7-10, 12, 13, 15, 18, 19, 22, 24
    2    8 O      2, 4, 14, 20, 23, 25
    3    7 N      6, 11, 16, 17, 21
    4    1 H      26-42

      * Solvation model:               ALPB
        Solvent                        DMSO
        Solvent mass                       7.8130E+01 g/mol
          :  Hamiltonian                  GFN1-xTB          :
 * total energy  :   -82.9346065 Eh     change       -0.7723173E-09 Eh
 * total energy  :   -82.9459341 Eh     change       -0.1132763E-01 Eh
 * total energy  :   -82.9495282 Eh     change       -0.3594098E-02 Eh
 * total energy  :   -82.9502957 Eh     change       -0.7675571E-03 Eh
 * total energy  :   -82.9509070 Eh     change       -0.6113039E-03 Eh
 * total energy  :   -82.9513815 Eh     change       -0.4744665E-03 Eh
 * total energy  :   -82.9517921 Eh     change       -0.4105856E-03 Eh
 * total energy  :   -82.9521095 Eh     change       -0.3173820E-03 Eh
 * total energy  :   -82.9523306 Eh     change       -0.2211497E-03 Eh
 * total energy  :   -82.9524664 Eh     change       -0.1358192E-03 Eh
 * total energy  :   -82.9977085 Eh     change       -0.2655828E-04 Eh
 * total energy  :   -82.9977369 Eh     change       -0.2835426E-04 Eh
 * total energy  :   -82.9977832 Eh     change       -0.4627201E-04 Eh
 * total energy  :   -82.9978029 Eh     change       -0.1968655E-04 Eh
 * total energy  :   -82.9978336 Eh     change       -0.3075831E-04 Eh
 * total energy  :   -82.9978456 Eh     change       -0.1193740E-04 Eh
 * total energy  :   -82.9978609 Eh     change       -0.1531036E-04 Eh
 * total energy  :   -82.9978668 Eh     change       -0.5956280E-05 Eh
 * total energy  :   -82.9978713 Eh     change       -0.4471841E-05 Eh
   *** GEOMETRY OPTIMIZATION CONVERGED AFTER 119 ITERATIONS ***

 final structure:
================
42
 xtb: 6.5.1 (579679a)
C           -3.34155274740143       -0.29430689441336       -3.28416793593550
O           -2.87915995032436       -0.11610913017834       -1.94364584679132
C           -3.76463430423972       -0.41171897399199       -0.96541470289419
O           -4.88359932536633       -0.81111321040425       -1.20635484565066
C           -3.19938158159858       -0.18989365440123        0.36349426603245
N           -1.89841130150440        0.28666839822797        0.40722547030415
C           -1.21697590948251        0.52757046582220        1.49441271212254
C            0.19894158578689        1.07013804246684        1.40342558912849
C            0.15925923861538        2.48268155906345        0.79174903549874
C            0.86155611100746        1.19665669213836        2.77998113257808
N            1.00311371399167        0.14590602345725        0.56822572067294
C            1.62853850474814       -0.99684591755847        1.23792927383508
C            1.01520177838827        0.24315545340940       -0.78577607557482
O            0.17876618231113        0.86397913848186       -1.43364657491721
C            2.13508558338763       -0.41160487132781       -1.50397315957833
N            2.18083458051073       -0.60365207751976       -2.78754669782982
N            3.41280215233143       -1.10213403749860       -3.07151925179823
C            4.05598296331674       -1.17264295660348       -1.94680889470942
C            5.44176374600582       -1.63785239219228       -1.72308040133764
O            3.30419101880744       -0.75277753839012       -0.91697859457437
N           -1.82808828058579        0.31703637139180        2.67790360845309
C           -3.13768599592151       -0.13633341289495        2.84203215284880
O           -3.57661570343469       -0.26896227356008        3.96509787014985
C           -3.90903966816747       -0.43208254373036        1.56940275285999
O           -5.06249702308990       -0.85078605749951        1.65763084399453
H           -3.66125011645642       -1.32828317518296       -3.44092698060157
H           -2.50408479154625       -0.05682776250048       -3.93739764685326
H           -4.17955606149984        0.37796003391855       -3.48725403808515
H           -0.21749428986548        3.17519039752493        1.54264469116630
H            1.16639464226262        2.78234145625935        0.50924918368850
H           -0.48928782499460        2.53870502819600       -0.07825297378840
H            1.89800671444068        1.50093852113250        2.64693738178346
H            0.35247038595024        1.96514984454336        3.35914286879358
H            0.84004719624567        0.26761148742483        3.34356991194721
H           -1.43401948774928        0.46114175117924       -0.48921817780293
H            1.77305846878844       -1.79758506378802        0.51756593560675
H            2.58746321853293       -0.71392151061059        1.67014695423351
H            0.95942321372138       -1.35725701349344        2.01739811741613
H            5.89422078644976       -1.90965351765589       -2.67409455758608
H            6.02669523670542       -0.84925965778637       -1.24987639938639
H            5.44179390387642       -2.50188237721425       -1.05810368980224
H           -1.33227856297276        0.50065535574967        3.53538797240919

          :  Hamiltonian                  GFN1-xTB          :
         :: total energy             -82.997871290103 Eh    ::
         :: gradient norm              0.000989019148 Eh/a0 ::
         :: HOMO-LUMO gap              2.548074262945 eV    ::
         :: SCC energy               -83.778865768477 Eh    ::
         :: -> Gsolv                  -0.078539852164 Eh    ::
         :: repulsion energy           0.808472149496 Eh    ::

    * Orbital Energies and Occupations

         #    Occupation            Energy/Eh            Energy/eV
      -------------------------------------------------------------
         1        2.0000           -0.8698909             -23.6709
       ...           ...                  ...                  ...
        55        2.0000           -0.5099077             -13.8753
        56        2.0000           -0.5085545             -13.8385
        57        2.0000           -0.5034016             -13.6983
        58        2.0000           -0.4927873             -13.4094
        59        2.0000           -0.4898712             -13.3301
        60        2.0000           -0.4840104             -13.1706
        61        2.0000           -0.4740654             -12.9000
        62        2.0000           -0.4736031             -12.8874
        63        2.0000           -0.4614764             -12.5574
        64        2.0000           -0.4570471             -12.4369
        65        2.0000           -0.4472597             -12.1706
        66        2.0000           -0.4256429             -11.5823
        67        2.0000           -0.4145313             -11.2800 (HOMO)
        68                         -0.3208913              -8.7319 (LUMO)
        69                         -0.3193532              -8.6900
        70                         -0.3036295              -8.2622
        71                         -0.2606868              -7.0936
        72                         -0.2352680              -6.4020
        73                         -0.2162588              -5.8847
        74                         -0.1575153              -4.2862
        75                         -0.1526360              -4.1534
        76                         -0.1440721              -3.9204
        77                         -0.1412165              -3.8427
        78                         -0.1351496              -3.6776
       ...                                ...                  ...
       134                          0.7616283              20.7250
      -------------------------------------------------------------
                  HL-Gap            0.0936400 Eh            2.5481 eV

Wiberg/Mayer (AO) data.
largest (>0.10) Wiberg bond orders for each atom

     #   Z sym  total        # sym  WBO       # sym  WBO       # sym  WBO
 ---------------------------------------------------------------------------
     1   6 C    3.875 --    27 H    0.986    26 H    0.981    28 H    0.980
                             2 O    0.901
     2   8 O    2.170 --     3 C    1.058     1 C    0.901     4 O    0.120
     3   6 C    3.867 --     4 O    1.628     5 C    1.087     2 O    1.058
     4   8 O    1.903 --     3 C    1.628     2 O    0.120
     5   6 C    3.866 --    24 C    1.253     3 C    1.087     6 N    1.082
                            25 O    0.131
     6   7 N    3.562 --     7 C    1.441     5 C    1.082    35 H    0.835
     7   6 C    3.915 --     6 N    1.441    21 N    1.215     8 C    0.972
     8   6 C    3.937 --    10 C    1.000     9 C    0.979     7 C    0.972
                            11 N    0.914
     9   6 C    3.982 --    29 H    0.982    30 H    0.981     8 C    0.979
                            31 H    0.978
    10   6 C    3.987 --     8 C    1.000    32 H    0.979    33 H    0.979
                            34 H    0.978
    11   7 N    3.359 --    13 C    1.246    12 C    0.931     8 C    0.914
                            14 O    0.166
    12   6 C    3.932 --    36 H    0.981    37 H    0.980    38 H    0.979
                            11 N    0.931
    13   6 C    3.914 --    14 O    1.556    11 N    1.246    15 C    1.002
    14   8 O    1.922 --    13 C    1.556    11 N    0.166
    15   6 C    3.876 --    16 N    1.614    20 O    1.045    13 C    1.002
    16   7 N    3.003 --    15 C    1.614    17 N    1.207
    17   7 N    2.983 --    18 C    1.603    16 N    1.207
    18   6 C    3.867 --    17 N    1.603    20 O    1.075    19 C    1.032
    19   6 C    3.985 --    18 C    1.032    39 H    0.982    40 H    0.963
                            41 H    0.962
    20   8 O    2.320 --    18 C    1.075    15 C    1.045
    21   7 N    3.454 --     7 C    1.215    22 C    1.082    42 H    0.879
                            23 O    0.117
    22   6 C    3.864 --    23 O    1.665    21 N    1.082    24 C    0.950
    23   8 O    1.934 --    22 C    1.665    21 N    0.117
    24   6 C    3.943 --    25 O    1.579     5 C    1.253    22 C    0.950
    25   8 O    1.885 --    24 C    1.579     5 C    0.131
    26   1 H    1.009 --     1 C    0.981
    27   1 H    1.011 --     1 C    0.986
    28   1 H    1.008 --     1 C    0.980
    29   1 H    1.000 --     9 C    0.982
    30   1 H    0.996 --     9 C    0.981
    31   1 H    1.010 --     9 C    0.978
    32   1 H    0.995 --    10 C    0.979
    33   1 H    0.997 --    10 C    0.979
    34   1 H    0.998 --    10 C    0.978
    35   1 H    0.936 --     6 N    0.835
    36   1 H    1.004 --    12 C    0.981
    37   1 H    1.005 --    12 C    0.980
    38   1 H    1.001 --    12 C    0.979
    39   1 H    0.998 --    19 C    0.982
    40   1 H    0.996 --    19 C    0.963
    41   1 H    0.996 --    19 C    0.962
    42   1 H    0.929 --    21 N    0.879
 ---------------------------------------------------------------------------

           -------------------------------------------------
          | TOTAL ENERGY              -82.997871290103 Eh   |
          | GRADIENT NORM               0.000989019148 Eh/α |
          | HOMO-LUMO GAP               2.548074262945 eV   |
           -------------------------------------------------

 * finished run on 2023/06/21 at 18:00:10.809
