   * xtb version 6.5.1 (579679a) compiled by 'ehlert@majestix' on 2022-07-11
          program call               : /lustre/hpc/kemi/ree/PhD/git/ReactivityQM/dep/xtb-6.5.1/bin/xtb --gfn 1 /lustre/hpc/kemi/ree/PhD/git/ReactivityQM/calculations/R02methylcation/reac01prodN04/conf07/R02methylcation_reac01prodN04_conf07_gfn1.xyz --opt --vfukui --chrg 0 --uhf 0 --alpb DMSO

   ID    Z sym.   atoms
    1    6 C      1, 3, 5, 6, 8-11, 13, 15, 18, 19, 22, 24
    2    8 O      2, 4, 14, 20, 23, 25
    3    7 N      7, 12, 16, 17, 21
    4    1 H      26-42

      * Solvation model:               ALPB
        Solvent                        DMSO
        Solvent mass                       7.8130E+01 g/mol
          :  Hamiltonian                  GFN1-xTB          :
 * total energy  :   -82.9644678 Eh     change       -0.9379164E-11 Eh
 * total energy  :   -82.9812348 Eh     change       -0.1676692E-01 Eh
 * total energy  :   -82.9872451 Eh     change       -0.6010375E-02 Eh
 * total energy  :   -82.9884997 Eh     change       -0.1254579E-02 Eh
 * total energy  :   -82.9890295 Eh     change       -0.5297948E-03 Eh
 * total energy  :   -82.9892522 Eh     change       -0.2226975E-03 Eh
 * total energy  :   -82.9894927 Eh     change       -0.2404758E-03 Eh
 * total energy  :   -82.9896830 Eh     change       -0.1902987E-03 Eh
 * total energy  :   -82.9898640 Eh     change       -0.1810438E-03 Eh
 * total energy  :   -82.9900178 Eh     change       -0.1537305E-03 Eh
 * total energy  :   -82.9908965 Eh     change       -0.8137772E-05 Eh
 * total energy  :   -82.9909056 Eh     change       -0.9167592E-05 Eh
 * total energy  :   -82.9909192 Eh     change       -0.1353975E-04 Eh
 * total energy  :   -82.9909316 Eh     change       -0.1244526E-04 Eh
 * total energy  :   -82.9909381 Eh     change       -0.6445173E-05 Eh
 * total energy  :   -82.9909471 Eh     change       -0.9003127E-05 Eh
 * total energy  :   -82.9909554 Eh     change       -0.8365381E-05 Eh
 * total energy  :   -82.9909613 Eh     change       -0.5863405E-05 Eh
 * total energy  :   -82.9909655 Eh     change       -0.4156527E-05 Eh
   *** GEOMETRY OPTIMIZATION CONVERGED AFTER 56 ITERATIONS ***

 final structure:
================
42
 xtb: 6.5.1 (579679a)
C           -2.19038135067265        3.14242633727533        0.61938475980131
O           -1.87841347132754        1.74720893157356        0.58879902110408
C           -2.84217859883093        0.87411156359102        0.35412538894416
O           -4.03310663832279        1.41410303899646        0.22085976923833
C           -5.14377591361888        0.82038539482076       -0.45885165015272
C           -2.47081078592986       -0.47623595386594        0.25735830733101
N           -1.09141535793343       -0.65648499332641        0.15110421973870
C           -0.58825047380309       -1.82517370187307        0.03616510277741
C            0.91158460176167       -2.00424648568932       -0.09498783845845
C            1.24784658798427       -2.62090499744915       -1.46089571308425
C            1.44191846346007       -2.87215236966229        1.05514389923403
N            1.49109206891676       -0.66728852424173       -0.00639497464316
C            2.80708998396532       -0.40787355999733       -0.08883011262188
O            3.69037891130377       -1.23735610634902       -0.23156308145121
C            3.06895960179826        1.05221430675491        0.02274490297972
N            2.17873064849887        1.98384534512442        0.18914566818103
N            2.85391213777730        3.16686427310259        0.24305206475105
C            4.11323578971245        2.88076672435229        0.10593967233243
C            5.25732340666551        3.81888567598919        0.09021331656117
O            4.31269045846347        1.56220241116612       -0.03711936053016
N           -1.36183384758911       -2.96410254311147        0.00981504420751
C           -2.72471894769357       -2.96290644349329        0.15383154356356
O           -3.36167162093329       -3.99730163664906        0.09020770121452
C           -3.35401273357818       -1.60035959320723        0.39312812756043
O           -4.53702089391875       -1.54344396357811        0.72419512177867
H           -1.24871139735295        3.65901275755609        0.79553072985685
H           -2.62152059702912        3.45420619422267       -0.33388331661281
H           -2.89496727403311        3.35525651684831        1.42584256591799
H           -5.79397561325462        0.31726485424147        0.25870887506634
H           -4.80214128269507        0.11569094893828       -1.21748340261594
H           -5.68008452813985        1.64563335156157       -0.92852199075676
H            0.88866370220919       -1.97244191584517       -2.25853620045140
H            0.77531266610017       -3.59630240456007       -1.55475143946793
H            2.32543054920505       -2.74225749116352       -1.55639822482305
H            0.97546505467835       -3.85447768092772        1.02550778646663
H            2.51949991773016       -2.99340444794366        0.95952462298027
H            1.21776100789152       -2.39919711789974        2.01034811244797
H            0.83400817823147        0.10050305648982        0.09377131425585
H            5.72421676208045        3.81946277708427       -0.89553969646773
H            4.91104968604709        4.82241232829843        0.32603967608701
H            6.00588822427801        3.50672580062973        0.81834865662364
H           -0.93306508211142       -3.86527265777330       -0.13468996885818

          :  Hamiltonian                  GFN1-xTB          :
         :: total energy             -82.990965465720 Eh    ::
         :: gradient norm              0.000686480543 Eh/a0 ::
         :: HOMO-LUMO gap              2.334127088044 eV    ::
         :: SCC energy               -83.769506876596 Eh    ::
         :: -> Gsolv                  -0.052034117596 Eh    ::
         :: repulsion energy           0.804223340648 Eh    ::

    * Orbital Energies and Occupations

         #    Occupation            Energy/Eh            Energy/eV
      -------------------------------------------------------------
         1        2.0000           -0.8640464             -23.5119
       ...           ...                  ...                  ...
        55        2.0000           -0.5054392             -13.7537
        56        2.0000           -0.5024080             -13.6712
        57        2.0000           -0.5020920             -13.6626
        58        2.0000           -0.4932687             -13.4225
        59        2.0000           -0.4822263             -13.1220
        60        2.0000           -0.4787429             -13.0273
        61        2.0000           -0.4644371             -12.6380
        62        2.0000           -0.4597689             -12.5109
        63        2.0000           -0.4544559             -12.3664
        64        2.0000           -0.4504884             -12.2584
        65        2.0000           -0.4456678             -12.1272
        66        2.0000           -0.4255996             -11.5812
        67        2.0000           -0.4165556             -11.3351 (HOMO)
        68                         -0.3307780              -9.0009 (LUMO)
        69                         -0.3087849              -8.4025
        70                         -0.2750024              -7.4832
        71                         -0.2570197              -6.9939
        72                         -0.2537568              -6.9051
        73                         -0.1967993              -5.3552
        74                         -0.1619725              -4.4075
        75                         -0.1498229              -4.0769
        76                         -0.1429074              -3.8887
        77                         -0.1388478              -3.7782
        78                         -0.1373523              -3.7375
       ...                                ...                  ...
       134                          0.7502624              20.4157
      -------------------------------------------------------------
                  HL-Gap            0.0857776 Eh            2.3341 eV

Wiberg/Mayer (AO) data.
largest (>0.10) Wiberg bond orders for each atom

     #   Z sym  total        # sym  WBO       # sym  WBO       # sym  WBO
 ---------------------------------------------------------------------------
     1   6 C    3.861 --    26 H    0.984    28 H    0.978    27 H    0.978
                             2 O    0.888
     2   8 O    2.227 --     3 C    1.145     1 C    0.888
     3   6 C    3.830 --     6 C    1.315     4 O    1.149     2 O    1.145
     4   8 O    2.227 --     3 C    1.149     5 C    0.872
     5   6 C    3.844 --    30 H    0.982    31 H    0.980    29 H    0.969
                             4 O    0.872
     6   6 C    3.922 --     3 C    1.315    24 C    1.184     7 N    1.102
     7   7 N    3.050 --     8 C    1.659     6 C    1.102
     8   6 C    3.932 --     7 N    1.659    21 N    1.106     9 C    0.981
     9   6 C    3.939 --     8 C    0.981    11 C    0.980    10 C    0.979
                            12 N    0.934
    10   6 C    3.987 --    32 H    0.985    33 H    0.983     9 C    0.979
                            34 H    0.979
    11   6 C    3.987 --    37 H    0.985    35 H    0.984     9 C    0.980
                            36 H    0.979
    12   7 N    3.360 --    13 C    1.269     9 C    0.934    38 H    0.876
                            14 O    0.181
    13   6 C    3.920 --    14 O    1.583    12 N    1.269    15 C    0.986
    14   8 O    1.903 --    13 C    1.583    12 N    0.181
    15   6 C    3.874 --    16 N    1.613    20 O    1.064    13 C    0.986
    16   7 N    3.013 --    15 C    1.613    17 N    1.198
    17   7 N    2.980 --    18 C    1.607    16 N    1.198
    18   6 C    3.871 --    17 N    1.607    20 O    1.083    19 C    1.031
    19   6 C    3.987 --    18 C    1.031    40 H    0.982    41 H    0.966
                            39 H    0.961
    20   8 O    2.329 --    18 C    1.083    15 C    1.064
    21   7 N    3.432 --    22 C    1.159     8 C    1.106    42 H    0.886
                            23 O    0.138
    22   6 C    3.885 --    23 O    1.639    21 N    1.159    24 C    0.942
    23   8 O    1.915 --    22 C    1.639    21 N    0.138
    24   6 C    3.920 --    25 O    1.602     6 C    1.184    22 C    0.942
    25   8 O    1.924 --    24 C    1.602
    26   1 H    1.009 --     1 C    0.984
    27   1 H    1.004 --     1 C    0.978
    28   1 H    1.005 --     1 C    0.978
    29   1 H    1.022 --     5 C    0.969
    30   1 H    1.006 --     5 C    0.982
    31   1 H    1.008 --     5 C    0.980
    32   1 H    1.002 --    10 C    0.985
    33   1 H    0.999 --    10 C    0.983
    34   1 H    1.007 --    10 C    0.979
    35   1 H    1.000 --    11 C    0.984
    36   1 H    1.008 --    11 C    0.979
    37   1 H    1.002 --    11 C    0.985
    38   1 H    0.971 --    12 N    0.876
    39   1 H    0.997 --    19 C    0.961
    40   1 H    0.999 --    19 C    0.982
    41   1 H    0.997 --    19 C    0.966
    42   1 H    0.934 --    21 N    0.886
 ---------------------------------------------------------------------------

           -------------------------------------------------
          | TOTAL ENERGY              -82.990965465720 Eh   |
          | GRADIENT NORM               0.000686480543 Eh/α |
          | HOMO-LUMO GAP               2.334127088044 eV   |
           -------------------------------------------------

 * finished run on 2023/06/21 at 17:33:58.733
