   * xtb version 6.5.1 (579679a) compiled by 'ehlert@majestix' on 2022-07-11
          program call               : /lustre/hpc/kemi/ree/PhD/git/ReactivityQM/dep/xtb-6.5.1/bin/xtb --gfn 1 /lustre/hpc/kemi/ree/PhD/git/ReactivityQM/calculations/R02/reac01prodN04/conf09/R02_reac01prodN04_conf09_gfn1.xyz --opt --vfukui --chrg 1 --uhf 0 --alpb DMSO

   ID    Z sym.   atoms
    1    6 C      1, 3, 5, 7-10, 12, 14, 17, 18, 21, 23, 25
    2    8 O      2, 4, 13, 19, 22, 24
    3    7 N      6, 11, 15, 16, 20
    4    1 H      26-43

      * Solvation model:               ALPB
        Solvent                        DMSO
        Solvent mass                       7.8130E+01 g/mol
          :  Hamiltonian                  GFN1-xTB          :
 * total energy  :   -83.1105283 Eh     change       -0.9393375E-11 Eh
 * total energy  :   -83.1282694 Eh     change       -0.1774103E-01 Eh
 * total energy  :   -83.1372312 Eh     change       -0.8961816E-02 Eh
 * total energy  :   -83.1403174 Eh     change       -0.3086217E-02 Eh
 * total energy  :   -83.1433457 Eh     change       -0.3028271E-02 Eh
 * total energy  :   -83.1454836 Eh     change       -0.2137877E-02 Eh
 * total energy  :   -83.1475254 Eh     change       -0.2041896E-02 Eh
 * total energy  :   -83.1511819 Eh     change       -0.3656460E-02 Eh
 * total energy  :   -83.1531631 Eh     change       -0.1981214E-02 Eh
 * total energy  :   -83.1544702 Eh     change       -0.1307037E-02 Eh
 * total energy  :   -83.1661638 Eh     change       -0.7070550E-05 Eh
 * total energy  :   -83.1661753 Eh     change       -0.1151242E-04 Eh
 * total energy  :   -83.1661874 Eh     change       -0.1206585E-04 Eh
 * total energy  :   -83.1662019 Eh     change       -0.1450203E-04 Eh
 * total energy  :   -83.1662085 Eh     change       -0.6669241E-05 Eh
 * total energy  :   -83.1662173 Eh     change       -0.8720073E-05 Eh
 * total energy  :   -83.1662293 Eh     change       -0.1200513E-04 Eh
 * total energy  :   -83.1662353 Eh     change       -0.6080035E-05 Eh
 * total energy  :   -83.1662383 Eh     change       -0.2932160E-05 Eh
   *** GEOMETRY OPTIMIZATION CONVERGED AFTER 69 ITERATIONS ***

 final structure:
================
43
 xtb: 6.5.1 (579679a)
C            4.53752376305559        3.49174577101404       -1.31406469189280
O            3.49095235478006        2.52742914866693       -1.09290535381105
C            3.72226594631745        1.48222612090204       -0.38890305122726
O            4.90644156339258        1.33434323168482        0.10451280141522
C            2.64331622552930        0.54112037974519       -0.19804956475722
N            1.46889537492721        0.88871859269085       -0.81650457583157
C            0.44813659847945        0.10303445232423       -0.71222265528434
C           -0.83250014388566        0.45358673625276       -1.45137690176136
C           -1.05141500311698       -0.55689137054981       -2.58750931864762
C           -0.72015372418329        1.87015858299630       -2.01742960558768
N           -1.97629261177823        0.44984722174562       -0.53289143965900
C           -2.55404938337258       -0.64173501065673        0.00792979046037
O           -2.12498537754942       -1.78463639612674       -0.07214249673332
C           -3.78348672719818       -0.28769322388289        0.74885148874090
N           -4.31279455774232        0.89592424983144        0.84064556522626
N           -5.43125964181971        0.76662957548476        1.60295516526273
C           -5.51498997211615       -0.48959615530532        1.92961076675746
C           -6.54894867219245       -1.14107415331159        2.76307107753291
O           -4.50305136109769       -1.20437822562168        1.41907142977483
N            0.50549511537991       -1.05824419733333       -0.01113649332666
C            1.60413694835308       -1.51829193416661        0.67093732126649
O            1.57176470573173       -2.55868189739373        1.29812470305414
C            2.77258442451601       -0.62415856860160        0.54275146057257
O            3.94108596730194       -0.89700367731883        1.10803814403148
C            4.17657962369953       -2.08590089522165        1.89094917474391
H            4.87747767907774        3.88298892514087       -0.35497650593843
H            4.09590224502105        4.27678712463619       -1.92322338240167
H            5.36705848081577        3.01135867425342       -1.83371721539694
H           -0.22555759898421       -0.48434288583767       -3.29299998923810
H           -1.98289757195521       -0.32599344679545       -3.10160143451105
H           -1.09853140120968       -1.57357678822664       -2.20366956070610
H           -0.55197340005177        2.58520918500468       -1.21366853189316
H           -1.63460801172336        2.13018800314472       -2.54743113579991
H            0.11889216908158        1.92193144450082       -2.70874617959359
H           -2.43869343718259        1.33669438377251       -0.38896222717641
H           -7.36333310426600       -0.44537232132189        2.94825555160371
H           -6.11544268812021       -1.45024479369642        3.71460619847943
H           -6.92716518935716       -2.03000321852452        2.26000106541959
H           -0.34217308847691       -1.63947352858258        0.03674708812021
H            5.03235181789357        0.51600628965015        0.63282414432612
H            4.01559214728352       -2.97565645459199        1.28137286424442
H            3.52027829212977       -2.09873474858736        2.76173920086504
H            5.21757322461958       -2.02128720178980        2.20113430927255

          :  Hamiltonian                  GFN1-xTB          :
         :: total energy             -83.166238274512 Eh    ::
         :: gradient norm              0.000460604881 Eh/a0 ::
         :: HOMO-LUMO gap              2.012693596265 eV    ::
         :: SCC energy               -83.957019904303 Eh    ::
         :: -> Gsolv                  -0.100700820820 Eh    ::
         :: repulsion energy           0.816515982966 Eh    ::

    * Orbital Energies and Occupations

         #    Occupation            Energy/Eh            Energy/eV
      -------------------------------------------------------------
         1        2.0000           -0.9119682             -24.8159
       ...           ...                  ...                  ...
        55        2.0000           -0.5301171             -14.4252
        56        2.0000           -0.5224194             -14.2158
        57        2.0000           -0.5152177             -14.0198
        58        2.0000           -0.5133710             -13.9695
        59        2.0000           -0.5123717             -13.9423
        60        2.0000           -0.4913824             -13.3712
        61        2.0000           -0.4878865             -13.2761
        62        2.0000           -0.4819755             -13.1152
        63        2.0000           -0.4758814             -12.9494
        64        2.0000           -0.4707676             -12.8102
        65        2.0000           -0.4609355             -12.5427
        66        2.0000           -0.4600798             -12.5194
        67        2.0000           -0.4577565             -12.4562 (HOMO)
        68                         -0.3837913             -10.4435 (LUMO)
        69                         -0.3232270              -8.7955
        70                         -0.3147489              -8.5648
        71                         -0.2890074              -7.8643
        72                         -0.2629243              -7.1545
        73                         -0.2104391              -5.7263
        74                         -0.1990596              -5.4167
        75                         -0.1664014              -4.5280
        76                         -0.1475810              -4.0159
        77                         -0.1445837              -3.9343
        78                         -0.1390565              -3.7839
       ...                                ...                  ...
       136                          0.6998869              19.0449
      -------------------------------------------------------------
                  HL-Gap            0.0739651 Eh            2.0127 eV

Wiberg/Mayer (AO) data.
largest (>0.10) Wiberg bond orders for each atom

     #   Z sym  total        # sym  WBO       # sym  WBO       # sym  WBO
 ---------------------------------------------------------------------------
     1   6 C    3.821 --    27 H    0.982    26 H    0.972    28 H    0.972
                             2 O    0.852
     2   8 O    2.317 --     3 C    1.283     1 C    0.852
     3   6 C    3.812 --     2 O    1.283     4 O    1.249     5 C    1.123
     4   8 O    2.194 --     3 C    1.249    40 H    0.746
     5   6 C    3.958 --    23 C    1.410     6 N    1.167     3 C    1.123
     6   7 N    3.021 --     7 C    1.575     5 C    1.167
     7   6 C    3.924 --     6 N    1.575    20 N    1.196     8 C    0.972
     8   6 C    3.934 --    10 C    1.001     9 C    0.976     7 C    0.972
                            11 N    0.923
     9   6 C    3.985 --    29 H    0.984    30 H    0.982    31 H    0.979
                             8 C    0.976
    10   6 C    3.989 --     8 C    1.001    33 H    0.984    32 H    0.983
                            34 H    0.982
    11   7 N    3.342 --    12 C    1.260     8 C    0.923    35 H    0.889
                            13 O    0.171
    12   6 C    3.913 --    13 O    1.560    11 N    1.260    14 C    1.002
    13   8 O    1.933 --    12 C    1.560    11 N    0.171
    14   6 C    3.880 --    15 N    1.601    19 O    1.065    12 C    1.002
    15   7 N    3.020 --    14 C    1.601    16 N    1.209
    16   7 N    2.981 --    17 C    1.595    15 N    1.209
    17   6 C    3.868 --    16 N    1.595    19 O    1.086    18 C    1.032
    18   6 C    3.985 --    17 C    1.032    36 H    0.982    38 H    0.966
                            37 H    0.958
    19   8 O    2.335 --    17 C    1.086    14 C    1.065
    20   7 N    3.485 --     7 C    1.196    21 C    1.151    39 H    0.819
                            22 O    0.142
    21   6 C    3.916 --    22 O    1.610    20 N    1.151    23 C    1.034
    22   8 O    1.938 --    21 C    1.610    20 N    0.142
    23   6 C    3.903 --     5 C    1.410    24 O    1.140    21 C    1.034
    24   8 O    2.252 --    23 C    1.140    25 C    0.855
    25   6 C    3.828 --    43 H    0.983    41 H    0.974    42 H    0.974
                            24 O    0.855
    26   1 H    0.997 --     1 C    0.972
    27   1 H    1.002 --     1 C    0.982
    28   1 H    0.997 --     1 C    0.972
    29   1 H    0.999 --     9 C    0.984
    30   1 H    0.997 --     9 C    0.982
    31   1 H    1.006 --     9 C    0.979
    32   1 H    1.002 --    10 C    0.983
    33   1 H    0.997 --    10 C    0.984
    34   1 H    1.007 --    10 C    0.982
    35   1 H    0.945 --    11 N    0.889
    36   1 H    0.998 --    18 C    0.982
    37   1 H    0.996 --    18 C    0.958
    38   1 H    0.996 --    18 C    0.966
    39   1 H    0.916 --    20 N    0.819
    40   1 H    0.807 --     4 O    0.746
    41   1 H    1.007 --    25 C    0.974
    42   1 H    1.008 --    25 C    0.974
    43   1 H    1.005 --    25 C    0.983
 ---------------------------------------------------------------------------

           -------------------------------------------------
          | TOTAL ENERGY              -83.166238274512 Eh   |
          | GRADIENT NORM               0.000460604881 Eh/α |
          | HOMO-LUMO GAP               2.012693596265 eV   |
           -------------------------------------------------

 * finished run on 2023/06/20 at 15:22:43.450
