   * xtb version 6.5.1 (579679a) compiled by 'ehlert@majestix' on 2022-07-11
          program call               : /lustre/hpc/kemi/ree/PhD/git/ReactivityQM/dep/xtb-6.5.1/bin/xtb --gfn 1 /lustre/hpc/kemi/ree/PhD/git/ReactivityQM/calculations/R02oxygendeprot/reac01prodN01/conf05/R02oxygendeprot_reac01prodN01_conf05_gfn1.xyz --opt --vfukui --chrg 0 --uhf 0 --alpb DMSO

   ID    Z sym.   atoms
    1    6 C      1, 3, 5, 7-10, 12, 14, 17, 18, 20, 22, 24
    2    8 O      2, 4, 13, 19, 23, 25
    3    7 N      6, 11, 15, 16, 21
    4    1 H      26-42

      * Solvation model:               ALPB
        Solvent                        DMSO
        Solvent mass                       7.8130E+01 g/mol
          :  Hamiltonian                  GFN1-xTB          :
 * total energy  :   -82.8781686 Eh     change       -0.5826450E-12 Eh
 * total energy  :   -82.8958361 Eh     change       -0.1766748E-01 Eh
 * total energy  :   -82.9047263 Eh     change       -0.8890201E-02 Eh
 * total energy  :   -82.9073954 Eh     change       -0.2669074E-02 Eh
 * total energy  :   -82.9091269 Eh     change       -0.1731478E-02 Eh
 * total energy  :   -82.9100446 Eh     change       -0.9177001E-03 Eh
 * total energy  :   -82.9107949 Eh     change       -0.7502902E-03 Eh
 * total energy  :   -82.9114381 Eh     change       -0.6432059E-03 Eh
 * total energy  :   -82.9118601 Eh     change       -0.4219897E-03 Eh
 * total energy  :   -82.9121095 Eh     change       -0.2494795E-03 Eh
 * total energy  :   -82.9142869 Eh     change       -0.1668211E-04 Eh
 * total energy  :   -82.9142992 Eh     change       -0.1228055E-04 Eh
 * total energy  :   -82.9143130 Eh     change       -0.1385555E-04 Eh
 * total energy  :   -82.9143298 Eh     change       -0.1678590E-04 Eh
 * total energy  :   -82.9143392 Eh     change       -0.9405137E-05 Eh
 * total energy  :   -82.9143458 Eh     change       -0.6547741E-05 Eh
 * total energy  :   -82.9143519 Eh     change       -0.6116956E-05 Eh
 * total energy  :   -82.9143575 Eh     change       -0.5615065E-05 Eh
 * total energy  :   -82.9143623 Eh     change       -0.4775610E-05 Eh
   *** GEOMETRY OPTIMIZATION CONVERGED AFTER 53 ITERATIONS ***

 final structure:
================
42
 xtb: 6.5.1 (579679a)
C            6.53581172962588        2.05443189841770       -0.29335094825334
O            5.38025324588898        1.46237277736024       -0.87173120386537
C            4.46680921595828        0.97289769341077        0.00126230238169
O            4.65196049515463        1.05113155306713        1.20983036605077
C            3.29872122480554        0.36097922621638       -0.61869738170975
N            2.40959979082795       -0.14865137914979        0.30963220530409
C            1.34602264305908       -0.74820870094233       -0.07029768079498
C            0.42096255020629       -1.37735068926238        0.95019627186897
C            0.52456138785349       -0.63735457999819        2.28560206304809
C            0.77746405355194       -2.85824748208856        1.11573626766452
N           -0.96961153832520       -1.32531056775748        0.45709899922267
C           -1.60370683133566       -0.18713159169137        0.16496415122837
O           -1.14823727730321        0.94087901768892        0.20087156800541
C           -3.01475946633660       -0.45310876036798       -0.25744659019811
N           -3.61730929048986       -1.57240220202505       -0.41232208050651
N           -4.90133682369454       -1.33133895701003       -0.81510982706755
C           -5.08058949542161       -0.06931221578740       -0.90400749763973
C           -6.28822904519218        0.67660553967504       -1.28903335938644
O           -3.89255736071646        0.58985182255625       -0.55759630484284
C           -3.59946031987948        2.02260994885238       -0.50173856791452
N            1.04323802386806       -0.93526518258203       -1.40305452180863
C            1.81180290817605       -0.44802338135369       -2.43103321015568
O            1.45611889747575       -0.62642908047933       -3.59247571029526
C            3.07777169965391        0.27297159951115       -2.01927411729610
O            3.81859284144746        0.72232153923687       -2.91102038580550
H            7.07524097774294        1.32801105551695        0.32256611495508
H            6.26049897620670        2.91005273523211        0.33096467480631
H            7.17057061076671        2.38559676704681       -1.11460485587970
H            1.55549388057994       -0.68642074515321        2.63554034636282
H            0.24711792720788        0.40778462412499        2.16099389036990
H           -0.13134009820815       -1.09770996555332        3.02103636877003
H            0.11728885991474       -3.32591034794959        1.84363796979599
H            1.80591238412373       -2.94616181951492        1.46368872876473
H            0.68100533888700       -3.37635106169505        0.16299870134715
H           -1.49319979212060       -2.18445556451408        0.42954082620135
H           -6.60837197167188        1.32885488071717       -0.47622624773328
H           -7.07880939124996       -0.03736159985042       -1.51304232758174
H           -6.09514374844186        1.29315415984367       -2.16727759641278
H           -2.82224908494031        2.22701093753238       -1.23603934727331
H           -3.26199125179987        2.24489628839011        0.50823498411933
H           -4.52414364213574        2.53837591548960       -0.73825207757493
H            0.19822676628606       -1.41828310516940       -1.65163796027474

          :  Hamiltonian                  GFN1-xTB          :
         :: total energy             -82.914362262224 Eh    ::
         :: gradient norm              0.000541254187 Eh/a0 ::
         :: HOMO-LUMO gap              0.285135284448 eV    ::
         :: SCC energy               -83.697960414514 Eh    ::
         :: -> Gsolv                  -0.131253573067 Eh    ::
         :: repulsion energy           0.809751461613 Eh    ::

    * Orbital Energies and Occupations

         #    Occupation            Energy/Eh            Energy/eV
      -------------------------------------------------------------
         1        2.0000           -0.9641434             -26.2357
       ...           ...                  ...                  ...
        55        2.0000           -0.5061547             -13.7732
        56        2.0000           -0.5039641             -13.7136
        57        2.0000           -0.4958927             -13.4939
        58        2.0000           -0.4898219             -13.3287
        59        2.0000           -0.4845785             -13.1861
        60        2.0000           -0.4711055             -12.8194
        61        2.0000           -0.4673043             -12.7160
        62        2.0000           -0.4614643             -12.5571
        63        2.0000           -0.4452592             -12.1161
        64        2.0000           -0.4397883             -11.9672
        65        2.0000           -0.4223725             -11.4933
        66        2.0000           -0.3837908             -10.4435
        67        1.9920           -0.3707422             -10.0884 (HOMO)
        68        0.0080           -0.3602636              -9.8033 (LUMO)
        69                         -0.3101282              -8.4390
        70                         -0.2745229              -7.4701
        71                         -0.2450933              -6.6693
        72                         -0.2392784              -6.5111
        73                         -0.2012357              -5.4759
        74                         -0.1880417              -5.1169
        75                         -0.1735750              -4.7232
        76                         -0.1360177              -3.7012
        77                         -0.1230108              -3.3473
        78                         -0.1227416              -3.3400
       ...                                ...                  ...
       134                          0.7527527              20.4834
      -------------------------------------------------------------
                  HL-Gap            0.0104785 Eh            0.2851 eV

Wiberg/Mayer (AO) data.
largest (>0.10) Wiberg bond orders for each atom

     #   Z sym  total        # sym  WBO       # sym  WBO       # sym  WBO
 ---------------------------------------------------------------------------
     1   6 C    3.897 --    28 H    0.987    27 H    0.980    26 H    0.980
                             2 O    0.923
     2   8 O    2.163 --     3 C    1.053     1 C    0.923     4 O    0.111
     3   6 C    3.850 --     4 O    1.579     5 C    1.108     2 O    1.053
     4   8 O    1.852 --     3 C    1.579     2 O    0.111
     5   6 C    3.907 --    24 C    1.268     6 N    1.156     3 C    1.108
                            25 O    0.128
     6   7 N    3.031 --     7 C    1.633     5 C    1.156
     7   6 C    3.931 --     6 N    1.633    21 N    1.093     8 C    0.972
     8   6 C    3.913 --     9 C    0.990    10 C    0.988     7 C    0.972
                            11 N    0.897
     9   6 C    3.989 --     8 C    0.990    31 H    0.987    30 H    0.981
                            29 H    0.981
    10   6 C    3.989 --     8 C    0.988    34 H    0.984    32 H    0.983
                            33 H    0.982
    11   7 N    3.389 --    12 C    1.303     8 C    0.897    35 H    0.891
                            13 O    0.195
    12   6 C    3.927 --    13 O    1.579    11 N    1.303    14 C    0.969
    13   8 O    1.927 --    12 C    1.579    11 N    0.195
    14   6 C    3.790 --    15 N    1.697    12 C    0.969    19 O    0.884
    15   7 N    3.035 --    14 C    1.697    16 N    1.147
    16   7 N    3.025 --    17 C    1.698    15 N    1.147
    17   6 C    3.799 --    16 N    1.698    18 C    1.043    19 O    0.873
    18   6 C    3.970 --    17 C    1.043    37 H    0.970    38 H    0.952
                            36 H    0.951
    19   8 O    2.651 --    14 C    0.884    17 C    0.873    20 C    0.749
    20   6 C    3.727 --    41 H    0.975    40 H    0.968    39 H    0.968
                            19 O    0.749
    21   7 N    3.421 --    22 C    1.155     7 C    1.093    42 H    0.898
                            23 O    0.134
    22   6 C    3.875 --    23 O    1.583    21 N    1.155    24 C    0.966
    23   8 O    1.862 --    22 C    1.583    21 N    0.134
    24   6 C    3.941 --    25 O    1.525     5 C    1.268    22 C    0.966
    25   8 O    1.826 --    24 C    1.525     5 C    0.128
    26   1 H    1.014 --     1 C    0.980
    27   1 H    1.013 --     1 C    0.980
    28   1 H    1.015 --     1 C    0.987
    29   1 H    1.013 --     9 C    0.981
    30   1 H    1.010 --     9 C    0.981
    31   1 H    1.001 --     9 C    0.987
    32   1 H    0.997 --    10 C    0.983
    33   1 H    1.002 --    10 C    0.982
    34   1 H    0.999 --    10 C    0.984
    35   1 H    0.937 --    11 N    0.891
    36   1 H    0.988 --    18 C    0.951
    37   1 H    0.989 --    18 C    0.970
    38   1 H    0.988 --    18 C    0.952
    39   1 H    0.999 --    20 C    0.968
    40   1 H    1.000 --    20 C    0.968
    41   1 H    0.991 --    20 C    0.975
    42   1 H    0.948 --    21 N    0.898
 ---------------------------------------------------------------------------

           -------------------------------------------------
          | TOTAL ENERGY              -82.914362262224 Eh   |
          | GRADIENT NORM               0.000541254187 Eh/α |
          | HOMO-LUMO GAP               0.285135284448 eV   |
           -------------------------------------------------

 * finished run on 2023/06/21 at 17:17:03.256
