   * xtb version 6.5.1 (579679a) compiled by 'ehlert@majestix' on 2022-07-11
          program call               : /lustre/hpc/kemi/ree/PhD/git/ReactivityQM/dep/xtb-6.5.1/bin/xtb --gfn 1 /lustre/hpc/kemi/ree/PhD/git/ReactivityQM/calculations/R02methylcation/reac01prodE08/conf02/R02methylcation_reac01prodE08_conf02_gfn1.xyz --opt --vfukui --chrg -2 --uhf 0 --alpb DMSO

   ID    Z sym.   atoms
    1    6 C      1, 3, 5, 7-10, 12, 14, 15, 18, 19, 22, 24
    2    8 O      2, 4, 13, 20, 23, 25
    3    7 N      6, 11, 16, 17, 21
    4    1 H      26-42

      * Solvation model:               ALPB
        Solvent                        DMSO
        Solvent mass                       7.8130E+01 g/mol
          :  Hamiltonian                  GFN1-xTB          :
 * total energy  :   -83.6236002 Eh     change       -0.7503331E-11 Eh
 * total energy  :   -83.6384705 Eh     change       -0.1487026E-01 Eh
 * total energy  :   -83.6442189 Eh     change       -0.5748371E-02 Eh
 * total energy  :   -83.6452222 Eh     change       -0.1003365E-02 Eh
 * total energy  :   -83.6458379 Eh     change       -0.6156284E-03 Eh
 * total energy  :   -83.6461600 Eh     change       -0.3221123E-03 Eh
 * total energy  :   -83.6465451 Eh     change       -0.3850865E-03 Eh
 * total energy  :   -83.6470790 Eh     change       -0.5339540E-03 Eh
 * total energy  :   -83.6478106 Eh     change       -0.7316054E-03 Eh
 * total energy  :   -83.6487308 Eh     change       -0.9201620E-03 Eh
 * total energy  :   -83.6653745 Eh     change       -0.1224295E-04 Eh
 * total energy  :   -83.6653918 Eh     change       -0.1735318E-04 Eh
 * total energy  :   -83.6653992 Eh     change       -0.7364189E-05 Eh
 * total energy  :   -83.6654137 Eh     change       -0.1451760E-04 Eh
 * total energy  :   -83.6654227 Eh     change       -0.8929695E-05 Eh
 * total energy  :   -83.6654318 Eh     change       -0.9169148E-05 Eh
 * total energy  :   -83.6654391 Eh     change       -0.7318230E-05 Eh
 * total energy  :   -83.6654469 Eh     change       -0.7708162E-05 Eh
 * total energy  :   -83.6654515 Eh     change       -0.4624650E-05 Eh
   *** GEOMETRY OPTIMIZATION CONVERGED AFTER 38 ITERATIONS ***

 final structure:
================
42
 xtb: 6.5.1 (579679a)
C            6.76124750779616        0.10060892911065        0.42411257138521
O            5.42589703549724        0.16758381829419        0.88322888434691
C            4.46099081186615       -0.12089169676153       -0.05738332353519
O            4.81406274899207       -0.41567915831177       -1.20462887814913
C            3.10520168273779       -0.04064700952593        0.41392913352985
N            2.16146049659044       -0.32169025300476       -0.57289510863061
C            0.90498623529409       -0.26186959620802       -0.25584518059770
C           -0.07860774346176       -0.62261066062941       -1.37745614089115
C            0.35633309095147        0.00208876754749       -2.70555641787623
C           -0.12912600028174       -2.14946095857152       -1.51250657606750
N           -1.42627615196796       -0.17676158929635       -1.00110066458392
C           -1.70925937493545        1.09667037781293       -0.67999394385010
O           -1.11697249139514        2.08819288267854       -1.08310805034471
C           -2.86380709050331        1.22151236195629        0.34120883401992
C           -3.43139047812244        2.63800345062944        0.38091170264829
N           -2.31357129358942        0.83432434526474        1.65807182469834
N           -3.08580973206008       -0.27263845161148        2.09228155927382
C           -3.95489668381496       -0.51384777164990        1.20412644761590
C           -5.01056836874524       -1.55636963172313        1.25981827755777
O           -3.90377224875716        0.27935499426201        0.09079150126048
N            0.37719503353301        0.03154807273218        0.95020613461453
C            1.21005319043682        0.32059677138729        1.97735835940012
O            0.75047119057342        0.60986788093284        3.10630636463228
C            2.70878842104381        0.29254431320663        1.73758376062806
O            3.48824658732169        0.55948847049332        2.68798215257668
H            7.00278980064806       -0.90148298595593        0.05147989032974
H            7.40864276493936        0.33722882474925        1.26902528325336
H            6.93976335096814        0.82117052791294       -0.38264758702956
H           -0.32649039154693       -0.28522437341865       -3.50422229881857
H            0.38007700628961        1.08858759324503       -2.63362738360389
H            1.35906001152201       -0.35271894252688       -2.94608414427329
H            0.87039782618150       -2.52403878173959       -1.73202887915992
H           -0.47426594325413       -2.60005931008757       -0.58175755303847
H           -0.80246154188320       -2.44594857508365       -2.31572768232864
H           -1.99315295520075       -0.88010805137687       -0.55249223506741
H           -4.16240599700606        2.71584299665426        1.18219619400073
H           -3.91247618209711        2.86782483279765       -0.56746903905904
H           -2.62365229660464        3.34692363597775        0.55506295199094
H           -4.89194057611408       -2.15474947488939        2.15992532045761
H           -4.94851118149237       -2.19871045443476        0.38232587561088
H           -5.99507222548573       -1.08915732407887        1.26394995499471
H           -1.33117684487964        0.46470020324769        1.52618910809304

          :  Hamiltonian                  GFN1-xTB          :
         :: total energy             -83.665451480835 Eh    ::
         :: gradient norm              0.000756387296 Eh/a0 ::
         :: HOMO-LUMO gap              2.200100428657 eV    ::
         :: SCC energy               -84.397235405319 Eh    ::
         :: -> Gsolv                  -0.296033508055 Eh    ::
         :: repulsion energy           0.759711447238 Eh    ::

    * Orbital Energies and Occupations

         #    Occupation            Energy/Eh            Energy/eV
      -------------------------------------------------------------
         1        2.0000           -0.8055258             -21.9195
       ...           ...                  ...                  ...
        56        2.0000           -0.4410576             -12.0018
        57        2.0000           -0.4364435             -11.8762
        58        2.0000           -0.4301083             -11.7038
        59        2.0000           -0.4244379             -11.5495
        60        2.0000           -0.4119190             -11.2089
        61        2.0000           -0.4035252             -10.9805
        62        2.0000           -0.4011198             -10.9150
        63        2.0000           -0.3866819             -10.5221
        64        2.0000           -0.3685725             -10.0294
        65        2.0000           -0.3661522              -9.9635
        66        2.0000           -0.3577166              -9.7340
        67        2.0000           -0.3148422              -8.5673
        68        2.0000           -0.3120449              -8.4912 (HOMO)
        69                         -0.2311927              -6.2911 (LUMO)
        70                         -0.2235850              -6.0841
        71                         -0.2224586              -6.0534
        72                         -0.1797843              -4.8922
        73                         -0.1443863              -3.9290
        74                         -0.1286758              -3.5014
        75                         -0.1098679              -2.9897
        76                         -0.1095198              -2.9802
        77                         -0.1050405              -2.8583
        78                         -0.0953874              -2.5956
        79                         -0.0691459              -1.8816
       ...                                ...                  ...
       134                          0.7595504              20.6684
      -------------------------------------------------------------
                  HL-Gap            0.0808522 Eh            2.2001 eV

Wiberg/Mayer (AO) data.
largest (>0.10) Wiberg bond orders for each atom

     #   Z sym  total        # sym  WBO       # sym  WBO       # sym  WBO
 ---------------------------------------------------------------------------
     1   6 C    3.914 --    27 H    0.987    28 H    0.980    26 H    0.980
                             2 O    0.943
     2   8 O    2.127 --     3 C    0.999     1 C    0.943
     3   6 C    3.846 --     4 O    1.528     5 C    1.179     2 O    0.999
     4   8 O    1.814 --     3 C    1.528
     5   6 C    3.917 --    24 C    1.269     3 C    1.179     6 N    1.129
                            25 O    0.113
     6   7 N    2.997 --     7 C    1.553     5 C    1.129
     7   6 C    3.958 --     6 N    1.553    21 N    1.265     8 C    0.949
     8   6 C    3.921 --     9 C    0.996    10 C    0.991     7 C    0.949
                            11 N    0.909
     9   6 C    3.995 --     8 C    0.996    29 H    0.988    31 H    0.984
                            30 H    0.981
    10   6 C    3.995 --     8 C    0.991    34 H    0.987    33 H    0.984
                            32 H    0.984
    11   7 N    3.340 --    12 C    1.284    35 H    0.914     8 C    0.909
                            13 O    0.164
    12   6 C    3.899 --    13 O    1.593    11 N    1.284    14 C    0.916
    13   8 O    1.893 --    12 C    1.593    11 N    0.164
    14   6 C    3.879 --    15 C    0.992    16 N    0.953    12 C    0.916
                            20 O    0.908
    15   6 C    3.995 --    14 C    0.992    36 H    0.986    37 H    0.985
                            38 H    0.983
    16   7 N    3.033 --    17 N    1.015    14 C    0.953    42 H    0.853
    17   7 N    2.992 --    18 C    1.770    16 N    1.015    20 O    0.113
    18   6 C    3.896 --    17 N    1.770    19 C    1.021    20 O    1.003
    19   6 C    3.993 --    18 C    1.021    39 H    0.985    40 H    0.971
                            41 H    0.969
    20   8 O    2.124 --    18 C    1.003    14 C    0.908    17 N    0.113
    21   7 N    3.035 --    22 C    1.287     7 C    1.265    23 O    0.133
                            42 H    0.106
    22   6 C    3.910 --    23 O    1.477    21 N    1.287    24 C    0.975
    23   8 O    1.762 --    22 C    1.477    21 N    0.133
    24   6 C    3.934 --    25 O    1.480     5 C    1.269    22 C    0.975
    25   8 O    1.773 --    24 C    1.480     5 C    0.113
    26   1 H    1.019 --     1 C    0.980
    27   1 H    1.019 --     1 C    0.987
    28   1 H    1.019 --     1 C    0.980
    29   1 H    1.007 --     9 C    0.988
    30   1 H    1.023 --     9 C    0.981
    31   1 H    1.025 --     9 C    0.984
    32   1 H    1.013 --    10 C    0.984
    33   1 H    1.005 --    10 C    0.984
    34   1 H    1.004 --    10 C    0.987
    35   1 H    0.960 --    11 N    0.914
    36   1 H    1.009 --    15 C    0.986
    37   1 H    1.006 --    15 C    0.985
    38   1 H    1.013 --    15 C    0.983
    39   1 H    1.003 --    19 C    0.985
    40   1 H    1.001 --    19 C    0.971
    41   1 H    1.002 --    19 C    0.969
    42   1 H    1.016 --    16 N    0.853    21 N    0.106
 ---------------------------------------------------------------------------

           -------------------------------------------------
          | TOTAL ENERGY              -83.665451480835 Eh   |
          | GRADIENT NORM               0.000756387296 Eh/α |
          | HOMO-LUMO GAP               2.200100428657 eV   |
           -------------------------------------------------

 * finished run on 2023/06/21 at 17:19:07.678
