   * xtb version 6.5.1 (579679a) compiled by 'ehlert@majestix' on 2022-07-11
          program call               : /lustre/hpc/kemi/ree/PhD/git/ReactivityQM/dep/xtb-6.5.1/bin/xtb --gfn 1 /lustre/hpc/kemi/ree/PhD/git/ReactivityQM/calculations/R01/reac01prodN03/conf08/R01_reac01prodN03_conf08_gfn1.xyz --opt --vfukui --chrg 1 --uhf 0 --alpb DMSO

   ID    Z sym.   atoms
    1    6 C      1, 3, 5, 7, 8, 11
    2    8 O      2, 4, 6
    3    7 N      9, 10
    4    1 H      12-20

      * Solvation model:               ALPB
        Solvent                        DMSO
        Solvent mass                       7.8130E+01 g/mol
          :  Hamiltonian                  GFN1-xTB          :
 * total energy  :   -37.6208663 Eh     change       -0.2504663E-10 Eh
 * total energy  :   -37.6368735 Eh     change       -0.1600715E-01 Eh
 * total energy  :   -37.6427101 Eh     change       -0.5836630E-02 Eh
 * total energy  :   -37.6435184 Eh     change       -0.8083503E-03 Eh
 * total energy  :   -37.6438119 Eh     change       -0.2934541E-03 Eh
 * total energy  :   -37.6438527 Eh     change       -0.4078236E-04 Eh
 * total energy  :   -37.6438859 Eh     change       -0.3326086E-04 Eh
 * total energy  :   -37.6439173 Eh     change       -0.3139680E-04 Eh
 * total energy  :   -37.6439646 Eh     change       -0.4723091E-04 Eh
 * total energy  :   -37.6440195 Eh     change       -0.5496694E-04 Eh
 * total energy  :   -37.6442645 Eh     change       -0.2021942E-04 Eh
 * total energy  :   -37.6442907 Eh     change       -0.2627696E-04 Eh
 * total energy  :   -37.6442989 Eh     change       -0.8130400E-05 Eh
 * total energy  :   -37.6443112 Eh     change       -0.1229536E-04 Eh
 * total energy  :   -37.6443174 Eh     change       -0.6278923E-05 Eh
 * total energy  :   -37.6443235 Eh     change       -0.6035154E-05 Eh
 * total energy  :   -37.6443288 Eh     change       -0.5316167E-05 Eh
 * total energy  :   -37.6443357 Eh     change       -0.6964285E-05 Eh
 * total energy  :   -37.6443404 Eh     change       -0.4626312E-05 Eh
   *** GEOMETRY OPTIMIZATION CONVERGED AFTER 26 ITERATIONS ***

 final structure:
================
20
 xtb: 6.5.1 (579679a)
C            3.51805918260747       -0.56835406457043       -0.07945665630523
O            2.14200636762501       -0.12890885794535       -0.10783435498078
C            1.21838054152672       -1.04363901185575        0.06881468550266
O            1.37604974605265       -2.21346992279094        0.25246394630338
C           -0.14984520337519       -0.40440839391987        0.01654642173338
O           -1.25983147214244       -1.10974566294322        0.15059666105112
C           -2.27203801902339       -0.23768875151104        0.06184694042526
C           -3.67161410427553       -0.67998619831467        0.16575857262982
N           -1.82380594181149        0.97575715255172       -0.12147154889419
N           -0.49057279509274        0.85559727933579       -0.14792664839905
C            0.33398805836936        2.02968042289469       -0.33469745162981
H            4.12035577839422        0.33082545919625       -0.17894234926543
H            3.69550932543521       -1.25108225336668       -0.91157109224103
H            3.71779795953614       -1.07158574356747        0.86747739864918
H           -3.79609040445661       -1.30272147174348        1.05216381332770
H           -4.32923673996180        0.18464847504794        0.21605740097283
H           -3.92934397610713       -1.28535615983204       -0.70539995052782
H           -0.32423626337888        2.89041599367630       -0.41755794978212
H            0.92450458458568        1.90181867236677       -1.24032497801754
H            0.99996437549277        2.12820703729151        0.52076813944777

          :  Hamiltonian                  GFN1-xTB          :
         :: total energy             -37.644340374868 Eh    ::
         :: gradient norm              0.000679713771 Eh/a0 ::
         :: HOMO-LUMO gap              3.658521418395 eV    ::
         :: SCC energy               -37.999090891162 Eh    ::
         :: -> Gsolv                  -0.081131216233 Eh    ::
         :: repulsion energy           0.363083296635 Eh    ::

    * Orbital Energies and Occupations

         #    Occupation            Energy/Eh            Energy/eV
      -------------------------------------------------------------
         1        2.0000           -0.9439257             -25.6855
       ...           ...                  ...                  ...
        18        2.0000           -0.6268783             -17.0582
        19        2.0000           -0.6086450             -16.5621
        20        2.0000           -0.6081074             -16.5474
        21        2.0000           -0.5934985             -16.1499
        22        2.0000           -0.5876353             -15.9904
        23        2.0000           -0.5744243             -15.6309
        24        2.0000           -0.5685614             -15.4713
        25        2.0000           -0.5615204             -15.2797
        26        2.0000           -0.5523049             -15.0290
        27        2.0000           -0.5442286             -14.8092
        28        2.0000           -0.5332113             -14.5094
        29        2.0000           -0.5323895             -14.4871
        30        2.0000           -0.5221660             -14.2089 (HOMO)
        31                         -0.3877178             -10.5503 (LUMO)
        32                         -0.3290732              -8.9545
        33                         -0.2702640              -7.3543
        34                         -0.1756578              -4.7799
        35                         -0.1693394              -4.6080
        36                         -0.1571192              -4.2754
        37                         -0.1120691              -3.0496
        38                         -0.1071362              -2.9153
        39                         -0.1003625              -2.7310
        40                         -0.0996371              -2.7113
        41                         -0.0922157              -2.5093
       ...                                ...                  ...
        62                          0.7340672              19.9750
      -------------------------------------------------------------
                  HL-Gap            0.1344482 Eh            3.6585 eV

Wiberg/Mayer (AO) data.
largest (>0.10) Wiberg bond orders for each atom

     #   Z sym  total        # sym  WBO       # sym  WBO       # sym  WBO
 ---------------------------------------------------------------------------
     1   6 C    3.824 --    12 H    0.983    14 H    0.976    13 H    0.976
                             2 O    0.853
     2   8 O    2.237 --     3 C    1.161     1 C    0.853     4 O    0.158
     3   6 C    3.882 --     4 O    1.711     2 O    1.161     5 C    0.939
     4   8 O    1.996 --     3 C    1.711     2 O    0.158
     5   6 C    3.852 --    10 N    1.449     6 O    1.136     3 C    0.939
     6   8 O    2.390 --     5 C    1.136     7 C    1.087
     7   6 C    3.837 --     9 N    1.548     6 O    1.087     8 C    1.044
     8   6 C    3.968 --     7 C    1.044    16 H    0.976    15 H    0.953
                            17 H    0.942
     9   7 N    2.967 --     7 C    1.548    10 N    1.176
    10   7 N    3.668 --     5 C    1.449     9 N    1.176    11 C    0.908
    11   6 C    3.876 --    18 H    0.978    20 H    0.962    19 H    0.961
                            10 N    0.908
    12   1 H    1.003 --     1 C    0.983
    13   1 H    0.998 --     1 C    0.976
    14   1 H    0.998 --     1 C    0.976
    15   1 H    0.988 --     8 C    0.953
    16   1 H    0.990 --     8 C    0.976
    17   1 H    0.987 --     8 C    0.942
    18   1 H    0.992 --    11 C    0.978
    19   1 H    0.994 --    11 C    0.961
    20   1 H    0.995 --    11 C    0.962
 ---------------------------------------------------------------------------

           -------------------------------------------------
          | TOTAL ENERGY              -37.644340374868 Eh   |
          | GRADIENT NORM               0.000679713771 Eh/α |
          | HOMO-LUMO GAP               3.658521418395 eV   |
           -------------------------------------------------

 * finished run on 2023/06/20 at 14:55:25.781
