   * xtb version 6.5.1 (579679a) compiled by 'ehlert@majestix' on 2022-07-11
          program call               : /lustre/hpc/kemi/ree/PhD/git/ReactivityQM/dep/xtb-6.5.1/bin/xtb --gfn 1 /lustre/hpc/kemi/ree/PhD/git/ReactivityQM/calculations/R02oxygendeprot/reac01prodE05/conf14/R02oxygendeprot_reac01prodE05_conf14_gfn1.xyz --opt --vfukui --chrg -2 --uhf 0 --alpb DMSO

   ID    Z sym.   atoms
    1    6 C      1, 3, 5, 6, 8, 11-14, 16, 18, 21, 22, 25
    2    8 O      2, 4, 7, 9, 17, 23
    3    7 N      10, 15, 19, 20, 24
    4    1 H      26-42

      * Solvation model:               ALPB
        Solvent                        DMSO
        Solvent mass                       7.8130E+01 g/mol
          :  Hamiltonian                  GFN1-xTB          :
 * total energy  :   -83.5568377 Eh     change       -0.2197993E-08 Eh
 * total energy  :   -83.5693533 Eh     change       -0.1251552E-01 Eh
 * total energy  :   -83.5747140 Eh     change       -0.5360739E-02 Eh
 * total energy  :   -83.5760064 Eh     change       -0.1292380E-02 Eh
 * total energy  :   -83.5767569 Eh     change       -0.7504975E-03 Eh
 * total energy  :   -83.5770861 Eh     change       -0.3292162E-03 Eh
 * total energy  :   -83.5773377 Eh     change       -0.2515669E-03 Eh
 * total energy  :   -83.5775458 Eh     change       -0.2081363E-03 Eh
 * total energy  :   -83.5777425 Eh     change       -0.1966921E-03 Eh
 * total energy  :   -83.5779245 Eh     change       -0.1819964E-03 Eh
 * total energy  :   -83.5885776 Eh     change       -0.5494494E-04 Eh
 * total energy  :   -83.5886040 Eh     change       -0.2641568E-04 Eh
 * total energy  :   -83.5886207 Eh     change       -0.1668034E-04 Eh
 * total energy  :   -83.5886369 Eh     change       -0.1625135E-04 Eh
 * total energy  :   -83.5886470 Eh     change       -0.1012567E-04 Eh
 * total energy  :   -83.5886604 Eh     change       -0.1332051E-04 Eh
 * total energy  :   -83.5886656 Eh     change       -0.5248024E-05 Eh
 * total energy  :   -83.5886711 Eh     change       -0.5444936E-05 Eh
 * total energy  :   -83.5886755 Eh     change       -0.4483361E-05 Eh
   *** GEOMETRY OPTIMIZATION CONVERGED AFTER 88 ITERATIONS ***

 final structure:
================
42
 xtb: 6.5.1 (579679a)
C           -1.10487239701445        2.90433691055044        1.41692114441035
O           -1.31465578741958        1.74485011050558        0.63740404478802
C           -2.32159568919056        0.88608759627666        1.08926494663554
O           -2.95298317864104        1.19865042868948        2.10273559766001
C           -2.46296737287246       -0.26095004262474        0.26423770782934
C           -3.35375455053082       -1.32674025873369        0.52387295645127
O           -4.14463460182716       -1.41571360550109        1.49336147193687
C           -3.25502200484517       -2.49621995739474       -0.44779055281598
O           -4.18348462473934       -3.30980882075510       -0.64445348072887
N           -2.05442201240196       -2.66014523776318       -1.04074698860049
C           -1.07023823487244       -1.62045137149189       -1.22559255531639
C            0.22424209936028       -1.90025855935627       -0.42937415959537
C           -0.00064216944395       -2.46814922679750        0.99149370922356
C            1.07854338128261       -2.88680398277212       -1.24613957819563
N            0.92384980114979       -0.61596564172715       -0.32462222889149
C            2.12687502531802       -0.41454685429975        0.22703088753156
O            2.88259711851196       -1.29262966461274        0.65695540699105
C            2.48227273473429        1.02163820731817        0.26452000872507
N            1.74619627567998        2.02475511199902       -0.14012619543610
N            2.45953326745036        3.16420483754578        0.10997990522505
C            3.57717868752572        2.79370205362868        0.64707030874081
C            4.68797485840093        3.66271242023619        1.09992901788944
O            3.66443885138606        1.45700686179274        0.77610895324510
N           -1.62463277252602       -0.31209716039417       -0.92636125046630
C           -2.33122594138615        0.22591655353191       -2.10246099854703
H           -0.89941846091820        2.65171237212156        2.46491776671629
H           -0.24178323473722        3.42473043551215        0.99726404717198
H           -1.97785493457282        3.56818467496393        1.38667337735520
H           -1.97791123476055       -3.46131683381582       -1.64778459848861
H           -0.57137015524977       -3.39404214428233        0.92206341960991
H            0.95131750400955       -2.68158545608212        1.47773391945587
H           -0.55742729851540       -1.75229862975526        1.59826651291476
H            0.53558249201799       -3.82501183714137       -1.35384242737574
H            1.25428714391823       -2.47435754279597       -2.23962825479551
H            2.03647607602188       -3.09060648814915       -0.76782130746352
H            0.36425307310283        0.19608899998422       -0.59378313089198
H            4.91655083329509        3.46707522997671        2.14753930596478
H            4.40598120448244        4.70557778309625        0.97797382279305
H            5.58627038874476        3.46174213580619        0.51580046947654
H           -1.66714257862550        0.14814279515115       -2.96531925046823
H           -3.25897171544197       -0.32441855624323       -2.32014270616901
H           -2.57741086586681        1.27700435380267       -1.93156804449062

          :  Hamiltonian                  GFN1-xTB          :
         :: total energy             -83.588675539199 Eh    ::
         :: gradient norm              0.000694587785 Eh/a0 ::
         :: HOMO-LUMO gap              0.123235743368 eV    ::
         :: SCC energy               -84.307399480577 Eh    ::
         :: -> Gsolv                  -0.277004403195 Eh    ::
         :: repulsion energy           0.747959515568 Eh    ::

    * Orbital Energies and Occupations

         #    Occupation            Energy/Eh            Energy/eV
      -------------------------------------------------------------
         1        2.0000           -0.8329247             -22.6650
       ...           ...                  ...                  ...
        56        2.0000           -0.4376958             -11.9103
        57        2.0000           -0.4343206             -11.8185
        58        2.0000           -0.4296276             -11.6908
        59        2.0000           -0.4274288             -11.6309
        60        2.0000           -0.4140928             -11.2680
        61        2.0000           -0.4123663             -11.2211
        62        2.0000           -0.4035338             -10.9807
        63        2.0000           -0.4004235             -10.8961
        64        2.0000           -0.3811759             -10.3723
        65        2.0000           -0.3560269              -9.6880
        66        2.0000           -0.3370497              -9.1716
        67        2.0000           -0.3215621              -8.7502
        68        1.8311           -0.2811128              -7.6495 (HOMO)
        69        0.1689           -0.2765840              -7.5262 (LUMO)
        70                         -0.2324375              -6.3249
        71                         -0.2257439              -6.1428
        72                         -0.1617506              -4.4015
        73                         -0.1606219              -4.3707
        74                         -0.1333364              -3.6283
        75                         -0.1055745              -2.8728
        76                         -0.1001845              -2.7262
        77                         -0.0924670              -2.5162
        78                         -0.0853320              -2.3220
        79                         -0.0794033              -2.1607
       ...                                ...                  ...
       134                          0.7702008              20.9582
      -------------------------------------------------------------
                  HL-Gap            0.0045288 Eh            0.1232 eV

Wiberg/Mayer (AO) data.
largest (>0.10) Wiberg bond orders for each atom

     #   Z sym  total        # sym  WBO       # sym  WBO       # sym  WBO
 ---------------------------------------------------------------------------
     1   6 C    3.916 --    27 H    0.985    28 H    0.981    26 H    0.980
                             2 O    0.946
     2   8 O    2.103 --     3 C    0.958     1 C    0.946
     3   6 C    3.853 --     4 O    1.518     5 C    1.247     2 O    0.958
     4   8 O    1.817 --     3 C    1.518
     5   6 C    3.888 --     6 C    1.307     3 C    1.247    24 N    0.966
                             7 O    0.127
     6   6 C    3.932 --     7 O    1.486     5 C    1.307     8 C    0.950
     7   8 O    1.782 --     6 C    1.486     5 C    0.127
     8   6 C    3.883 --     9 O    1.476    10 N    1.271     6 C    0.950
     9   8 O    1.753 --     8 C    1.476    10 N    0.154
    10   7 N    3.376 --     8 C    1.271    11 C    0.943    29 H    0.918
                             9 O    0.154
    11   6 C    3.205 --    24 N    0.966    12 C    0.956    10 N    0.943
    12   6 C    3.900 --    14 C    0.988    13 C    0.976    11 C    0.956
                            15 N    0.913
    13   6 C    3.987 --    30 H    0.986    31 H    0.985    32 H    0.985
                            12 C    0.976
    14   6 C    3.992 --    12 C    0.988    34 H    0.987    33 H    0.987
                            35 H    0.984
    15   7 N    3.357 --    16 C    1.292    12 C    0.913    36 H    0.880
                            17 O    0.177
    16   6 C    3.884 --    17 O    1.505    15 N    1.292    18 C    1.012
    17   8 O    1.808 --    16 C    1.505    15 N    0.177
    18   6 C    3.791 --    19 N    1.558    23 O    1.030    16 C    1.012
    19   7 N    2.930 --    18 C    1.558    20 N    1.184
    20   7 N    2.982 --    21 C    1.623    19 N    1.184
    21   6 C    3.857 --    20 N    1.623    23 O    1.071    22 C    1.027
    22   6 C    3.991 --    21 C    1.027    38 H    0.984    37 H    0.969
                            39 H    0.967
    23   8 O    2.272 --    21 C    1.071    18 C    1.030
    24   7 N    3.088 --    25 C    0.972    11 C    0.966     5 C    0.966
    25   6 C    3.985 --    40 H    0.989    42 H    0.988    41 H    0.981
                            24 N    0.972
    26   1 H    1.020 --     1 C    0.980
    27   1 H    1.031 --     1 C    0.985
    28   1 H    1.019 --     1 C    0.981
    29   1 H    0.984 --    10 N    0.918
    30   1 H    1.014 --    13 C    0.986
    31   1 H    1.014 --    13 C    0.985
    32   1 H    1.019 --    13 C    0.985
    33   1 H    1.010 --    14 C    0.987
    34   1 H    1.023 --    14 C    0.987
    35   1 H    1.017 --    14 C    0.984
    36   1 H    0.999 --    15 N    0.880
    37   1 H    0.999 --    22 C    0.969
    38   1 H    1.001 --    22 C    0.984
    39   1 H    0.999 --    22 C    0.967
    40   1 H    1.037 --    25 C    0.989
    41   1 H    1.013 --    25 C    0.981
    42   1 H    1.025 --    25 C    0.988
 ---------------------------------------------------------------------------

           -------------------------------------------------
          | TOTAL ENERGY              -83.588675539199 Eh   |
          | GRADIENT NORM               0.000694587785 Eh/α |
          | HOMO-LUMO GAP               0.123235743368 eV   |
           -------------------------------------------------

 * finished run on 2023/06/21 at 17:06:18.259
