   * xtb version 6.5.1 (579679a) compiled by 'ehlert@majestix' on 2022-07-11
          program call               : /lustre/hpc/kemi/ree/PhD/git/ReactivityQM/dep/xtb-6.5.1/bin/xtb --gfn 1 /lustre/hpc/kemi/ree/PhD/git/ReactivityQM/calculations/R02/reac01prodE09/conf02/R02_reac01prodE09_conf02_gfn1.xyz --opt --vfukui --chrg -1 --uhf 0 --alpb DMSO

   ID    Z sym.   atoms
    1    6 C      1, 3, 5, 7-10, 12, 14, 16, 17, 20, 22, 24
    2    8 O      2, 4, 13, 15, 23, 25
    3    7 N      6, 11, 18, 19, 21
    4    1 H      26-43

      * Solvation model:               ALPB
        Solvent                        DMSO
        Solvent mass                       7.8130E+01 g/mol
          :  Hamiltonian                  GFN1-xTB          :
 * total energy  :   -83.8313659 Eh     change       -0.5235279E-10 Eh
 * total energy  :   -83.8427540 Eh     change       -0.1138809E-01 Eh
 * total energy  :   -83.8468175 Eh     change       -0.4063489E-02 Eh
 * total energy  :   -83.8476147 Eh     change       -0.7971979E-03 Eh
 * total energy  :   -83.8483750 Eh     change       -0.7603528E-03 Eh
 * total energy  :   -83.8491138 Eh     change       -0.7387835E-03 Eh
 * total energy  :   -83.8503607 Eh     change       -0.1246848E-02 Eh
 * total energy  :   -83.8513344 Eh     change       -0.9737580E-03 Eh
 * total energy  :   -83.8524781 Eh     change       -0.1143669E-02 Eh
 * total energy  :   -83.8532477 Eh     change       -0.7695839E-03 Eh
 * total energy  :   -83.8558089 Eh     change       -0.4758147E-04 Eh
 * total energy  :   -83.8558277 Eh     change       -0.1880365E-04 Eh
 * total energy  :   -83.8558435 Eh     change       -0.1579909E-04 Eh
 * total energy  :   -83.8558557 Eh     change       -0.1220375E-04 Eh
 * total energy  :   -83.8558657 Eh     change       -0.1004598E-04 Eh
 * total energy  :   -83.8558761 Eh     change       -0.1041297E-04 Eh
 * total energy  :   -83.8558862 Eh     change       -0.1007883E-04 Eh
 * total energy  :   -83.8558928 Eh     change       -0.6588323E-05 Eh
 * total energy  :   -83.8558974 Eh     change       -0.4588569E-05 Eh
   *** GEOMETRY OPTIMIZATION CONVERGED AFTER 40 ITERATIONS ***

 final structure:
================
43
 xtb: 6.5.1 (579679a)
C            6.86193396404451        1.01552690265016       -0.25528632526770
O            5.67272148344053        0.74275646438773        0.48827529191042
C            4.59686824205745        0.35990763756158       -0.25353454208178
O            4.66679057078912        0.26666122209742       -1.46710832289842
C            3.39724808189484        0.07856988462609        0.53864330433982
N            2.32529372451779       -0.32010607846394       -0.23345377911251
C            1.20337117657121       -0.61022725548997        0.32962871867465
C            0.03763905358401       -1.12579739479337       -0.49240983594772
C            0.15840885186699       -2.66044209778468       -0.49080553141277
C            0.12329104395047       -0.56921624591473       -1.92081175861381
N           -1.18613932026474       -0.70552558565854        0.19122796447261
C           -2.44685182740633       -0.97882338947076       -0.46028754950727
O           -2.57929090216140       -1.93800006777091       -1.27225325583364
C           -3.44800972278072       -0.10319340650382       -0.11548429639269
O           -3.32677269687072        0.92890238141214        0.83299482081978
C           -4.57044622862120        1.42302548973530        0.95581501348515
C           -4.79239779027101        2.56270322090317        1.88441215361123
N           -5.47512439196147        0.85786331235156        0.25116317658249
N           -4.84576718631530       -0.21315104580215       -0.44562251999552
C           -5.15337227157266       -0.13550638080892       -1.87919977716802
N            1.03382547041186       -0.55337052891262        1.68243912392870
C            2.02727276803483       -0.16599546823729        2.57052172355296
O            1.79892930337632       -0.13622567633634        3.77921131404759
C            3.27810902973820        0.16448571353187        1.92064672962483
O            4.26935360584244        0.54336519967799        2.76344528441800
H            7.63328024433623        1.27786848726816        0.46527205121091
H            7.16391546259086        0.13134014280554       -0.82320016395077
H            6.69448233495232        1.84698339992601       -0.94539381008434
H            1.13338558818028       -2.94939436180661       -0.88257778467669
H            0.06114725384300       -3.03509421935846        0.52759696410107
H           -0.61812039436305       -3.10625238228653       -1.10891020874614
H            1.09583208725952       -0.80982710494227       -2.34904670076724
H           -0.65876499034701       -1.00562966552283       -2.53998687153246
H            0.00586626125919        0.51383935922357       -1.90605109786644
H           -1.13779997946743        0.27921049349290        0.43218687642040
H           -4.15285423542769        3.39925881584869        1.60535091969169
H           -5.83404107632034        2.87195203583803        1.84489648467256
H           -4.53956376594464        2.26969119325460        2.90329725340432
H           -6.23289977528666       -0.19892792873586       -2.00406239837061
H           -4.78657183820207        0.79988402020259       -2.31174208271920
H           -4.67242398724464       -0.98317482093246       -2.36652889274845
H            0.12976566496649       -0.78500668407783        2.07274582287457
H            5.08848011332346        0.75509141282105        2.28647651384657

          :  Hamiltonian                  GFN1-xTB          :
         :: total energy             -83.855897376593 Eh    ::
         :: gradient norm              0.000639794905 Eh/a0 ::
         :: HOMO-LUMO gap              0.088553943040 eV    ::
         :: SCC energy               -84.616664930498 Eh    ::
         :: -> Gsolv                  -0.109479038323 Eh    ::
         :: repulsion energy           0.786662811333 Eh    ::

    * Orbital Energies and Occupations

         #    Occupation            Energy/Eh            Energy/eV
      -------------------------------------------------------------
         1        2.0000           -0.8189737             -22.2854
       ...           ...                  ...                  ...
        56        2.0000           -0.4759313             -12.9507
        57        2.0000           -0.4675428             -12.7225
        58        2.0000           -0.4591236             -12.4934
        59        2.0000           -0.4570673             -12.4374
        60        2.0000           -0.4438584             -12.0780
        61        2.0000           -0.4351628             -11.8414
        62        2.0000           -0.4317834             -11.7494
        63        2.0000           -0.4219619             -11.4822
        64        2.0000           -0.4074400             -11.0870
        65        2.0000           -0.4033034             -10.9744
        66        2.0000           -0.4010629             -10.9135
        67        2.0000           -0.3845332             -10.4637
        68        1.6944           -0.3064113              -8.3379 (HOMO)
        69        0.3056           -0.3031570              -8.2493 (LUMO)
        70                         -0.2526451              -6.8748
        71                         -0.2256607              -6.1405
        72                         -0.2148449              -5.8462
        73                         -0.1499767              -4.0811
        74                         -0.1313132              -3.5732
        75                         -0.1285184              -3.4972
        76                         -0.1275845              -3.4718
        77                         -0.1038789              -2.8267
        78                         -0.1015859              -2.7643
        79                         -0.0993098              -2.7024
       ...                                ...                  ...
       136                          0.7156617              19.4741
      -------------------------------------------------------------
                  HL-Gap            0.0032543 Eh            0.0886 eV

Wiberg/Mayer (AO) data.
largest (>0.10) Wiberg bond orders for each atom

     #   Z sym  total        # sym  WBO       # sym  WBO       # sym  WBO
 ---------------------------------------------------------------------------
     1   6 C    3.879 --    26 H    0.987    28 H    0.980    27 H    0.980
                             2 O    0.903
     2   8 O    2.154 --     3 C    1.034     1 C    0.903     4 O    0.112
     3   6 C    3.774 --     4 O    1.606     5 C    1.069     2 O    1.034
     4   8 O    1.841 --     3 C    1.606     2 O    0.112
     5   6 C    3.879 --    24 C    1.407     6 N    1.159     3 C    1.069
     6   7 N    3.009 --     7 C    1.593     5 C    1.159
     7   6 C    3.907 --     6 N    1.593    21 N    1.161     8 C    0.978
     8   6 C    3.960 --    10 C    0.988     7 C    0.978     9 C    0.976
                            11 N    0.962
     9   6 C    3.991 --    29 H    0.988    30 H    0.987     8 C    0.976
                            31 H    0.975
    10   6 C    3.993 --     8 C    0.988    34 H    0.986    32 H    0.985
                            33 H    0.983
    11   7 N    3.079 --    12 C    0.976     8 C    0.962    35 H    0.931
    12   6 C    3.874 --    14 C    1.418    13 O    1.369    11 N    0.976
    13   8 O    1.684 --    12 C    1.369    14 C    0.123
    14   6 C    3.562 --    12 C    1.418    19 N    0.983    15 O    0.913
                            13 O    0.123
    15   8 O    2.181 --    16 C    1.068    14 C    0.913    18 N    0.113
    16   6 C    3.896 --    18 N    1.708    15 O    1.068    17 C    1.020
    17   6 C    3.993 --    16 C    1.020    37 H    0.986    36 H    0.971
                            38 H    0.970
    18   7 N    2.932 --    16 C    1.708    19 N    1.005    15 O    0.113
    19   7 N    3.076 --    18 N    1.005    14 C    0.983    20 C    0.950
    20   6 C    3.953 --    39 H    0.989    41 H    0.984    40 H    0.984
                            19 N    0.950
    21   7 N    3.396 --     7 C    1.161    22 C    1.093    42 H    0.886
                            23 O    0.118
    22   6 C    3.866 --    23 O    1.538    24 C    1.120    21 N    1.093
    23   8 O    1.811 --    22 C    1.538    21 N    0.118
    24   6 C    3.804 --     5 C    1.407    22 C    1.120    25 O    1.066
    25   8 O    2.026 --    24 C    1.066    43 H    0.813
    26   1 H    1.012 --     1 C    0.987
    27   1 H    1.010 --     1 C    0.980
    28   1 H    1.009 --     1 C    0.980
    29   1 H    1.007 --     9 C    0.988
    30   1 H    1.009 --     9 C    0.987
    31   1 H    1.026 --     9 C    0.975
    32   1 H    1.016 --    10 C    0.985
    33   1 H    1.016 --    10 C    0.983
    34   1 H    1.006 --    10 C    0.986
    35   1 H    0.970 --    11 N    0.931
    36   1 H    1.001 --    17 C    0.971
    37   1 H    1.003 --    17 C    0.986
    38   1 H    1.002 --    17 C    0.970
    39   1 H    1.019 --    20 C    0.989
    40   1 H    1.009 --    20 C    0.984
    41   1 H    1.030 --    20 C    0.984
    42   1 H    0.951 --    21 N    0.886
    43   1 H    0.867 --    25 O    0.813
 ---------------------------------------------------------------------------

           -------------------------------------------------
          | TOTAL ENERGY              -83.855897376593 Eh   |
          | GRADIENT NORM               0.000639794905 Eh/α |
          | HOMO-LUMO GAP               0.088553943040 eV   |
           -------------------------------------------------

 * finished run on 2023/06/20 at 15:09:34.441
