   * xtb version 6.5.1 (579679a) compiled by 'ehlert@majestix' on 2022-07-11
          program call               : /lustre/hpc/kemi/ree/PhD/git/ReactivityQM/dep/xtb-6.5.1/bin/xtb --gfn 1 /lustre/hpc/kemi/ree/PhD/git/ReactivityQM/calculations/R01/reac01prodE01/conf05/R01_reac01prodE01_conf05_gfn1.xyz --opt --vfukui --chrg -1 --uhf 0 --alpb DMSO

   ID    Z sym.   atoms
    1    6 C      1, 3, 4, 6, 9, 10
    2    8 O      2, 5, 11
    3    7 N      7, 8
    4    1 H      12-20

      * Solvation model:               ALPB
        Solvent                        DMSO
        Solvent mass                       7.8130E+01 g/mol
          :  Hamiltonian                  GFN1-xTB          :
 * total energy  :   -38.3290916 Eh     change       -0.3979039E-11 Eh
 * total energy  :   -38.3379575 Eh     change       -0.8865921E-02 Eh
 * total energy  :   -38.3411110 Eh     change       -0.3153494E-02 Eh
 * total energy  :   -38.3417014 Eh     change       -0.5904247E-03 Eh
 * total energy  :   -38.3419733 Eh     change       -0.2718647E-03 Eh
 * total energy  :   -38.3420816 Eh     change       -0.1083362E-03 Eh
 * total energy  :   -38.3421710 Eh     change       -0.8941144E-04 Eh
 * total energy  :   -38.3422393 Eh     change       -0.6831830E-04 Eh
 * total energy  :   -38.3422853 Eh     change       -0.4598828E-04 Eh
 * total energy  :   -38.3423230 Eh     change       -0.3764622E-04 Eh
 * total energy  :   -38.3443465 Eh     change       -0.2793517E-04 Eh
 * total energy  :   -38.3443592 Eh     change       -0.1270984E-04 Eh
 * total energy  :   -38.3443827 Eh     change       -0.2349494E-04 Eh
 * total energy  :   -38.3444129 Eh     change       -0.3018802E-04 Eh
 * total energy  :   -38.3444288 Eh     change       -0.1598399E-04 Eh
 * total energy  :   -38.3444386 Eh     change       -0.9744175E-05 Eh
 * total energy  :   -38.3444458 Eh     change       -0.7257011E-05 Eh
 * total energy  :   -38.3444515 Eh     change       -0.5638264E-05 Eh
 * total energy  :   -38.3444559 Eh     change       -0.4421252E-05 Eh
   *** GEOMETRY OPTIMIZATION CONVERGED AFTER 55 ITERATIONS ***

 final structure:
================
20
 xtb: 6.5.1 (579679a)
C           -2.78347703819677        1.25464486757269        0.33698334690425
O           -2.16797818524047        0.01012492779869        0.56365121187504
C           -1.29114088728941       -0.45990595600404       -0.57191522040793
C           -1.12243246440245       -1.97758602602697       -0.25505218011912
O           -1.71770192718280       -0.16537314591896       -1.74888287085721
C            0.09769738839741        0.22615133012652       -0.26059819082321
N            0.32735106947566        1.46028209178789        0.06310379566515
N            1.69918264440995        1.62231863261735        0.10027885991896
C            2.20551616679396        0.47747434736531       -0.21018978367613
C            3.64139609086237        0.12319415252842       -0.32444430263298
O            1.25638622217789       -0.44883185537300       -0.45174986237069
H           -2.08247837195103        2.09258343220264        0.48961960008075
H           -3.60931308920322        1.35970733516398        1.04770245297274
H           -3.18989840191253        1.32583716564434       -0.68390075714637
H           -0.40025651730188       -2.40532083359820       -0.94705150698346
H           -0.78216617492669       -2.12449926625432        0.76826339316540
H           -2.08528964965826       -2.46542603679306       -0.39360482384561
H            3.89109120512061       -0.11070996757561       -1.35971204252548
H            4.25045847678280        0.95926153342312        0.00996762065938
H            3.86305344324572       -0.75392572868498        0.28209826014465

          :  Hamiltonian                  GFN1-xTB          :
         :: total energy             -38.344455908424 Eh    ::
         :: gradient norm              0.000835537830 Eh/a0 ::
         :: HOMO-LUMO gap              3.311668089075 eV    ::
         :: SCC energy               -38.654053214289 Eh    ::
         :: -> Gsolv                  -0.103994645606 Eh    ::
         :: repulsion energy           0.318107920579 Eh    ::

    * Orbital Energies and Occupations

         #    Occupation            Energy/Eh            Energy/eV
      -------------------------------------------------------------
         1        2.0000           -0.8215562             -22.3557
       ...           ...                  ...                  ...
        19        2.0000           -0.5104686             -13.8906
        20        2.0000           -0.5013392             -13.6421
        21        2.0000           -0.4795533             -13.0493
        22        2.0000           -0.4720320             -12.8446
        23        2.0000           -0.4632909             -12.6068
        24        2.0000           -0.4619230             -12.5696
        25        2.0000           -0.4466646             -12.1544
        26        2.0000           -0.4399531             -11.9717
        27        2.0000           -0.4171755             -11.3519
        28        2.0000           -0.4134573             -11.2507
        29        2.0000           -0.4045272             -11.0077
        30        2.0000           -0.3686416             -10.0312
        31        2.0000           -0.3499820              -9.5235 (HOMO)
        32                         -0.2282804              -6.2118 (LUMO)
        33                         -0.2125566              -5.7840
        34                         -0.1304769              -3.5505
        35                         -0.1004910              -2.7345
        36                         -0.0834133              -2.2698
        37                         -0.0632943              -1.7223
        38                         -0.0623806              -1.6975
        39                         -0.0379059              -1.0315
        40                         -0.0307012              -0.8354
        41                         -0.0280653              -0.7637
        42                         -0.0263353              -0.7166
       ...                                ...                  ...
        62                          0.6105030              16.6126
      -------------------------------------------------------------
                  HL-Gap            0.1217016 Eh            3.3117 eV

Wiberg/Mayer (AO) data.
largest (>0.10) Wiberg bond orders for each atom

     #   Z sym  total        # sym  WBO       # sym  WBO       # sym  WBO
 ---------------------------------------------------------------------------
     1   6 C    3.932 --    13 H    0.985    12 H    0.979    14 H    0.975
                             2 O    0.971
     2   8 O    1.942 --     1 C    0.971     3 C    0.791
     3   6 C    3.899 --     5 O    1.252     4 C    0.941     6 C    0.865
                             2 O    0.791
     4   6 C    3.994 --    16 H    0.990    15 H    0.987    17 H    0.987
                             3 C    0.941
     5   8 O    1.552 --     3 C    1.252
     6   6 C    3.802 --     7 N    1.657    11 O    1.046     3 C    0.865
     7   7 N    2.980 --     6 C    1.657     8 N    1.148
     8   7 N    2.976 --     9 C    1.656     7 N    1.148
     9   6 C    3.887 --     8 N    1.656    11 O    1.061    10 C    1.024
    10   6 C    3.993 --     9 C    1.024    19 H    0.985    20 H    0.972
                            18 H    0.968
    11   8 O    2.292 --     9 C    1.061     6 C    1.046
    12   1 H    1.034 --     1 C    0.979
    13   1 H    1.023 --     1 C    0.985
    14   1 H    1.033 --     1 C    0.975
    15   1 H    1.016 --     4 C    0.987
    16   1 H    1.012 --     4 C    0.990
    17   1 H    1.017 --     4 C    0.987
    18   1 H    1.002 --    10 C    0.968
    19   1 H    1.003 --    10 C    0.985
    20   1 H    1.001 --    10 C    0.972
 ---------------------------------------------------------------------------

           -------------------------------------------------
          | TOTAL ENERGY              -38.344455908424 Eh   |
          | GRADIENT NORM               0.000835537830 Eh/α |
          | HOMO-LUMO GAP               3.311668089075 eV   |
           -------------------------------------------------

 * finished run on 2023/06/20 at 14:52:34.116
