   * xtb version 6.5.1 (579679a) compiled by 'ehlert@majestix' on 2022-07-11
          program call               : /lustre/hpc/kemi/ree/PhD/git/ReactivityQM/dep/xtb-6.5.1/bin/xtb --gfn 1 /lustre/hpc/kemi/ree/PhD/git/ReactivityQM/calculations/R02deprot/reac01prodN12/conf17/R02deprot_reac01prodN12_conf17_gfn1.xyz --opt --vfukui --chrg 0 --uhf 0 --alpb DMSO

   ID    Z sym.   atoms
    1    6 C      1, 3, 5, 7-10, 12, 13, 15, 18, 19, 22, 24
    2    8 O      2, 4, 14, 20, 23, 25
    3    7 N      6, 11, 16, 17, 21
    4    1 H      26-42

      * Solvation model:               ALPB
        Solvent                        DMSO
        Solvent mass                       7.8130E+01 g/mol
          :  Hamiltonian                  GFN1-xTB          :
 * total energy  :   -82.8407444 Eh     change       -0.1027871E-09 Eh
 * total energy  :   -82.8538463 Eh     change       -0.1310190E-01 Eh
 * total energy  :   -82.8601576 Eh     change       -0.6311345E-02 Eh
 * total energy  :   -82.8618305 Eh     change       -0.1672911E-02 Eh
 * total energy  :   -82.8628461 Eh     change       -0.1015606E-02 Eh
 * total energy  :   -82.8631941 Eh     change       -0.3479602E-03 Eh
 * total energy  :   -82.8633691 Eh     change       -0.1750109E-03 Eh
 * total energy  :   -82.8634970 Eh     change       -0.1278763E-03 Eh
 * total energy  :   -82.8635982 Eh     change       -0.1012110E-03 Eh
 * total energy  :   -82.8636877 Eh     change       -0.8956327E-04 Eh
 * total energy  :   -82.8755706 Eh     change       -0.1889552E-04 Eh
 * total energy  :   -82.8755873 Eh     change       -0.1669028E-04 Eh
 * total energy  :   -82.8756053 Eh     change       -0.1798862E-04 Eh
 * total energy  :   -82.8756206 Eh     change       -0.1532297E-04 Eh
 * total energy  :   -82.8756331 Eh     change       -0.1253294E-04 Eh
 * total energy  :   -82.8756385 Eh     change       -0.5418983E-05 Eh
 * total energy  :   -82.8756454 Eh     change       -0.6848444E-05 Eh
 * total energy  :   -82.8756510 Eh     change       -0.5634152E-05 Eh
 * total energy  :   -82.8756547 Eh     change       -0.3707202E-05 Eh
   *** GEOMETRY OPTIMIZATION CONVERGED AFTER 97 ITERATIONS ***

 final structure:
================
42
 xtb: 6.5.1 (579679a)
C            6.43297412684637        0.88622944245140        1.53301899057899
O            5.25718224680533        0.96162258947597        0.71988389177304
C            4.31928722355610        0.04896313035334        0.94091661263980
O            4.41117245663416       -0.82022623891231        1.77494828951450
C            3.11943575452706        0.21234520157255        0.05400285644719
N            2.09100875549996       -0.59619649918752        0.35067185775579
C            0.94505893265817       -0.44928907202875       -0.31581770280982
C           -0.19268579973226       -1.36462432624095        0.07816394099084
C            0.00269971459591       -2.68676096857267       -0.70587225659995
C           -0.19888830292398       -1.64790603763135        1.58716734776046
N           -1.41141870007824       -0.73101212114649       -0.32314089328266
C           -2.72815231320933       -1.30259184443082       -0.16079934154002
C           -3.26337142450640       -1.43519916059799       -1.67268533483516
O           -2.83864779784752       -2.40339602639089        0.46990391771919
C           -3.60233670111182       -0.13972119871526        0.35744879082229
N           -4.51747835612304       -0.18047736230794        1.26231161192190
N           -4.98689448885155        1.10229055885603        1.37763683647736
C           -4.33406510819419        1.82671778171122        0.52839207313424
C           -4.46866444204009        3.27668290112814        0.27169557322174
O           -3.43380143410644        1.09304805168588       -0.15808862287133
N            0.70856054342358        0.42545823816580       -1.26753212099970
C            1.70307711114478        1.25100424748970       -1.69568047609300
O            1.61727048278991        2.04185300289898       -2.62886697832052
C            2.98899162486528        1.14506532601071       -0.96478490341596
O            3.96160452617207        1.92141380925654       -1.40446026256673
H            6.96946415337366       -0.04302324418902        1.32849795120682
H            6.16015840903991        0.92255423204226        2.59019091594304
H            7.04718112993403        1.74455797252351        1.26953919611903
H            0.96201029885941       -3.12105268617786       -0.43189947535298
H           -0.79688615420736       -3.38070368416330       -0.45621661053947
H           -0.01142484379415       -2.48018816803245       -1.77376985090137
H           -0.39435698442493       -0.72594245045191        2.13190221376491
H            0.77997765829132       -2.03198998919259        1.86925664000247
H           -0.96070564880982       -2.38340136278907        1.83724253197242
H           -1.31401681793220        0.06877909932308       -0.94215517837651
H           -3.19793632411521       -0.47826888005562       -2.17738465694617
H           -2.64369867821338       -2.18071864591365       -2.15943382468666
H           -4.29190049793898       -1.77559683703074       -1.60475459646609
H           -4.73475148822806        3.44686621944794       -0.77121906360418
H           -5.23840385948850        3.69177573106874        0.91784357706589
H           -3.51999904795594        3.77810227519210        0.46273419571020
H            3.60337206482882        2.51295999349616       -2.09880966231176

          :  Hamiltonian                  GFN1-xTB          :
         :: total energy             -82.875654720784 Eh    ::
         :: gradient norm              0.000874610767 Eh/a0 ::
         :: HOMO-LUMO gap              0.109806164277 eV    ::
         :: SCC energy               -83.635883738001 Eh    ::
         :: -> Gsolv                  -0.056863258996 Eh    ::
         :: repulsion energy           0.786179490915 Eh    ::

    * Orbital Energies and Occupations

         #    Occupation            Energy/Eh            Energy/eV
      -------------------------------------------------------------
         1        2.0000           -0.8699800             -23.6734
       ...           ...                  ...                  ...
        55        2.0000           -0.5071339             -13.7998
        56        2.0000           -0.4999751             -13.6050
        57        2.0000           -0.4977701             -13.5450
        58        2.0000           -0.4841655             -13.1748
        59        2.0000           -0.4828802             -13.1398
        60        2.0000           -0.4773344             -12.9889
        61        2.0000           -0.4643420             -12.6354
        62        2.0000           -0.4623866             -12.5822
        63        2.0000           -0.4608846             -12.5413
        64        2.0000           -0.4522959             -12.3076
        65        2.0000           -0.4492230             -12.2240
        66        1.9994           -0.4290375             -11.6747
        67        1.7867           -0.4233984             -11.5213 (HOMO)
        68        0.2139           -0.4193631             -11.4115 (LUMO)
        69                         -0.3183363              -8.6624
        70                         -0.2850825              -7.7575
        71                         -0.2751104              -7.4861
        72                         -0.2565764              -6.9818
        73                         -0.2347229              -6.3871
        74                         -0.1608295              -4.3764
        75                         -0.1443167              -3.9271
        76                         -0.1390909              -3.7849
        77                         -0.1386774              -3.7736
        78                         -0.1278605              -3.4793
       ...                                ...                  ...
       134                          0.7297055              19.8563
      -------------------------------------------------------------
                  HL-Gap            0.0040353 Eh            0.1098 eV

Wiberg/Mayer (AO) data.
largest (>0.10) Wiberg bond orders for each atom

     #   Z sym  total        # sym  WBO       # sym  WBO       # sym  WBO
 ---------------------------------------------------------------------------
     1   6 C    3.866 --    28 H    0.986    27 H    0.979    26 H    0.979
                             2 O    0.892
     2   8 O    2.208 --     3 C    1.126     1 C    0.892     4 O    0.138
     3   6 C    3.844 --     4 O    1.666     2 O    1.126     5 C    0.976
     4   8 O    1.924 --     3 C    1.666     2 O    0.138
     5   6 C    3.921 --    24 C    1.361     6 N    1.332     3 C    0.976
     6   7 N    2.930 --     5 C    1.332     7 C    1.325
     7   6 C    3.925 --    21 N    1.446     6 N    1.325     8 C    0.980
     8   6 C    3.926 --    11 N    0.985     7 C    0.980    10 C    0.961
                             9 C    0.911
     9   6 C    3.957 --    31 H    0.985    29 H    0.983    30 H    0.979
                             8 C    0.911
    10   6 C    3.972 --    32 H    0.985    33 H    0.979    34 H    0.977
                             8 C    0.961
    11   7 N    3.335 --     8 C    0.985    12 C    0.956    35 H    0.875
                            14 O    0.198
    12   6 C    3.895 --    14 O    1.285    11 N    0.956    15 C    0.848
                            13 C    0.732
    13   6 C    3.812 --    36 H    0.986    37 H    0.980    38 H    0.980
                            12 C    0.732
    14   8 O    1.690 --    12 C    1.285    11 N    0.198
    15   6 C    3.809 --    16 N    1.660    20 O    1.059    12 C    0.848
    16   7 N    2.980 --    15 C    1.660    17 N    1.156
    17   7 N    2.983 --    18 C    1.635    16 N    1.156
    18   6 C    3.859 --    17 N    1.635    20 O    1.052    19 C    1.031
    19   6 C    3.985 --    18 C    1.031    40 H    0.982    39 H    0.963
                            41 H    0.963
    20   8 O    2.307 --    15 C    1.059    18 C    1.052
    21   7 N    3.049 --     7 C    1.446    22 C    1.179
    22   6 C    3.879 --    23 O    1.573    21 N    1.179    24 C    1.006
    23   8 O    1.835 --    22 C    1.573
    24   6 C    3.753 --     5 C    1.361    25 O    1.169    22 C    1.006
    25   8 O    2.076 --    24 C    1.169    42 H    0.788
    26   1 H    1.006 --     1 C    0.979
    27   1 H    1.006 --     1 C    0.979
    28   1 H    1.010 --     1 C    0.986
    29   1 H    1.000 --     9 C    0.983
    30   1 H    1.008 --     9 C    0.979
    31   1 H    1.001 --     9 C    0.985
    32   1 H    1.000 --    10 C    0.985
    33   1 H    1.011 --    10 C    0.979
    34   1 H    1.011 --    10 C    0.977
    35   1 H    0.954 --    11 N    0.875
    36   1 H    0.998 --    13 C    0.986
    37   1 H    0.996 --    13 C    0.980
    38   1 H    0.998 --    13 C    0.980
    39   1 H    0.996 --    19 C    0.963
    40   1 H    0.998 --    19 C    0.982
    41   1 H    0.997 --    19 C    0.963
    42   1 H    0.837 --    25 O    0.788
 ---------------------------------------------------------------------------

           -------------------------------------------------
          | TOTAL ENERGY              -82.875654720784 Eh   |
          | GRADIENT NORM               0.000874610767 Eh/α |
          | HOMO-LUMO GAP               0.109806164277 eV   |
           -------------------------------------------------

 * finished run on 2023/06/20 at 18:21:11.075
