   * xtb version 6.5.1 (579679a) compiled by 'ehlert@majestix' on 2022-07-11
          program call               : /lustre/hpc/kemi/ree/PhD/git/ReactivityQM/dep/xtb-6.5.1/bin/xtb --gfn 1 /lustre/hpc/kemi/ree/PhD/git/ReactivityQM/calculations/RaltegravirCLI/reac02prodN10/conf11/RaltegravirCLI_reac02prodN10_conf11_gfn1.xyz --opt --vfukui --chrg 1 --uhf 0 --alpb DMSO

   ID    Z sym.   atoms
    1    6 C      1-5, 7, 9, 11-14, 17, 18, 20, 22-24
    2    7 N      6, 10, 15, 16
    3    8 O      8, 19, 21
    4    9 F      25
    5    1 H      26-47

      * Solvation model:               ALPB
        Solvent                        DMSO
        Solvent mass                       7.8130E+01 g/mol
          :  Hamiltonian                  GFN1-xTB          :
 * total energy  :   -79.4694817 Eh     change       -0.4952341E-09 Eh
 * total energy  :   -79.4783477 Eh     change       -0.8865969E-02 Eh
 * total energy  :   -79.4805547 Eh     change       -0.2207010E-02 Eh
 * total energy  :   -79.4809610 Eh     change       -0.4062705E-03 Eh
 * total energy  :   -79.4813306 Eh     change       -0.3696162E-03 Eh
 * total energy  :   -79.4815146 Eh     change       -0.1840795E-03 Eh
 * total energy  :   -79.4817047 Eh     change       -0.1900648E-03 Eh
 * total energy  :   -79.4818659 Eh     change       -0.1611907E-03 Eh
 * total energy  :   -79.4820163 Eh     change       -0.1503619E-03 Eh
 * total energy  :   -79.4821680 Eh     change       -0.1517512E-03 Eh
 * total energy  :   -79.4853378 Eh     change       -0.1721517E-04 Eh
 * total energy  :   -79.4853669 Eh     change       -0.2912094E-04 Eh
 * total energy  :   -79.4853790 Eh     change       -0.1209669E-04 Eh
 * total energy  :   -79.4854063 Eh     change       -0.2724543E-04 Eh
 * total energy  :   -79.4854190 Eh     change       -0.1272047E-04 Eh
 * total energy  :   -79.4854319 Eh     change       -0.1292492E-04 Eh
 * total energy  :   -79.4854389 Eh     change       -0.7038972E-05 Eh
 * total energy  :   -79.4854449 Eh     change       -0.5928075E-05 Eh
 * total energy  :   -79.4854491 Eh     change       -0.4231440E-05 Eh
   *** GEOMETRY OPTIMIZATION CONVERGED AFTER 52 ITERATIONS ***

 final structure:
================
47
 xtb: 6.5.1 (579679a)
C            4.57007065131705        1.59751472396082       -1.06450726460244
C            4.77439025527541        0.48185954514129       -0.00192160564010
C            3.55942642798533       -0.32125489485938        0.22638134161143
C            3.56315594619142       -1.68913761144226        0.19450056175114
C            2.31027038073872       -2.50671392859988        0.43095494387387
N            1.17717004328159       -1.67286576804317        0.75690867231554
C            0.25723873608747       -1.35384757515023       -0.18897323254912
O            0.25798939647221       -1.85107340663338       -1.30228531780003
C           -0.76400000084692       -0.35174317246676        0.25733885571429
N           -1.99074262239439       -0.45690122212624       -0.32633346374808
C           -2.94644412600619        0.37558235541831       -0.04661300934240
C           -4.26696869400001        0.13527650266811       -0.76793504326592
C           -4.33743678355768        1.04145952317047       -2.00578978615623
C           -4.33448588427381       -1.33689198733333       -1.21316977566999
N           -5.38841913692240        0.42201947637684        0.11376220666461
N           -2.76407688256060        1.42877069748694        0.81242089554786
C           -3.80516511425873        2.41376233758738        1.12226010681508
C           -1.55943010619999        1.61563412021667        1.46805693336851
O           -1.36463506394243        2.53196625521152        2.26278380792237
C           -0.52614928925025        0.65324908682378        1.14590389830763
O            0.66385220797843        0.84826725668466        1.76009622197032
C            4.76849540705375       -2.37349772476866       -0.07639151599312
C            5.96738007409001       -1.70143263797024       -0.30227173496952
C            5.96550220030472       -0.33178222209787       -0.27539478235525
F            7.07345046946781        0.32654562430301       -0.49873954073964
H            5.47811026211851        2.19199334570986       -1.13656695616953
H            3.74039427144117        2.23196210076850       -0.76387084669720
H            4.35151200266572        1.14314034855835       -2.02830558617717
H            4.97493696706685        1.02991968295860        0.93633343290623
H            2.64709312013265        0.22861639749768        0.43419412353312
H            2.48818473762310       -3.21311817848504        1.24593123337315
H            2.07143171723715       -3.07201782731291       -0.47692390699053
H            1.17901162733131       -1.21797841174396        1.65305838766980
H           -5.26012353317670        0.84390492656303       -2.54952794402746
H           -4.31722400655057        2.09294500698725       -1.72601334478521
H           -3.49070820638721        0.83689766815357       -2.65996859109629
H           -4.22593037507939       -1.99357586239500       -0.35155935416226
H           -5.29614234175635       -1.52685949495225       -1.68647766985816
H           -3.53609118767163       -1.55272990354561       -1.92195416350937
H           -6.24960056135475        0.44969777329674       -0.41232635194951
H           -5.46657537009560       -0.28550695039819        0.83132894557468
H           -4.48102897946422        2.00778461452936        1.87328405917065
H           -4.36592181735950        2.66254088876986        0.22751719139687
H           -3.31732077133693        3.30705240919787        1.51244576300091
H            0.57125869300563        1.61272771935874        2.36190758491564
H            4.76265000420698       -3.45747860063920       -0.11215574689538
H            6.88164625536165       -2.24468600641016       -0.50700763224995

          :  Hamiltonian                  GFN1-xTB          :
         :: total energy             -79.485449108504 Eh    ::
         :: gradient norm              0.000545929241 Eh/a0 ::
         :: HOMO-LUMO gap              0.162202375119 eV    ::
         :: SCC energy               -80.368384486783 Eh    ::
         :: -> Gsolv                  -0.106373944247 Eh    ::
         :: repulsion energy           0.913021792035 Eh    ::

    * Orbital Energies and Occupations

         #    Occupation            Energy/Eh            Energy/eV
      -------------------------------------------------------------
         1        2.0000           -0.9439809             -25.6870
       ...           ...                  ...                  ...
        55        2.0000           -0.5198115             -14.1448
        56        2.0000           -0.5154802             -14.0269
        57        2.0000           -0.5091334             -13.8542
        58        2.0000           -0.5009547             -13.6317
        59        2.0000           -0.4999217             -13.6036
        60        2.0000           -0.4927150             -13.4075
        61        2.0000           -0.4785461             -13.0219
        62        2.0000           -0.4731867             -12.8761
        63        2.0000           -0.4603110             -12.5257
        64        2.0000           -0.4565716             -12.4239
        65        2.0000           -0.4434820             -12.0678
        66        1.9999           -0.4291026             -11.6765
        67        1.9168           -0.4225130             -11.4972 (HOMO)
        68        0.0832           -0.4165522             -11.3350 (LUMO)
        69                         -0.3252609              -8.8508
        70                         -0.3181557              -8.6575
        71                         -0.2822932              -7.6816
        72                         -0.2472165              -6.7271
        73                         -0.2421567              -6.5894
        74                         -0.1628677              -4.4319
        75                         -0.1578142              -4.2943
        76                         -0.1526079              -4.1527
        77                         -0.1470926              -4.0026
        78                         -0.1373375              -3.7371
       ...                                ...                  ...
       144                          0.7083079              19.2740
      -------------------------------------------------------------
                  HL-Gap            0.0059608 Eh            0.1622 eV

Wiberg/Mayer (AO) data.
largest (>0.10) Wiberg bond orders for each atom

     #   Z sym  total        # sym  WBO       # sym  WBO       # sym  WBO
 ---------------------------------------------------------------------------
     1   6 C    3.956 --    28 H    0.985    27 H    0.983    26 H    0.982
                             2 C    0.907
     2   6 C    3.986 --     3 C    1.081    24 C    1.067     1 C    0.907
                            29 H    0.849
     3   6 C    3.920 --     4 C    1.562     2 C    1.081    30 H    0.957
     4   6 C    3.982 --     3 C    1.562    22 C    1.305     5 C    0.996
     5   6 C    3.952 --     4 C    0.996     6 N    0.969    31 H    0.960
                            32 H    0.951
     6   7 N    3.324 --     7 C    1.228     5 C    0.969    33 H    0.889
                             8 O    0.165
     7   6 C    3.899 --     8 O    1.608     6 N    1.228     9 C    0.984
     8   8 O    1.898 --     7 C    1.608     6 N    0.165
     9   6 C    3.966 --    20 C    1.511    10 N    1.205     7 C    0.984
    10   7 N    3.027 --    11 C    1.553     9 C    1.205
    11   6 C    3.921 --    10 N    1.553    16 N    1.182    12 C    0.975
    12   6 C    3.956 --    15 N    0.984    13 C    0.981    14 C    0.981
                            11 C    0.975
    13   6 C    3.992 --    36 H    0.985    34 H    0.982    12 C    0.981
                            35 H    0.979
    14   6 C    3.979 --    38 H    0.986    37 H    0.985    39 H    0.981
                            12 C    0.981
    15   7 N    2.946 --    12 C    0.984    41 H    0.933    40 H    0.930
    16   7 N    3.517 --    11 C    1.182    18 C    1.131    17 C    0.925
                            19 O    0.132
    17   6 C    3.917 --    43 H    0.978    44 H    0.975    42 H    0.975
                            16 N    0.925
    18   6 C    3.917 --    19 O    1.544    16 N    1.131    20 C    1.093
    19   8 O    1.892 --    18 C    1.544    16 N    0.132
    20   6 C    3.913 --     9 C    1.511    18 C    1.093    21 O    1.061
    21   8 O    2.057 --    20 C    1.061    45 H    0.799
    22   6 C    3.900 --    23 C    1.404     4 C    1.305    46 H    0.965
    23   6 C    3.981 --    24 C    1.468    22 C    1.404    47 H    0.956
    24   6 C    3.804 --    23 C    1.468     2 C    1.067    25 F    1.028
    25   9 F    1.190 --    24 C    1.028
    26   1 H    0.996 --     1 C    0.982
    27   1 H    0.993 --     1 C    0.983
    28   1 H    0.994 --     1 C    0.985
    29   1 H    0.971 --     2 C    0.849
    30   1 H    1.007 --     3 C    0.957
    31   1 H    0.998 --     5 C    0.960
    32   1 H    1.005 --     5 C    0.951
    33   1 H    0.937 --     6 N    0.889
    34   1 H    0.999 --    13 C    0.982
    35   1 H    1.003 --    13 C    0.979
    36   1 H    1.003 --    13 C    0.985
    37   1 H    1.006 --    14 C    0.985
    38   1 H    1.002 --    14 C    0.986
    39   1 H    1.012 --    14 C    0.981
    40   1 H    0.946 --    15 N    0.930
    41   1 H    0.949 --    15 N    0.933
    42   1 H    1.013 --    17 C    0.975
    43   1 H    1.018 --    17 C    0.978
    44   1 H    1.007 --    17 C    0.975
    45   1 H    0.842 --    21 O    0.799
    46   1 H    0.989 --    22 C    0.965
    47   1 H    0.985 --    23 C    0.956
 ---------------------------------------------------------------------------

           -------------------------------------------------
          | TOTAL ENERGY              -79.485449108504 Eh   |
          | GRADIENT NORM               0.000545929241 Eh/α |
          | HOMO-LUMO GAP               0.162202375119 eV   |
           -------------------------------------------------

 * finished run on 2023/06/20 at 15:30:14.079
