   * xtb version 6.5.1 (579679a) compiled by 'ehlert@majestix' on 2022-07-11
          program call               : /lustre/hpc/kemi/ree/PhD/git/ReactivityQM/dep/xtb-6.5.1/bin/xtb --gfn 1 /lustre/hpc/kemi/ree/PhD/git/ReactivityQM/calculations/R02deprot/reac01prodN17/conf08/R02deprot_reac01prodN17_conf08_gfn1.xyz --opt --vfukui --chrg 0 --uhf 0 --alpb DMSO

   ID    Z sym.   atoms
    1    6 C      1, 2, 5, 6, 9-12, 14, 15, 18-20, 22
    2    7 N      3, 4, 8, 13, 24
    3    8 O      7, 16, 17, 21, 23, 25
    4    1 H      26-42

      * Solvation model:               ALPB
        Solvent                        DMSO
        Solvent mass                       7.8130E+01 g/mol
          :  Hamiltonian                  GFN1-xTB          :
 * total energy  :   -82.9064716 Eh     change       -0.3581135E-11 Eh
 * total energy  :   -82.9203550 Eh     change       -0.1388341E-01 Eh
 * total energy  :   -82.9255677 Eh     change       -0.5212753E-02 Eh
 * total energy  :   -82.9267093 Eh     change       -0.1141536E-02 Eh
 * total energy  :   -82.9277671 Eh     change       -0.1057816E-02 Eh
 * total energy  :   -82.9286242 Eh     change       -0.8571174E-03 Eh
 * total energy  :   -82.9294189 Eh     change       -0.7946917E-03 Eh
 * total energy  :   -82.9300962 Eh     change       -0.6772662E-03 Eh
 * total energy  :   -82.9305916 Eh     change       -0.4954025E-03 Eh
 * total energy  :   -82.9309297 Eh     change       -0.3381074E-03 Eh
 * total energy  :   -82.9343505 Eh     change       -0.1482373E-04 Eh
 * total energy  :   -82.9343574 Eh     change       -0.6926967E-05 Eh
 * total energy  :   -82.9343657 Eh     change       -0.8291733E-05 Eh
 * total energy  :   -82.9343723 Eh     change       -0.6556270E-05 Eh
 * total energy  :   -82.9343779 Eh     change       -0.5578027E-05 Eh
 * total energy  :   -82.9343829 Eh     change       -0.5029924E-05 Eh
 * total energy  :   -82.9343880 Eh     change       -0.5126090E-05 Eh
 * total energy  :   -82.9343932 Eh     change       -0.5165353E-05 Eh
 * total energy  :   -82.9343982 Eh     change       -0.4998243E-05 Eh
   *** GEOMETRY OPTIMIZATION CONVERGED AFTER 75 ITERATIONS ***

 final structure:
================
42
 xtb: 6.5.1 (579679a)
C            3.73948225820836        2.60374107032665        2.62816332817906
C            4.13773670058932        1.55011515672617        1.66913177564841
N            5.33251679417315        1.10884575091936        1.42991040932249
N            5.21034855158802        0.14790286870346        0.46899633400183
C            3.94823236145030        0.06213434106473        0.18297419855980
C            3.31119534331759       -0.83669897778710       -0.81958731499008
O            3.98256595109640       -1.58335272579537       -1.51948980379151
N            1.97813835261608       -0.71740871420918       -0.85670140611153
C            1.10943854368802       -1.46779162035064       -1.76208192103876
C            1.23756232201583       -2.97409496199675       -1.48827217633574
C            1.46044572263114       -1.14081670727551       -3.21931628669157
C           -0.32582847584165       -1.05193096126288       -1.47661345258541
N           -0.54315857047183       -0.31957327222865       -0.40873785458192
C           -1.84524579588719        0.02840248844961       -0.12502492474324
C           -1.95645775843432        0.83646624533885        1.04145117770027
O           -1.17131424734767        1.32476942077549        1.77953769892439
O           -3.44871699537699        1.17715993230147        1.36829285412319
C           -3.56250316913787        2.45008857414458        2.04909075866797
C           -4.13147501795886        0.09800224187275        2.05641279810152
C           -2.85227402826101       -0.38707597242637       -0.97284472765677
O           -4.14909348735361       -0.12951127802998       -0.82456553586636
C           -2.52390465405084       -1.19992512430671       -2.16265213485056
O           -3.46672842153007       -1.54075423029638       -2.89153863137219
N           -1.22803305124365       -1.50955998409286       -2.34851729543708
O            3.21516610891506        0.93008618711082        0.91443625230299
H            3.23804425582971        3.41581549536881        2.10237054730774
H            4.62096959506886        2.98778953407141        3.13597484198401
H            3.04375772033278        2.19749354065895        3.36178156733962
H            1.50536492600428       -0.09608206674750       -0.21125103798157
H            0.50551740304209       -3.50865551542202       -2.09238132263337
H            1.04352657447640       -3.17568521301368       -0.43569337618496
H            2.23684928830428       -3.32495428853369       -1.74152714272443
H            0.73775376193494       -1.62486703717767       -3.87514722249999
H            1.41677222850699       -0.06403511974523       -3.37796957176726
H            2.46001963672335       -1.49802499378394       -3.46166777719064
H           -3.08128381678939        2.39319644094046        3.02584305638976
H           -4.62391395170224        2.66229696275219        2.14763319171014
H           -3.07581417349055        3.19042708589072        1.41823714797890
H           -3.93186191235764       -0.81680180962124        1.50441187596067
H           -3.76721082537521        0.02649848566906        3.08149364145750
H           -5.19374470273251        0.33079785190344        2.03310017303264
H           -4.59284234517568       -0.55443010090940       -1.60150371165203

          :  Hamiltonian                  GFN1-xTB          :
         :: total energy             -82.934398189419 Eh    ::
         :: gradient norm              0.000472144017 Eh/a0 ::
         :: HOMO-LUMO gap              1.677660573718 eV    ::
         :: SCC energy               -83.715032218491 Eh    ::
         :: -> Gsolv                  -0.071519369476 Eh    ::
         :: repulsion energy           0.806409532371 Eh    ::

    * Orbital Energies and Occupations

         #    Occupation            Energy/Eh            Energy/eV
      -------------------------------------------------------------
         1        2.0000           -0.9006359             -24.5075
       ...           ...                  ...                  ...
        55        2.0000           -0.5006227             -13.6226
        56        2.0000           -0.4896787             -13.3248
        57        2.0000           -0.4874272             -13.2636
        58        2.0000           -0.4752431             -12.9320
        59        2.0000           -0.4653907             -12.6639
        60        2.0000           -0.4575645             -12.4510
        61        2.0000           -0.4570930             -12.4381
        62        2.0000           -0.4525555             -12.3147
        63        2.0000           -0.4463857             -12.1468
        64        2.0000           -0.4358628             -11.8604
        65        2.0000           -0.4319701             -11.7545
        66        2.0000           -0.4035808             -10.9820
        67        2.0000           -0.4026811             -10.9575 (HOMO)
        68                         -0.3410282              -9.2799 (LUMO)
        69                         -0.3025491              -8.2328
        70                         -0.2571492              -6.9974
        71                         -0.2533396              -6.8937
        72                         -0.2328273              -6.3356
        73                         -0.1908083              -5.1922
        74                         -0.1695992              -4.6150
        75                         -0.1591518              -4.3307
        76                         -0.1418979              -3.8612
        77                         -0.1407046              -3.8288
        78                         -0.1386861              -3.7738
       ...                                ...                  ...
       134                          0.7853421              21.3702
      -------------------------------------------------------------
                  HL-Gap            0.0616529 Eh            1.6777 eV

Wiberg/Mayer (AO) data.
largest (>0.10) Wiberg bond orders for each atom

     #   Z sym  total        # sym  WBO       # sym  WBO       # sym  WBO
 ---------------------------------------------------------------------------
     1   6 C    3.987 --     2 C    1.031    27 H    0.983    26 H    0.964
                            28 H    0.964
     2   6 C    3.871 --     3 N    1.616    25 O    1.073     1 C    1.031
     3   7 N    2.981 --     2 C    1.616     4 N    1.193
     4   7 N    2.996 --     5 C    1.626     3 N    1.193
     5   6 C    3.869 --     4 N    1.626    25 O    1.048     6 C    0.985
     6   6 C    3.923 --     7 O    1.563     8 N    1.293     5 C    0.985
     7   8 O    1.883 --     6 C    1.563     8 N    0.184
     8   7 N    3.379 --     6 C    1.293     9 C    0.925    29 H    0.877
                             7 O    0.184
     9   6 C    3.933 --    11 C    0.985    10 C    0.978    12 C    0.977
                             8 N    0.925
    10   6 C    3.990 --    31 H    0.986    30 H    0.985    32 H    0.982
                             9 C    0.978
    11   6 C    3.991 --    34 H    0.986     9 C    0.985    33 H    0.983
                            35 H    0.983
    12   6 C    3.951 --    13 N    1.479    24 N    1.342     9 C    0.977
    13   7 N    3.011 --    12 C    1.479    14 C    1.155
    14   6 C    3.954 --    20 C    1.389    15 C    1.165    13 N    1.155
    15   6 C    3.790 --    16 O    1.799    14 C    1.165    17 O    0.657
    16   8 O    2.087 --    15 C    1.799
    17   8 O    2.458 --    18 C    0.841    19 C    0.834    15 C    0.657
    18   6 C    3.813 --    36 H    0.979    37 H    0.978    38 H    0.978
                            17 O    0.841
    19   6 C    3.809 --    40 H    0.982    41 H    0.977    39 H    0.975
                            17 O    0.834
    20   6 C    3.893 --    14 C    1.389    21 O    1.133    22 C    1.034
    21   8 O    2.111 --    20 C    1.133    42 H    0.780
    22   6 C    3.932 --    23 O    1.497    24 N    1.270    20 C    1.034
    23   8 O    1.848 --    22 C    1.497    24 N    0.134
    24   7 N    2.997 --    12 C    1.342    22 C    1.270    23 O    0.134
    25   8 O    2.315 --     2 C    1.073     5 C    1.048
    26   1 H    0.997 --     1 C    0.964
    27   1 H    0.999 --     1 C    0.983
    28   1 H    0.997 --     1 C    0.964
    29   1 H    0.964 --     8 N    0.877
    30   1 H    1.009 --    10 C    0.985
    31   1 H    1.004 --    10 C    0.986
    32   1 H    1.011 --    10 C    0.982
    33   1 H    1.015 --    11 C    0.983
    34   1 H    1.004 --    11 C    0.986
    35   1 H    1.011 --    11 C    0.983
    36   1 H    1.001 --    18 C    0.979
    37   1 H    0.997 --    18 C    0.978
    38   1 H    0.998 --    18 C    0.978
    39   1 H    1.006 --    19 C    0.975
    40   1 H    0.995 --    19 C    0.982
    41   1 H    0.999 --    19 C    0.977
    42   1 H    0.849 --    21 O    0.780
 ---------------------------------------------------------------------------

           -------------------------------------------------
          | TOTAL ENERGY              -82.934398189419 Eh   |
          | GRADIENT NORM               0.000472144017 Eh/α |
          | HOMO-LUMO GAP               1.677660573718 eV   |
           -------------------------------------------------

 * finished run on 2023/06/20 at 18:28:17.170
