                         Program Version 5.0.1 -  RELEASE  -
|  1> # ORCA input file
|  2> ! SP r2SCAN-3c CPCM
|  3>
|  4> %maxcore 1875.0
|  5> %pal nprocs 4 end
|  6> %cpcm smd true SMDsolvent "DMSO" end
|  7>
|  8> *xyz 1 1
|  9> C       6.269248    0.415875   -1.553105
| 10> O       4.987423    0.254225   -0.933897
| 11> C       4.713296   -0.944083   -0.441412
| 12> O       5.485758   -1.884823   -0.505009
| 13> C       3.382629   -1.040074    0.202860
| 14> N       2.597014    0.087033    0.192333
| 15> C       1.439741    0.036961    0.752040
| 16> C       0.567134    1.271450    0.798579
| 17> C       0.661921    1.902433    2.190395
| 18> C       0.981893    2.262822   -0.290961
| 19> N      -0.833136    0.869508    0.589635
| 20> C      -1.202893    0.141094   -0.473327
| 21> O      -0.464557   -0.359643   -1.294713
| 22> C      -2.692565   -0.038603   -0.557958
| 23> N      -3.356172   -0.703966   -1.452454
| 24> N      -4.648593   -0.549987   -1.110872
| 25> C      -5.691877   -1.178358   -1.896753
| 26> C      -4.745101    0.194272   -0.029301
| 27> C      -5.948665    0.621993    0.700058
| 28> O      -3.524401    0.530059    0.338163
| 29> N       0.973119   -1.082700    1.375573
| 30> C       1.653952   -2.285345    1.434399
| 31> O       1.167341   -3.256180    1.984213
| 32> C       2.968168   -2.215212    0.782505
| 33> O       3.692990   -3.332496    0.805781
| 34> H       7.060030    0.175892   -0.838899
| 35> H       6.350161   -0.243481   -2.420125
| 36> H       6.335885    1.457543   -1.859461
| 37> H       0.024635    2.782898    2.241244
| 38> H       0.344124    1.189514    2.948818
| 39> H       1.691456    2.197585    2.388477
| 40> H       0.924821    1.789048   -1.269911
| 41> H       0.324138    3.128706   -0.270069
| 42> H       2.007607    2.582095   -0.112384
| 43> H      -1.535973    1.286708    1.173225
| 44> H      -6.533831   -0.494231   -1.968272
| 45> H      -6.002218   -2.097760   -1.401020
| 46> H      -5.286451   -1.398192   -2.881404
| 47> H      -6.627662    1.145032    0.024604
| 48> H      -5.662666    1.277723    1.519859
| 49> H      -6.474361   -0.250032    1.093093
| 50> H       0.065432   -1.056878    1.811098
| 51> H       4.561208   -3.188422    0.360262
| 52> **                         ****END OF INPUT****

CARTESIAN COORDINATES (ANGSTROEM)
---------------------------------
  C      6.269248    0.415875   -1.553105
  O      4.987423    0.254225   -0.933897
  C      4.713296   -0.944083   -0.441412
  O      5.485758   -1.884823   -0.505009
  C      3.382629   -1.040074    0.202860
  N      2.597014    0.087033    0.192333
  C      1.439741    0.036961    0.752040
  C      0.567134    1.271450    0.798579
  C      0.661921    1.902433    2.190395
  C      0.981893    2.262822   -0.290961
  N     -0.833136    0.869508    0.589635
  C     -1.202893    0.141094   -0.473327
  O     -0.464557   -0.359643   -1.294713
  C     -2.692565   -0.038603   -0.557958
  N     -3.356172   -0.703966   -1.452454
  N     -4.648593   -0.549987   -1.110872
  C     -5.691877   -1.178358   -1.896753
  C     -4.745101    0.194272   -0.029301
  C     -5.948665    0.621993    0.700058
  O     -3.524401    0.530059    0.338163
  N      0.973119   -1.082700    1.375573
  C      1.653952   -2.285345    1.434399
  O      1.167341   -3.256180    1.984213
  C      2.968168   -2.215212    0.782505
  O      3.692990   -3.332496    0.805781
  H      7.060030    0.175892   -0.838899
  H      6.350161   -0.243481   -2.420125
  H      6.335885    1.457543   -1.859461
  H      0.024635    2.782898    2.241244
  H      0.344124    1.189514    2.948818
  H      1.691456    2.197585    2.388477
  H      0.924821    1.789048   -1.269911
  H      0.324138    3.128706   -0.270069
  H      2.007607    2.582095   -0.112384
  H     -1.535973    1.286708    1.173225
  H     -6.533831   -0.494231   -1.968272
  H     -6.002218   -2.097760   -1.401020
  H     -5.286451   -1.398192   -2.881404
  H     -6.627662    1.145032    0.024604
  H     -5.662666    1.277723    1.519859
  H     -6.474361   -0.250032    1.093093
  H      0.065432   -1.056878    1.811098
  H      4.561208   -3.188422    0.360262

 Total Charge           Charge          ....    1
 Multiplicity           Mult            ....    1
 Number of Electrons    NEL             ....  184
 Basis Dimension        Dim             ....  620

ORBITAL ENERGIES
----------------

  NO   OCC          E(Eh)            E(eV)
   0   2.0000     -19.116699      -520.1918
   1   2.0000     -19.012196      -517.3482
   2   2.0000     -18.998679      -516.9803
   3   2.0000     -18.958695      -515.8923
   4   2.0000     -18.956626      -515.8360
   5   2.0000     -18.934860      -515.2437
   6   2.0000     -14.324533      -389.7904
   7   2.0000     -14.257800      -387.9745
   8   2.0000     -14.228248      -387.1703
   9   2.0000     -14.221333      -386.9821
  10   2.0000     -14.167895      -385.5280
  11   2.0000     -10.217072      -278.0207
  12   2.0000     -10.190252      -277.2909
  13   2.0000     -10.180679      -277.0304
  14   2.0000     -10.176251      -276.9099
  15   2.0000     -10.154007      -276.3046
  16   2.0000     -10.128969      -275.6232
  17   2.0000     -10.127563      -275.5850
  18   2.0000     -10.112620      -275.1784
  19   2.0000     -10.094954      -274.6977
  20   2.0000     -10.092678      -274.6357
  21   2.0000     -10.081619      -274.3348
  22   2.0000     -10.071112      -274.0489
  23   2.0000     -10.033103      -273.0146
  24   2.0000     -10.023840      -272.7625
  25   2.0000      -1.218726       -33.1632
  26   2.0000      -1.091703       -29.7067
  27   2.0000      -1.060274       -28.8515
  28   2.0000      -1.055150       -28.7121
  29   2.0000      -1.048987       -28.5444
  30   2.0000      -1.023671       -27.8555
  31   2.0000      -0.999852       -27.2074
  32   2.0000      -0.971854       -26.4455
  33   2.0000      -0.932902       -25.3855
  34   2.0000      -0.903632       -24.5891
  35   2.0000      -0.883736       -24.0477
  36   2.0000      -0.801231       -21.8026
  37   2.0000      -0.781500       -21.2657
  38   2.0000      -0.754479       -20.5304
  39   2.0000      -0.732069       -19.9206
  40   2.0000      -0.715920       -19.4812
  41   2.0000      -0.709025       -19.2936
  42   2.0000      -0.672480       -18.2991
  43   2.0000      -0.658514       -17.9191
  44   2.0000      -0.648492       -17.6464
  45   2.0000      -0.646342       -17.5879
  46   2.0000      -0.622219       -16.9314
  47   2.0000      -0.572784       -15.5863
  48   2.0000      -0.567521       -15.4430
  49   2.0000      -0.561822       -15.2879
  50   2.0000      -0.553315       -15.0565
  51   2.0000      -0.551420       -15.0049
  52   2.0000      -0.540494       -14.7076
  53   2.0000      -0.509740       -13.8707
  54   2.0000      -0.501475       -13.6458
  55   2.0000      -0.489364       -13.3163
  56   2.0000      -0.471926       -12.8418
  57   2.0000      -0.466536       -12.6951
  58   2.0000      -0.457601       -12.4520
  59   2.0000      -0.454758       -12.3746
  60   2.0000      -0.451775       -12.2934
  61   2.0000      -0.451328       -12.2813
  62   2.0000      -0.444323       -12.0906
  63   2.0000      -0.435286       -11.8447
  64   2.0000      -0.427280       -11.6269
  65   2.0000      -0.421792       -11.4775
  66   2.0000      -0.412965       -11.2373
  67   2.0000      -0.409987       -11.1563
  68   2.0000      -0.407334       -11.0841
  69   2.0000      -0.399133       -10.8610
  70   2.0000      -0.396539       -10.7904
  71   2.0000      -0.389821       -10.6076
  72   2.0000      -0.383653       -10.4397
  73   2.0000      -0.372744       -10.1429
  74   2.0000      -0.370423       -10.0797
  75   2.0000      -0.366034        -9.9603
  76   2.0000      -0.362181        -9.8554
  77   2.0000      -0.358650        -9.7594
  78   2.0000      -0.346859        -9.4385
  79   2.0000      -0.344352        -9.3703
  80   2.0000      -0.343042        -9.3347
  81   2.0000      -0.331265        -9.0142
  82   2.0000      -0.329693        -8.9714
  83   2.0000      -0.303667        -8.2632
  84   2.0000      -0.291433        -7.9303
  85   2.0000      -0.283649        -7.7185
  86   2.0000      -0.282713        -7.6930
  87   2.0000      -0.271661        -7.3923
  88   2.0000      -0.266751        -7.2587
  89   2.0000      -0.248698        -6.7674
  90   2.0000      -0.246602        -6.7104
  91   2.0000      -0.214215        -5.8291
  92   0.0000      -0.117436        -3.1956
  93   0.0000      -0.098177        -2.6715
  94   0.0000      -0.087457        -2.3798
  95   0.0000      -0.041400        -1.1265
  96   0.0000       0.005409         0.1472

MULLIKEN ATOMIC CHARGES
-----------------------
   0 C :   -0.309511
   1 O :   -0.186405
   2 C :    0.218381
   3 O :   -0.480548
   4 C :    0.129990
   5 N :   -0.124259
   6 C :    0.233070
   7 C :    0.050631
   8 C :   -0.536124
   9 C :   -0.585857
  10 N :   -0.172713
  11 C :   -0.023490
  12 O :   -0.419511
  13 C :    0.444780
  14 N :   -0.388345
  15 N :    0.489463
  16 C :   -0.411846
  17 C :    0.274819
  18 C :   -0.590197
  19 O :    0.004790
  20 N :   -0.046530
  21 C :    0.061874
  22 O :   -0.392440
  23 C :    0.051636
  24 O :   -0.357042
  25 H :    0.179859
  26 H :    0.180284
  27 H :    0.180371
  28 H :    0.192749
  29 H :    0.192490
  30 H :    0.199681
  31 H :    0.195814
  32 H :    0.188816
  33 H :    0.190273
  34 H :    0.326952
  35 H :    0.212483
  36 H :    0.219731
  37 H :    0.216862
  38 H :    0.233342
  39 H :    0.219721
  40 H :    0.234796
  41 H :    0.325978
  42 H :    0.375183
Sum of atomic charges:    1.0000000

LOEWDIN ATOMIC CHARGES
----------------------
   0 C :   -0.031252
   1 O :   -0.556867
   2 C :    0.408793
   3 O :   -0.463385
   4 C :    0.195549
   5 N :   -0.550109
   6 C :    0.353394
   7 C :    0.108298
   8 C :   -0.334111
   9 C :   -0.339281
  10 N :   -0.557173
  11 C :    0.384021
  12 O :   -0.411061
  13 C :    0.469026
  14 N :   -0.192594
  15 N :   -0.498181
  16 C :   -0.020251
  17 C :    0.481268
  18 C :   -0.289672
  19 O :   -0.331874
  20 N :   -0.439628
  21 C :    0.373334
  22 O :   -0.435841
  23 C :    0.283584
  24 O :   -0.440004
  25 H :    0.185029
  26 H :    0.184400
  27 H :    0.188416
  28 H :    0.177005
  29 H :    0.176468
  30 H :    0.181128
  31 H :    0.180783
  32 H :    0.171390
  33 H :    0.179748
  34 H :    0.303096
  35 H :    0.215186
  36 H :    0.214372
  37 H :    0.220410
  38 H :    0.213326
  39 H :    0.203668
  40 H :    0.214154
  41 H :    0.309966
  42 H :    0.315475

  Mayer bond orders larger than 0.100000
B(  0-C ,  1-O ) :   0.8238 B(  0-C , 25-H ) :   0.9545 B(  0-C , 26-H ) :   0.9537
B(  0-C , 27-H ) :   0.9608 B(  1-O ,  2-C ) :   1.2029 B(  2-C ,  3-O ) :   1.7244
B(  2-C ,  4-C ) :   1.0732 B(  4-C ,  5-N ) :   0.9992 B(  4-C , 23-C ) :   1.3148
B(  5-N ,  6-C ) :   1.7180 B(  6-C ,  7-C ) :   0.7891 B(  6-C , 20-N ) :   1.0648
B(  6-C , 23-C ) :   0.1149 B(  7-C ,  8-C ) :   0.9526 B(  7-C ,  9-C ) :   0.9244
B(  7-C , 10-N ) :   0.7652 B(  8-C , 28-H ) :   0.9600 B(  8-C , 29-H ) :   0.9499
B(  8-C , 30-H ) :   0.9621 B(  9-C , 31-H ) :   0.9592 B(  9-C , 32-H ) :   0.9705
B(  9-C , 33-H ) :   0.9572 B( 10-N , 11-C ) :   1.1949 B( 10-N , 34-H ) :   0.8890
B( 11-C , 12-O ) :   1.8455 B( 11-C , 13-C ) :   0.7897 B( 11-C , 15-N ) :   0.1219
B( 13-C , 14-N ) :   1.7248 B( 13-C , 17-C ) :   0.1320 B( 13-C , 19-O ) :   1.0742
B( 14-N , 15-N ) :   1.3003 B( 14-N , 17-C ) :   0.1451 B( 15-N , 16-C ) :   0.9035
B( 15-N , 17-C ) :   1.4821 B( 16-C , 35-H ) :   0.9279 B( 16-C , 36-H ) :   0.9138
B( 16-C , 37-H ) :   0.9311 B( 17-C , 18-C ) :   0.8609 B( 17-C , 19-O ) :   1.1433
B( 18-C , 38-H ) :   0.9300 B( 18-C , 39-H ) :   0.9573 B( 18-C , 40-H ) :   0.9222
B( 20-N , 21-C ) :   1.0201 B( 20-N , 41-H ) :   0.8839 B( 21-C , 22-O ) :   2.0652
B( 21-C , 23-C ) :   0.9780 B( 23-C , 24-O ) :   1.1647 B( 24-O , 42-H ) :   0.7670

Dispersion correction           -0.018684167
FINAL SINGLE POINT ENERGY     -1269.110029095299

DIPOLE MOMENT
-------------
                                X             Y             Z
Electronic contribution:      3.18599     -12.43010       0.64197
Nuclear contribution   :    -13.92782      16.66414      -0.48504
                        -----------------------------------------
Total Dipole Moment    :    -10.74183       4.23404       0.15692
                        -----------------------------------------
Magnitude (a.u.)       :     11.54723
Magnitude (Debye)      :     29.35073

Rotational constants in cm-1:     0.014923     0.003388     0.003212
Rotational constants in MHz :   447.388427   101.581583    96.281400

                             ****ORCA TERMINATED NORMALLY****
TOTAL RUN TIME: 0 days 0 hours 2 minutes 21 seconds 732 msec
