   * xtb version 6.5.1 (579679a) compiled by 'ehlert@majestix' on 2022-07-11
          program call               : /lustre/hpc/kemi/ree/PhD/git/ReactivityQM/dep/xtb-6.5.1/bin/xtb --gfn 1 /lustre/hpc/kemi/ree/PhD/git/ReactivityQM/calculations/R02/reac01prodN07/conf18/R02_reac01prodN07_conf18_gfn1.xyz --opt --vfukui --chrg 1 --uhf 0 --alpb DMSO

   ID    Z sym.   atoms
    1    6 C      1, 3, 5, 7-10, 12, 14, 17-19, 22, 24
    2    8 O      2, 4, 13, 20, 23, 25
    3    7 N      6, 11, 15, 16, 21
    4    1 H      26-43

      * Solvation model:               ALPB
        Solvent                        DMSO
        Solvent mass                       7.8130E+01 g/mol
          :  Hamiltonian                  GFN1-xTB          :
 * total energy  :   -83.1644741 Eh     change       -0.1472245E-10 Eh
 * total energy  :   -83.1811793 Eh     change       -0.1670516E-01 Eh
 * total energy  :   -83.1865347 Eh     change       -0.5355395E-02 Eh
 * total energy  :   -83.1875767 Eh     change       -0.1042055E-02 Eh
 * total energy  :   -83.1883195 Eh     change       -0.7427837E-03 Eh
 * total energy  :   -83.1887443 Eh     change       -0.4248161E-03 Eh
 * total energy  :   -83.1891490 Eh     change       -0.4046393E-03 Eh
 * total energy  :   -83.1894287 Eh     change       -0.2797465E-03 Eh
 * total energy  :   -83.1895740 Eh     change       -0.1453129E-03 Eh
 * total energy  :   -83.1896297 Eh     change       -0.5561995E-04 Eh
 * total energy  :   -83.1900641 Eh     change       -0.8450722E-05 Eh
 * total energy  :   -83.1900736 Eh     change       -0.9464526E-05 Eh
 * total energy  :   -83.1900888 Eh     change       -0.1517105E-04 Eh
 * total energy  :   -83.1901033 Eh     change       -0.1449225E-04 Eh
 * total energy  :   -83.1901171 Eh     change       -0.1379336E-04 Eh
 * total energy  :   -83.1901259 Eh     change       -0.8878037E-05 Eh
 * total energy  :   -83.1901381 Eh     change       -0.1212932E-04 Eh
 * total energy  :   -83.1901436 Eh     change       -0.5486815E-05 Eh
 * total energy  :   -83.1901485 Eh     change       -0.4952551E-05 Eh
   *** GEOMETRY OPTIMIZATION CONVERGED AFTER 39 ITERATIONS ***

 final structure:
================
43
 xtb: 6.5.1 (579679a)
C            6.26924779281500        0.41587509598863       -1.55310474146243
O            4.98742265398336        0.25422509785472       -0.93389713963080
C            4.71329601287025       -0.94408259370340       -0.44141181465638
O            5.48575758668680       -1.88482313151272       -0.50500861943881
C            3.38262863636754       -1.04007448707170        0.20286011914137
N            2.59701354874505        0.08703333453995        0.19233276060482
C            1.43974141409275        0.03696067321421        0.75204019381839
C            0.56713368663308        1.27144950472982        0.79857899831144
C            0.66192063272127        1.90243295103053        2.19039491988341
C            0.98189278742499        2.26282183276913       -0.29096050584734
N           -0.83313634965095        0.86950787556653        0.58963456582794
C           -1.20289280907201        0.14109352668190       -0.47332749192868
O           -0.46455740325807       -0.35964323766471       -1.29471301288866
C           -2.69256473199187       -0.03860341660887       -0.55795795200433
N           -3.35617207927544       -0.70396575370752       -1.45245417852239
N           -4.64859287434168       -0.54998732954828       -1.11087204429665
C           -5.69187738462098       -1.17835786068831       -1.89675276822031
C           -4.74510147648790        0.19427175740388       -0.02930119366089
C           -5.94866491466629        0.62199251474938        0.70005776405419
O           -3.52440072707631        0.53005857673384        0.33816273560333
N            0.97311873964027       -1.08270009006563        1.37557258139152
C            1.65395221229481       -2.28534538082562        1.43439868088979
O            1.16734127348379       -3.25618040308487        1.98421316675908
C            2.96816826027566       -2.21521157904448        0.78250527273751
O            3.69298967671007       -3.33249563533094        0.80578147807962
H            7.06003009128051        0.17589216195085       -0.83889918530029
H            6.35016120562741       -0.24348065147282       -2.42012529049021
H            6.33588472458805        1.45754296918363       -1.85946080041536
H            0.02463525013774        2.78289832331694        2.24124407917766
H            0.34412422903604        1.18951440052504        2.94881843481309
H            1.69145594647664        2.19758515327915        2.38847721507540
H            0.92482066277383        1.78904771955944       -1.26991070393949
H            0.32413762001711        3.12870603534208       -0.27006916597694
H            2.00760723822274        2.58209516094763       -0.11238352014784
H           -1.53597256477578        1.28670790371028        1.17322486275142
H           -6.53383080535936       -0.49423072368130       -1.96827222550352
H           -6.00221793629426       -2.09776013783317       -1.40101959201998
H           -5.28645080104576       -1.39819152539347       -2.88140362112467
H           -6.62766152061892        1.14503232807607        0.02460364641756
H           -5.66266613534116        1.27772310451794        1.51985927899958
H           -6.47436114567759       -0.25003202647078        1.09309330008479
H            0.06543160763454       -1.05687822447128        1.81109843046747
H            4.56120816901241       -3.18842181349129        0.36026208258643

          :  Hamiltonian                  GFN1-xTB          :
         :: total energy             -83.190148512018 Eh    ::
         :: gradient norm              0.000457068079 Eh/a0 ::
         :: HOMO-LUMO gap              1.991229546674 eV    ::
         :: SCC energy               -83.998329097419 Eh    ::
         :: -> Gsolv                  -0.135160930405 Eh    ::
         :: repulsion energy           0.834092427194 Eh    ::

    * Orbital Energies and Occupations

         #    Occupation            Energy/Eh            Energy/eV
      -------------------------------------------------------------
         1        2.0000           -0.9413728             -25.6161
       ...           ...                  ...                  ...
        55        2.0000           -0.5307595             -14.4427
        56        2.0000           -0.5230472             -14.2328
        57        2.0000           -0.5210574             -14.1787
        58        2.0000           -0.5193146             -14.1313
        59        2.0000           -0.5135931             -13.9756
        60        2.0000           -0.5043322             -13.7236
        61        2.0000           -0.4989077             -13.5760
        62        2.0000           -0.4956063             -13.4861
        63        2.0000           -0.4925298             -13.4024
        64        2.0000           -0.4837216             -13.1627
        65        2.0000           -0.4657276             -12.6731
        66        2.0000           -0.4534474             -12.3389
        67        2.0000           -0.4362919             -11.8721 (HOMO)
        68                         -0.3631155              -9.8809 (LUMO)
        69                         -0.3463889              -9.4257
        70                         -0.3313903              -9.0176
        71                         -0.2904206              -7.9027
        72                         -0.2478146              -6.7434
        73                         -0.2458855              -6.6909
        74                         -0.1857475              -5.0544
        75                         -0.1730409              -4.7087
        76                         -0.1654249              -4.5014
        77                         -0.1440510              -3.9198
        78                         -0.1408026              -3.8314
       ...                                ...                  ...
       136                          0.7184103              19.5489
      -------------------------------------------------------------
                  HL-Gap            0.0731763 Eh            1.9912 eV

Wiberg/Mayer (AO) data.
largest (>0.10) Wiberg bond orders for each atom

     #   Z sym  total        # sym  WBO       # sym  WBO       # sym  WBO
 ---------------------------------------------------------------------------
     1   6 C    3.865 --    28 H    0.986    26 H    0.979    27 H    0.979
                             2 O    0.890
     2   8 O    2.218 --     3 C    1.138     1 C    0.890     4 O    0.130
     3   6 C    3.849 --     4 O    1.606     2 O    1.138     5 C    1.019
     4   8 O    1.945 --     3 C    1.606     2 O    0.130
     5   6 C    3.963 --    24 C    1.488     6 N    1.172     3 C    1.019
     6   7 N    3.027 --     7 C    1.597     5 C    1.172
     7   6 C    3.934 --     6 N    1.597    21 N    1.167     8 C    0.977
     8   6 C    3.922 --    10 C    0.988     9 C    0.984     7 C    0.977
                            11 N    0.910
     9   6 C    3.986 --     8 C    0.984    30 H    0.983    31 H    0.982
                            29 H    0.981
    10   6 C    3.986 --     8 C    0.988    33 H    0.985    34 H    0.982
                            32 H    0.982
    11   7 N    3.375 --    12 C    1.287     8 C    0.910    35 H    0.885
                            13 O    0.196
    12   6 C    3.926 --    13 O    1.609    11 N    1.287    14 C    0.958
    13   8 O    1.924 --    12 C    1.609    11 N    0.196
    14   6 C    3.842 --    15 N    1.619    20 O    1.053    12 C    0.958
    15   7 N    2.985 --    14 C    1.619    16 N    1.152
    16   7 N    3.631 --    18 C    1.425    15 N    1.152    17 C    0.909
    17   6 C    3.884 --    38 H    0.977    36 H    0.975    37 H    0.964
                            16 N    0.909
    18   6 C    3.839 --    16 N    1.425    20 O    1.146    19 C    1.042
    19   6 C    3.959 --    18 C    1.042    40 H    0.972    39 H    0.946
                            41 H    0.942
    20   8 O    2.376 --    18 C    1.146    14 C    1.053
    21   7 N    3.459 --     7 C    1.167    22 C    1.118    42 H    0.885
                            23 O    0.135
    22   6 C    3.907 --    23 O    1.606    21 N    1.118    24 C    1.053
    23   8 O    1.904 --    22 C    1.606    21 N    0.135
    24   6 C    3.921 --     5 C    1.488    25 O    1.131    22 C    1.053
    25   8 O    2.097 --    24 C    1.131    43 H    0.774
    26   1 H    1.006 --     1 C    0.979
    27   1 H    1.006 --     1 C    0.979
    28   1 H    1.010 --     1 C    0.986
    29   1 H    0.995 --     9 C    0.981
    30   1 H    0.997 --     9 C    0.983
    31   1 H    0.998 --     9 C    0.982
    32   1 H    1.006 --    10 C    0.982
    33   1 H    0.999 --    10 C    0.985
    34   1 H    1.007 --    10 C    0.982
    35   1 H    0.923 --    11 N    0.885
    36   1 H    0.989 --    17 C    0.975
    37   1 H    0.989 --    17 C    0.964
    38   1 H    0.992 --    17 C    0.977
    39   1 H    0.985 --    19 C    0.946
    40   1 H    0.985 --    19 C    0.972
    41   1 H    0.985 --    19 C    0.942
    42   1 H    0.931 --    21 N    0.885
    43   1 H    0.850 --    25 O    0.774
 ---------------------------------------------------------------------------

           -------------------------------------------------
          | TOTAL ENERGY              -83.190148512018 Eh   |
          | GRADIENT NORM               0.000457068079 Eh/α |
          | HOMO-LUMO GAP               1.991229546674 eV   |
           -------------------------------------------------

 * finished run on 2023/06/20 at 15:26:53.799
