   * xtb version 6.5.1 (579679a) compiled by 'ehlert@majestix' on 2022-07-11
          program call               : /lustre/hpc/kemi/ree/PhD/git/ReactivityQM/dep/xtb-6.5.1/bin/xtb --gfn 1 /lustre/hpc/kemi/ree/PhD/git/ReactivityQM/calculations/RaltegravirCLI/reac02prodE02/conf02/RaltegravirCLI_reac02prodE02_conf02_gfn1.xyz --opt --vfukui --chrg -1 --uhf 0 --alpb DMSO

   ID    Z sym.   atoms
    1    6 C      1, 3, 5, 7, 8, 11-15, 17, 18, 20-24
    2    7 N      2, 10, 19, 25
    3    8 O      4, 6, 9
    4    9 F      16
    5    1 H      26-47

      * Solvation model:               ALPB
        Solvent                        DMSO
        Solvent mass                       7.8130E+01 g/mol
          :  Hamiltonian                  GFN1-xTB          :
 * total energy  :   -80.2092199 Eh     change       -0.4234835E-11 Eh
 * total energy  :   -80.2174588 Eh     change       -0.8238951E-02 Eh
 * total energy  :   -80.2193793 Eh     change       -0.1920515E-02 Eh
 * total energy  :   -80.2197580 Eh     change       -0.3786737E-03 Eh
 * total energy  :   -80.2200705 Eh     change       -0.3125515E-03 Eh
 * total energy  :   -80.2201967 Eh     change       -0.1261765E-03 Eh
 * total energy  :   -80.2203113 Eh     change       -0.1146156E-03 Eh
 * total energy  :   -80.2204134 Eh     change       -0.1020510E-03 Eh
 * total energy  :   -80.2205276 Eh     change       -0.1141848E-03 Eh
 * total energy  :   -80.2206404 Eh     change       -0.1128084E-03 Eh
 * total energy  :   -80.2235522 Eh     change       -0.5943360E-05 Eh
 * total energy  :   -80.2235598 Eh     change       -0.7534323E-05 Eh
 * total energy  :   -80.2235692 Eh     change       -0.9428145E-05 Eh
 * total energy  :   -80.2235769 Eh     change       -0.7743956E-05 Eh
 * total energy  :   -80.2235830 Eh     change       -0.6015589E-05 Eh
 * total energy  :   -80.2235891 Eh     change       -0.6109597E-05 Eh
 * total energy  :   -80.2235943 Eh     change       -0.5241388E-05 Eh
 * total energy  :   -80.2235999 Eh     change       -0.5622985E-05 Eh
 * total energy  :   -80.2236046 Eh     change       -0.4632042E-05 Eh
   *** GEOMETRY OPTIMIZATION CONVERGED AFTER 60 ITERATIONS ***

 final structure:
================
47
 xtb: 6.5.1 (579679a)
C           -3.27707123487078       -1.08664561106332       -2.53633388653882
N           -2.16275022449456       -0.71394384014457       -1.65798490485956
C           -0.95717578702578       -0.57704701433584       -2.34765823854622
O           -0.83011120997725       -1.05421027619370       -3.50044483257206
C            0.10212313705844        0.05210514183514       -1.65465798276647
O            1.35281657848797        0.07711272207774       -2.30750230246833
C           -0.08617360153915        0.54584636784540       -0.36880704764563
C            1.04573893785560        1.09352976921126        0.45492401003432
O            1.09021079018466        1.00518366275496        1.68108010298225
N            2.00588135046591        1.75683624884534       -0.23940880117100
C            3.22017109407425        2.20181137964862        0.42794346617187
C            4.21036275167075        1.06097993649693        0.53739546325098
C            5.13070303170657        0.82657019047457       -0.48150919818520
C            6.01753755686202       -0.23902954437179       -0.40324031772708
C            5.95774770051317       -1.05943163800225        0.70814991403178
F            6.81386758414277       -2.09490412149220        0.79280989055950
C            5.05681795376397       -0.85765139822876        1.73825550200594
C            4.17869762463796        0.21247324994832        1.64247421098530
N           -1.25455095994736        0.53862896460439        0.24326775738698
C           -2.44744923981583        0.12273007860339       -0.46721083058723
C           -3.19101704857649        1.41096097118411       -0.90641472244623
C           -3.27937358619949       -0.69437269240066        0.59320936296960
C           -3.35236715364824        0.07151964342684        1.92710086938537
C           -2.58184312042566       -2.03977618886219        0.82596176409276
N           -4.64827924575150       -0.95676047538746        0.13478705276260
H           -4.18278102895306       -1.25094137666902       -1.95735909652598
H           -3.01992708549001       -2.01447876070871       -3.05399625132407
H           -3.46532104839982       -0.31261075741955       -3.28988516180249
H            1.19351703901520       -0.30260305923650       -3.18772491838583
H            2.05047066555578        1.67512110995716       -1.24377588619547
H            3.64624810477488        3.02466390432476       -0.15106137957167
H            2.95186086469802        2.56780305819645        1.42456646007383
H            5.16442139047281        1.48324595686906       -1.34314379710247
H            6.74190051165835       -0.42825544174494       -1.18413262934629
H            5.04900550541191       -1.52068079492698        2.59368435584010
H            3.45956485381239        0.39094542803539        2.43481439992068
H           -2.60725657987421        1.91563948527255       -1.67626574897242
H           -4.17983512329263        1.19171047795838       -1.30283781330138
H           -3.28946258596069        2.08194769727185       -0.05507305429265
H           -3.90425388160355        1.00315975829102        1.80684354655099
H           -2.35134427965278        0.30185398792137        2.29379656631069
H           -3.87073745271269       -0.53669742969305        2.66850491798899
H           -2.58797653212127       -2.63686722170087       -0.08651732310389
H           -1.54707321814110       -1.87000785535553        1.12776945327528
H           -3.08868174431423       -2.60071429966639        1.61112586084841
H           -5.07259904963963       -1.64890118751743        0.73675661234485
H           -5.20425300439715       -0.11584620593789        0.22034058566774

          :  Hamiltonian                  GFN1-xTB          :
         :: total energy             -80.223604558660 Eh    ::
         :: gradient norm              0.000465110861 Eh/a0 ::
         :: HOMO-LUMO gap              1.210697708244 eV    ::
         :: SCC energy               -81.078803154385 Eh    ::
         :: -> Gsolv                  -0.104313308306 Eh    ::
         :: repulsion energy           0.887029208415 Eh    ::

    * Orbital Energies and Occupations

         #    Occupation            Energy/Eh            Energy/eV
      -------------------------------------------------------------
         1        2.0000           -0.8577850             -23.3415
       ...           ...                  ...                  ...
        56        2.0000           -0.4644800             -12.6391
        57        2.0000           -0.4527148             -12.3190
        58        2.0000           -0.4438162             -12.0769
        59        2.0000           -0.4435095             -12.0685
        60        2.0000           -0.4322151             -11.7612
        61        2.0000           -0.4198848             -11.4256
        62        2.0000           -0.4195524             -11.4166
        63        2.0000           -0.4071644             -11.0795
        64        2.0000           -0.3930161             -10.6945
        65        2.0000           -0.3869165             -10.5285
        66        2.0000           -0.3718379             -10.1182
        67        2.0000           -0.3650775              -9.9343
        68        2.0000           -0.3100242              -8.4362 (HOMO)
        69                         -0.2655318              -7.2255 (LUMO)
        70                         -0.2589595              -7.0466
        71                         -0.2455966              -6.6830
        72                         -0.1837032              -4.9988
        73                         -0.1375783              -3.7437
        74                         -0.1102756              -3.0008
        75                         -0.1097168              -2.9855
        76                         -0.1036374              -2.8201
        77                         -0.1003189              -2.7298
        78                         -0.0982615              -2.6738
        79                         -0.0950433              -2.5863
       ...                                ...                  ...
       144                          0.7226272              19.6637
      -------------------------------------------------------------
                  HL-Gap            0.0444923 Eh            1.2107 eV

Wiberg/Mayer (AO) data.
largest (>0.10) Wiberg bond orders for each atom

     #   Z sym  total        # sym  WBO       # sym  WBO       # sym  WBO
 ---------------------------------------------------------------------------
     1   6 C    3.966 --    27 H    0.985    28 H    0.983    26 H    0.977
                             2 N    0.958
     2   7 N    3.249 --     3 C    1.102     1 C    0.958    20 C    0.917
                             4 O    0.103
     3   6 C    3.923 --     4 O    1.436     5 C    1.221     2 N    1.102
     4   8 O    1.785 --     3 C    1.436     2 N    0.103
     5   6 C    3.843 --     7 C    1.336     3 C    1.221     6 O    0.949
                            19 N    0.161
     6   8 O    1.939 --     5 C    0.949    29 H    0.844
     7   6 C    3.974 --    19 N    1.451     5 C    1.336     8 C    0.982
     8   6 C    3.878 --     9 O    1.572    10 N    1.233     7 C    0.982
     9   8 O    1.860 --     8 C    1.572    10 N    0.152
    10   7 N    3.311 --     8 C    1.233    11 C    0.951    30 H    0.892
                             9 O    0.152
    11   6 C    3.961 --    12 C    0.993    31 H    0.978    32 H    0.973
                            10 N    0.951
    12   6 C    3.988 --    13 C    1.420    18 C    1.416    11 C    0.993
    13   6 C    3.994 --    14 C    1.441    12 C    1.420    33 H    0.972
                            17 C    0.110
    14   6 C    3.992 --    13 C    1.441    15 C    1.403    34 H    0.970
                            18 C    0.111
    15   6 C    3.857 --    14 C    1.403    17 C    1.401    16 F    0.918
    16   9 F    1.044 --    15 C    0.918
    17   6 C    3.992 --    18 C    1.444    15 C    1.401    35 H    0.970
                            13 C    0.110
    18   6 C    3.993 --    17 C    1.444    12 C    1.416    36 H    0.969
                            14 C    0.111
    19   7 N    2.938 --     7 C    1.451    20 C    1.004     5 C    0.161
    20   6 C    3.941 --    19 N    1.004    21 C    0.974    22 C    0.946
                             2 N    0.917
    21   6 C    3.996 --    37 H    0.986    38 H    0.985    39 H    0.983
                            20 C    0.974
    22   6 C    3.958 --    24 C    1.002    23 C    0.994    25 N    0.975
                            20 C    0.946
    23   6 C    3.996 --    22 C    0.994    42 H    0.986    40 H    0.983
                            41 H    0.979
    24   6 C    3.997 --    22 C    1.002    45 H    0.987    44 H    0.984
                            43 H    0.984
    25   7 N    2.994 --    22 C    0.975    47 H    0.949    46 H    0.948
    26   1 H    1.038 --     1 C    0.977
    27   1 H    1.026 --     1 C    0.985
    28   1 H    1.010 --     1 C    0.983
    29   1 H    0.888 --     6 O    0.844
    30   1 H    0.959 --    10 N    0.892
    31   1 H    1.006 --    11 C    0.978
    32   1 H    1.014 --    11 C    0.973
    33   1 H    1.000 --    13 C    0.972
    34   1 H    0.999 --    14 C    0.970
    35   1 H    1.000 --    17 C    0.970
    36   1 H    1.015 --    18 C    0.969
    37   1 H    1.008 --    21 C    0.986
    38   1 H    1.005 --    21 C    0.985
    39   1 H    1.016 --    21 C    0.983
    40   1 H    1.009 --    23 C    0.983
    41   1 H    1.032 --    23 C    0.979
    42   1 H    1.008 --    23 C    0.986
    43   1 H    1.015 --    24 C    0.984
    44   1 H    1.015 --    24 C    0.984
    45   1 H    1.005 --    24 C    0.987
    46   1 H    0.965 --    25 N    0.948
    47   1 H    0.969 --    25 N    0.949
 ---------------------------------------------------------------------------

           -------------------------------------------------
          | TOTAL ENERGY              -80.223604558660 Eh   |
          | GRADIENT NORM               0.000465110861 Eh/α |
          | HOMO-LUMO GAP               1.210697708244 eV   |
           -------------------------------------------------

 * finished run on 2023/06/20 at 14:56:39.865
