   * xtb version 6.5.1 (579679a) compiled by 'ehlert@majestix' on 2022-07-11
          program call               : /lustre/hpc/kemi/ree/PhD/git/ReactivityQM/dep/xtb-6.5.1/bin/xtb --gfn 1 /lustre/hpc/kemi/ree/PhD/git/ReactivityQM/calculations/RaltegravirCLI/reac02prodN13/conf03/RaltegravirCLI_reac02prodN13_conf03_gfn1.xyz --opt --vfukui --chrg 1 --uhf 0 --alpb DMSO

   ID    Z sym.   atoms
    1    6 C      1, 3-6, 9, 10, 13-17, 19-21, 23, 24
    2    7 N      2, 7, 8, 12
    3    8 O      11, 22, 25
    4    9 F      18
    5    1 H      26-47

      * Solvation model:               ALPB
        Solvent                        DMSO
        Solvent mass                       7.8130E+01 g/mol
          :  Hamiltonian                  GFN1-xTB          :
 * total energy  :   -79.3993895 Eh     change       -0.7757706E-10 Eh
 * total energy  :   -79.4181259 Eh     change       -0.1873643E-01 Eh
 * total energy  :   -79.4280998 Eh     change       -0.9973862E-02 Eh
 * total energy  :   -79.4310748 Eh     change       -0.2975049E-02 Eh
 * total energy  :   -79.4331951 Eh     change       -0.2120272E-02 Eh
 * total energy  :   -79.4341596 Eh     change       -0.9644767E-03 Eh
 * total energy  :   -79.4347744 Eh     change       -0.6147915E-03 Eh
 * total energy  :   -79.4351664 Eh     change       -0.3920502E-03 Eh
 * total energy  :   -79.4354501 Eh     change       -0.2836577E-03 Eh
 * total energy  :   -79.4356656 Eh     change       -0.2154896E-03 Eh
 * total energy  :   -79.4934071 Eh     change       -0.1352470E-04 Eh
 * total energy  :   -79.4934283 Eh     change       -0.2115156E-04 Eh
 * total energy  :   -79.4934427 Eh     change       -0.1447658E-04 Eh
 * total energy  :   -79.4934575 Eh     change       -0.1476916E-04 Eh
 * total energy  :   -79.4934774 Eh     change       -0.1984185E-04 Eh
 * total energy  :   -79.4934935 Eh     change       -0.1618770E-04 Eh
 * total energy  :   -79.4935002 Eh     change       -0.6629885E-05 Eh
 * total energy  :   -79.4935059 Eh     change       -0.5744599E-05 Eh
 * total energy  :   -79.4935092 Eh     change       -0.3256828E-05 Eh
   *** GEOMETRY OPTIMIZATION CONVERGED AFTER 94 ITERATIONS ***

 final structure:
================
47
 xtb: 6.5.1 (579679a)
C           -3.88101967120785       -1.53963029335820        1.26634737510332
N           -2.67406333300850       -1.02076260232753        0.61508088593640
C           -2.61816808808171        0.08752418733262       -0.12355189753818
C           -3.78851123457903        0.80328160059531       -0.73103015832086
C           -3.32861948592889        1.51326572846476       -2.01998422164536
C           -4.25872241845654        1.84709218138674        0.30221804403898
N           -4.87400599390693       -0.11003904054323       -1.01586220614003
N           -1.43836819369502        0.73386782679523       -0.25360654674537
C           -0.29741783084860        0.18697234498123       -0.01128339628103
C            0.93054279974495        1.08208228318483       -0.05215384177308
O            1.04046757130107        1.91448952137723       -0.93259214671519
N            1.79986860796906        0.87915270440142        0.94090480837980
C            3.03944027675575        1.63783161148924        1.02615505732663
C            4.23901989682225        0.81759547627143        0.59918021227876
C            5.51184671148003        1.35149209643496        0.79896916607419
C            6.64176447317184        0.64486961905596        0.41549111022442
C            6.47215469690391       -0.60045619921044       -0.16414762570104
F            7.56026455766793       -1.29080462922159       -0.53672349977153
C            5.22518232116978       -1.15922605306696       -0.37299881957806
C            4.10402041086936       -0.43672682994331        0.01255705380635
C           -0.24833932837671       -1.29576297217649        0.15033850145817
O            0.90991557557954       -1.71152560709541        0.79971112946003
C           -1.48737037345682       -1.74252626267640        0.91839598615030
C           -0.36294669900794       -1.96669165993255       -1.24905993532339
O           -1.50471043137096       -2.69736892873392        1.63698429727801
H           -4.75653693363626       -1.18575942935112        0.72708945504713
H           -3.83070391759026       -2.62703377480100        1.25651820961502
H           -3.89381464258954       -1.18005763522432        2.29473576459507
H           -2.55133757322227        2.24392608800317       -1.80222365335691
H           -4.18428591862153        2.01986845128647       -2.46121491687239
H           -2.94519999835097        0.78142874578420       -2.72853820198793
H           -3.43578564850024        2.50639036585414        0.57306329932611
H           -4.63122231299983        1.34750173883223        1.19430493885583
H           -5.06109815445049        2.43460640529221       -0.14002055115498
H           -4.62216823670368       -0.73340380029004       -1.76890657319261
H           -5.69750387092320        0.40939455995187       -1.28472096964774
H            1.64890252352254        0.14011636716780        1.60622819256983
H            3.16430157281181        1.97625410639680        2.05875903295181
H            2.93628187517265        2.51776298741960        0.38163897102277
H            5.62073840601208        2.32663841357018        1.25896396295845
H            7.63450735751641        1.04888133936711        0.56576615306102
H            5.13024876787157       -2.13775925581166       -0.82475081692305
H            3.12068424014922       -0.86287940069387       -0.14132788430746
H            0.77627504741850       -2.57987647172618        1.20968454967657
H            0.54626331918828       -1.74511024667491       -1.80403973234711
H           -0.45198401336662       -3.04228912457028       -1.11615535589568
H           -1.22878670621994       -1.58659453326039       -1.78477220597149

          :  Hamiltonian                  GFN1-xTB          :
         :: total energy             -79.493509172343 Eh    ::
         :: gradient norm              0.000376939649 Eh/a0 ::
         :: HOMO-LUMO gap              0.767866005251 eV    ::
         :: SCC energy               -80.387353377601 Eh    ::
         :: -> Gsolv                  -0.108938938836 Eh    ::
         :: repulsion energy           0.925170218136 Eh    ::

    * Orbital Energies and Occupations

         #    Occupation            Energy/Eh            Energy/eV
      -------------------------------------------------------------
         1        2.0000           -0.8855589             -24.0973
       ...           ...                  ...                  ...
        55        2.0000           -0.5258350             -14.3087
        56        2.0000           -0.5219896             -14.2041
        57        2.0000           -0.5130275             -13.9602
        58        2.0000           -0.5117017             -13.9241
        59        2.0000           -0.5097879             -13.8720
        60        2.0000           -0.5075326             -13.8107
        61        2.0000           -0.4968666             -13.5204
        62        2.0000           -0.4803901             -13.0721
        63        2.0000           -0.4755985             -12.9417
        64        2.0000           -0.4669527             -12.7064
        65        2.0000           -0.4570898             -12.4380
        66        2.0000           -0.4425672             -12.0429
        67        2.0000           -0.4410310             -12.0011 (HOMO)
        68        0.0000           -0.4128125             -11.2332 (LUMO)
        69                         -0.3368877              -9.1672
        70                         -0.3013539              -8.2003
        71                         -0.2790525              -7.5934
        72                         -0.2711416              -7.3781
        73                         -0.2584819              -7.0336
        74                         -0.1589036              -4.3240
        75                         -0.1549123              -4.2154
        76                         -0.1498931              -4.0788
        77                         -0.1456480              -3.9633
        78                         -0.1385180              -3.7693
       ...                                ...                  ...
       144                          0.6862243              18.6731
      -------------------------------------------------------------
                  HL-Gap            0.0282186 Eh            0.7679 eV

Wiberg/Mayer (AO) data.
largest (>0.10) Wiberg bond orders for each atom

     #   Z sym  total        # sym  WBO       # sym  WBO       # sym  WBO
 ---------------------------------------------------------------------------
     1   6 C    3.880 --    27 H    0.974    28 H    0.965    26 H    0.956
                             2 N    0.901
     2   7 N    3.549 --     3 C    1.359    23 C    1.015     1 C    0.901
     3   6 C    3.877 --     2 N    1.359     8 N    1.247     4 C    1.009
     4   6 C    3.957 --     3 C    1.009     7 N    0.999     5 C    0.961
                             6 C    0.936
     5   6 C    3.985 --    31 H    0.984    30 H    0.981    29 H    0.981
                             4 C    0.961
     6   6 C    3.978 --    32 H    0.984    33 H    0.984    34 H    0.975
                             4 C    0.936
     7   7 N    3.020 --     4 C    0.999    35 H    0.929    36 H    0.925
     8   7 N    3.133 --     9 C    1.647     3 C    1.247
     9   6 C    3.898 --     8 N    1.647    21 C    1.002    10 C    0.940
    10   6 C    3.921 --    11 O    1.597    12 N    1.308     9 C    0.940
    11   8 O    1.922 --    10 C    1.597    12 N    0.198
    12   7 N    3.402 --    10 C    1.308    13 C    0.937    37 H    0.885
                            11 O    0.198
    13   6 C    3.930 --    14 C    0.992    38 H    0.966    39 H    0.961
                            12 N    0.937
    14   6 C    3.985 --    20 C    1.423    15 C    1.409    13 C    0.992
    15   6 C    3.993 --    16 C    1.450    14 C    1.409    40 H    0.971
                            19 C    0.112
    16   6 C    3.991 --    15 C    1.450    17 C    1.395    41 H    0.969
                            20 C    0.109
    17   6 C    3.862 --    19 C    1.405    16 C    1.395    18 F    0.928
    18   9 F    1.057 --    17 C    0.928
    19   6 C    3.992 --    20 C    1.438    17 C    1.405    42 H    0.969
                            15 C    0.112
    20   6 C    3.993 --    19 C    1.438    14 C    1.423    43 H    0.968
                            16 C    0.109
    21   6 C    3.933 --     9 C    1.002    22 O    0.988    23 C    0.926
                            24 C    0.894
    22   8 O    1.932 --    21 C    0.988    44 H    0.812
    23   6 C    3.861 --    25 O    1.773     2 N    1.015    21 C    0.926
    24   6 C    3.969 --    47 H    0.985    46 H    0.978    45 H    0.976
                            21 C    0.894
    25   8 O    2.038 --    23 C    1.773
    26   1 H    1.018 --     1 C    0.956
    27   1 H    0.997 --     1 C    0.974
    28   1 H    0.994 --     1 C    0.965
    29   1 H    1.006 --     5 C    0.981
    30   1 H    0.998 --     5 C    0.981
    31   1 H    0.998 --     5 C    0.984
    32   1 H    1.000 --     6 C    0.984
    33   1 H    0.998 --     6 C    0.984
    34   1 H    0.994 --     6 C    0.975
    35   1 H    0.944 --     7 N    0.929
    36   1 H    0.940 --     7 N    0.925
    37   1 H    0.938 --    12 N    0.885
    38   1 H    1.002 --    13 C    0.966
    39   1 H    1.007 --    13 C    0.961
    40   1 H    0.997 --    15 C    0.971
    41   1 H    0.997 --    16 C    0.969
    42   1 H    0.997 --    19 C    0.969
    43   1 H    1.011 --    20 C    0.968
    44   1 H    0.836 --    22 O    0.812
    45   1 H    0.995 --    24 C    0.976
    46   1 H    0.994 --    24 C    0.978
    47   1 H    0.996 --    24 C    0.985
 ---------------------------------------------------------------------------

           -------------------------------------------------
          | TOTAL ENERGY              -79.493509172343 Eh   |
          | GRADIENT NORM               0.000376939649 Eh/α |
          | HOMO-LUMO GAP               0.767866005251 eV   |
           -------------------------------------------------

 * finished run on 2023/06/20 at 15:34:39.461
