   * xtb version 6.5.1 (579679a) compiled by 'ehlert@majestix' on 2022-07-11
          program call               : /lustre/hpc/kemi/ree/PhD/git/ReactivityQM/dep/xtb-6.5.1/bin/xtb --gfn 1 /lustre/hpc/kemi/ree/PhD/git/ReactivityQM/calculations/R02/reac01prodN12/conf15/R02_reac01prodN12_conf15_gfn1.xyz --opt --vfukui --chrg 1 --uhf 0 --alpb DMSO

   ID    Z sym.   atoms
    1    6 C      1, 3, 5, 7-10, 12, 14, 15, 18, 19, 22, 24
    2    8 O      2, 4, 13, 20, 23, 25
    3    7 N      6, 11, 16, 17, 21
    4    1 H      26-43

      * Solvation model:               ALPB
        Solvent                        DMSO
        Solvent mass                       7.8130E+01 g/mol
          :  Hamiltonian                  GFN1-xTB          :
 * total energy  :   -83.1173420 Eh     change       -0.7460699E-11 Eh
 * total energy  :   -83.1311447 Eh     change       -0.1380273E-01 Eh
 * total energy  :   -83.1363875 Eh     change       -0.5242727E-02 Eh
 * total energy  :   -83.1373224 Eh     change       -0.9349013E-03 Eh
 * total energy  :   -83.1380153 Eh     change       -0.6928998E-03 Eh
 * total energy  :   -83.1382732 Eh     change       -0.2578885E-03 Eh
 * total energy  :   -83.1384815 Eh     change       -0.2083411E-03 Eh
 * total energy  :   -83.1386193 Eh     change       -0.1378405E-03 Eh
 * total energy  :   -83.1387056 Eh     change       -0.8628866E-04 Eh
 * total energy  :   -83.1387594 Eh     change       -0.5378386E-04 Eh
 * total energy  :   -83.1392160 Eh     change       -0.1340648E-04 Eh
 * total energy  :   -83.1392352 Eh     change       -0.1919784E-04 Eh
 * total energy  :   -83.1392635 Eh     change       -0.2831617E-04 Eh
 * total energy  :   -83.1392916 Eh     change       -0.2809784E-04 Eh
 * total energy  :   -83.1393072 Eh     change       -0.1562072E-04 Eh
 * total energy  :   -83.1393342 Eh     change       -0.2704811E-04 Eh
 * total energy  :   -83.1393438 Eh     change       -0.9503999E-05 Eh
 * total energy  :   -83.1393540 Eh     change       -0.1026101E-04 Eh
 * total energy  :   -83.1393574 Eh     change       -0.3434176E-05 Eh
   *** GEOMETRY OPTIMIZATION CONVERGED AFTER 44 ITERATIONS ***

 final structure:
================
43
 xtb: 6.5.1 (579679a)
C            5.23523004655852        2.55830791117337        0.94149558482949
O            4.18518769037468        1.64937266379607        0.58632644378233
C            4.32792743559336        0.39362320493482        0.97688926169974
O            5.29569432169307       -0.01056641061463        1.59669293371193
C            3.19747834388282       -0.48700674891836        0.59641815920115
N            2.15833061828833        0.08557951788098       -0.09167196805481
C            1.15065451586802       -0.64428925206596       -0.42952564907515
C            0.02271192376036       -0.00678697087286       -1.22084286451218
C            0.34813032904427        1.46365761522185       -1.48277227717174
C           -0.22072127682439       -0.74433520537692       -2.53921125681912
N           -1.22032127888069       -0.00332897332524       -0.40065100090457
C           -1.97301087026097       -1.06041177521671       -0.18130430488145
O           -1.79257488904612       -2.21277263073373       -0.47556477640385
C           -3.30702876429695       -0.71839780050480        0.64918233633565
C           -3.21925764189090       -1.48200425500575        1.96994334673414
N           -4.39171149910745       -1.07119165667002       -0.17685679051643
N           -5.07054572337824       -0.04123703206077       -0.46209492806339
C           -4.49782721357079        1.02598342937062        0.17131764422919
C           -4.96127545443024        2.40585601112302        0.09543213615858
O           -3.45850635116490        0.66544889296087        0.84098294152934
N            1.08547364782344       -1.97204967754321       -0.13580734753342
C            2.06117260741195       -2.66894976046711        0.55731512429125
O            1.93324424759162       -3.85341351554569        0.80034992078357
C            3.20059739932569       -1.82010693957696        0.93298166237462
O            4.18336570020138       -2.41860285936688        1.59777101556050
H            4.93118722659039        3.53720797983980        0.57756582378684
H            6.17140343645222        2.24870936581283        0.47149148887874
H            5.36022411352132        2.57538528471295        2.02632603142454
H           -0.47559463727242        1.93634521617497       -2.01303380533320
H            1.25122069491600        1.53246428921232       -2.08716740537718
H            0.51954444007557        1.98426345065308       -0.54229668203154
H           -0.42906697032331       -1.79942434673081       -2.37619183812702
H            0.66783761668381       -0.65471190949860       -3.16254715134607
H           -1.06514787600619       -0.29312591077661       -3.05668908580295
H           -1.50912134521075        0.89008565604741       -0.03917621899411
H           -3.08609019284985       -2.53958338560004        1.74947530109372
H           -4.13936332571653       -1.32419723856956        2.52854682819786
H           -2.37378016233252       -1.10790957473936        2.54215823173089
H           -4.76342368050579        2.78572884100409       -0.91138515831060
H           -4.44624340936416        3.02818722525867        0.82382421033844
H           -6.04291508422107        2.44011800331931        0.23853230400702
H            0.26290514434606       -2.50130805021244       -0.39855966753281
H            4.89400614664736       -1.77061367850195        1.81855244610905

          :  Hamiltonian                  GFN1-xTB          :
         :: total energy             -83.139357446609 Eh    ::
         :: gradient norm              0.000385540605 Eh/a0 ::
         :: HOMO-LUMO gap              0.290215927891 eV    ::
         :: SCC energy               -83.930538309776 Eh    ::
         :: -> Gsolv                  -0.122481184743 Eh    ::
         :: repulsion energy           0.818223988786 Eh    ::

    * Orbital Energies and Occupations

         #    Occupation            Energy/Eh            Energy/eV
      -------------------------------------------------------------
         1        2.0000           -0.9380979             -25.5269
       ...           ...                  ...                  ...
        55        2.0000           -0.5360948             -14.5879
        56        2.0000           -0.5292954             -14.4029
        57        2.0000           -0.5238349             -14.2543
        58        2.0000           -0.5194063             -14.1338
        59        2.0000           -0.5165388             -14.0557
        60        2.0000           -0.5049680             -13.7409
        61        2.0000           -0.5040685             -13.7164
        62        2.0000           -0.5014838             -13.6461
        63        2.0000           -0.4965129             -13.5108
        64        2.0000           -0.4953062             -13.4780
        65        2.0000           -0.4695606             -12.7774
        66        2.0000           -0.4561543             -12.4126
        67        1.9927           -0.4400231             -11.9736 (HOMO)
        68        0.0073           -0.4293579             -11.6834 (LUMO)
        69                         -0.3336450              -9.0789
        70                         -0.3324206              -9.0456
        71                         -0.3049660              -8.2985
        72                         -0.2964185              -8.0660
        73                         -0.2494319              -6.7874
        74                         -0.1778272              -4.8389
        75                         -0.1688958              -4.5959
        76                         -0.1600476              -4.3551
        77                         -0.1457594              -3.9663
        78                         -0.1405264              -3.8239
       ...                                ...                  ...
       136                          0.7194140              19.5763
      -------------------------------------------------------------
                  HL-Gap            0.0106652 Eh            0.2902 eV

Wiberg/Mayer (AO) data.
largest (>0.10) Wiberg bond orders for each atom

     #   Z sym  total        # sym  WBO       # sym  WBO       # sym  WBO
 ---------------------------------------------------------------------------
     1   6 C    3.863 --    26 H    0.986    28 H    0.979    27 H    0.979
                             2 O    0.888
     2   8 O    2.220 --     3 C    1.141     1 C    0.888     4 O    0.131
     3   6 C    3.850 --     4 O    1.608     2 O    1.141     5 C    1.016
     4   8 O    1.947 --     3 C    1.608     2 O    0.131
     5   6 C    3.956 --    24 C    1.479     6 N    1.178     3 C    1.016
     6   7 N    3.024 --     7 C    1.588     5 C    1.178
     7   6 C    3.934 --     6 N    1.588    21 N    1.182     8 C    0.972
     8   6 C    3.908 --     9 C    0.998    10 C    0.989     7 C    0.972
                            11 N    0.873
     9   6 C    3.983 --     8 C    0.998    29 H    0.984    31 H    0.981
                            30 H    0.979
    10   6 C    3.984 --     8 C    0.989    34 H    0.982    33 H    0.981
                            32 H    0.977
    11   7 N    3.386 --    12 C    1.368    35 H    0.879     8 C    0.873
                            13 O    0.180
    12   6 C    3.910 --    13 O    1.641    11 N    1.368    14 C    0.750
    13   8 O    2.049 --    12 C    1.641    11 N    0.180
    14   6 C    3.838 --    16 N    1.101    15 C    0.917    20 O    0.907
                            12 C    0.750
    15   6 C    3.947 --    38 H    0.979    37 H    0.975    36 H    0.975
                            14 C    0.917
    16   7 N    2.991 --    17 N    1.633    14 C    1.101
    17   7 N    3.015 --    16 N    1.633    18 C    1.216
    18   6 C    3.798 --    20 O    1.268    17 N    1.216    19 C    1.081
    19   6 C    3.963 --    18 C    1.081    40 H    0.970    41 H    0.935
                            39 H    0.909
    20   8 O    2.369 --    18 C    1.268    14 C    0.907
    21   7 N    3.462 --     7 C    1.182    22 C    1.116    42 H    0.867
                            23 O    0.135
    22   6 C    3.906 --    23 O    1.613    21 N    1.116    24 C    1.049
    23   8 O    1.907 --    22 C    1.613    21 N    0.135
    24   6 C    3.913 --     5 C    1.479    25 O    1.140    22 C    1.049
    25   8 O    2.102 --    24 C    1.140    43 H    0.771
    26   1 H    1.010 --     1 C    0.986
    27   1 H    1.005 --     1 C    0.979
    28   1 H    1.005 --     1 C    0.979
    29   1 H    0.997 --     9 C    0.984
    30   1 H    1.002 --     9 C    0.979
    31   1 H    1.004 --     9 C    0.981
    32   1 H    1.002 --    10 C    0.977
    33   1 H    0.997 --    10 C    0.981
    34   1 H    0.997 --    10 C    0.982
    35   1 H    0.924 --    11 N    0.879
    36   1 H    0.995 --    15 C    0.975
    37   1 H    0.990 --    15 C    0.975
    38   1 H    0.991 --    15 C    0.979
    39   1 H    0.975 --    19 C    0.909
    40   1 H    0.985 --    19 C    0.970
    41   1 H    0.980 --    19 C    0.935
    42   1 H    0.932 --    21 N    0.867
    43   1 H    0.848 --    25 O    0.771
 ---------------------------------------------------------------------------

           -------------------------------------------------
          | TOTAL ENERGY              -83.139357446609 Eh   |
          | GRADIENT NORM               0.000385540605 Eh/α |
          | HOMO-LUMO GAP               0.290215927891 eV   |
           -------------------------------------------------

 * finished run on 2023/06/20 at 15:34:50.901
