   * xtb version 6.5.1 (579679a) compiled by 'ehlert@majestix' on 2022-07-11
          program call               : /lustre/hpc/kemi/ree/PhD/git/ReactivityQM/dep/xtb-6.5.1/bin/xtb --gfn 1 /lustre/hpc/kemi/ree/PhD/git/ReactivityQM/calculations/R01/reac01prodN04/conf11/R01_reac01prodN04_conf11_gfn1.xyz --opt --vfukui --chrg 1 --uhf 0 --alpb DMSO

   ID    Z sym.   atoms
    1    6 C      1, 3, 5, 8-10
    2    8 O      2, 4, 11
    3    7 N      6, 7
    4    1 H      12-20

      * Solvation model:               ALPB
        Solvent                        DMSO
        Solvent mass                       7.8130E+01 g/mol
          :  Hamiltonian                  GFN1-xTB          :
 * total energy  :   -37.6264546 Eh     change       -0.3318235E-11 Eh
 * total energy  :   -37.6399835 Eh     change       -0.1352889E-01 Eh
 * total energy  :   -37.6442446 Eh     change       -0.4261059E-02 Eh
 * total energy  :   -37.6447876 Eh     change       -0.5429902E-03 Eh
 * total energy  :   -37.6450055 Eh     change       -0.2179912E-03 Eh
 * total energy  :   -37.6450305 Eh     change       -0.2491803E-04 Eh
 * total energy  :   -37.6450449 Eh     change       -0.1442483E-04 Eh
 * total energy  :   -37.6450547 Eh     change       -0.9829281E-05 Eh
 * total energy  :   -37.6450612 Eh     change       -0.6451003E-05 Eh
 * total energy  :   -37.6450667 Eh     change       -0.5517335E-05 Eh
 * total energy  :   -37.6450695 Eh     change       -0.2799145E-05 Eh
   *** GEOMETRY OPTIMIZATION CONVERGED AFTER 11 ITERATIONS ***

 final structure:
================
20
 xtb: 6.5.1 (579679a)
C           -4.16241163877471       -0.24798474331819       -0.16204180408439
O           -2.73178993327834       -0.41599126771107       -0.18493188555725
C           -2.00154190586395        0.65748818258752        0.00328860020676
O           -2.39468497875426        1.77257293676711        0.19442493173453
C           -0.53680110322169        0.30214939603838       -0.05592777463837
N            0.00454480931916       -0.85917089031667       -0.26866648631169
N            1.32822567278823       -0.63570931894017       -0.22676467488269
C            2.25623822244485       -1.73009377420139       -0.43446130258669
C            1.56305400423744        0.64192912161037        0.00518648613889
C            2.84933024486113        1.33960565187112        0.14812828114519
O            0.40186945096792        1.24985136552278        0.11640645908015
H           -4.45378144145798        0.50382669404907       -0.89711133511154
H           -4.47530019120925        0.06690688235272        0.83467354096660
H           -4.58381071711020       -1.21893154504105       -0.41123477108487
H            2.96983678736871       -1.74847086977974        0.38657665084987
H            1.68118227978613       -2.65176947059259       -0.46576034529492
H            2.77870544240551       -1.57521335763225       -1.37741412761164
H            3.14369810054805        1.34158348465493        1.20087004004111
H            3.62257146929244        0.83407916310848       -0.42642719476202
H            2.74086442565095        2.37334235897080       -0.17876428823682

          :  Hamiltonian                  GFN1-xTB          :
         :: total energy             -37.645069481714 Eh    ::
         :: gradient norm              0.000570995078 Eh/a0 ::
         :: HOMO-LUMO gap              4.077425463890 eV    ::
         :: SCC energy               -37.999968952585 Eh    ::
         :: -> Gsolv                  -0.085505321444 Eh    ::
         :: repulsion energy           0.362929970226 Eh    ::

    * Orbital Energies and Occupations

         #    Occupation            Energy/Eh            Energy/eV
      -------------------------------------------------------------
         1        2.0000           -0.9449410             -25.7132
       ...           ...                  ...                  ...
        18        2.0000           -0.6245487             -16.9948
        19        2.0000           -0.6140673             -16.7096
        20        2.0000           -0.6008553             -16.3501
        21        2.0000           -0.5955651             -16.2062
        22        2.0000           -0.5923774             -16.1194
        23        2.0000           -0.5809616             -15.8088
        24        2.0000           -0.5751051             -15.6494
        25        2.0000           -0.5678758             -15.4527
        26        2.0000           -0.5538232             -15.0703
        27        2.0000           -0.5399774             -14.6935
        28        2.0000           -0.5295074             -14.4086
        29        2.0000           -0.5250717             -14.2879
        30        2.0000           -0.5225427             -14.2191 (HOMO)
        31                         -0.3727001             -10.1417 (LUMO)
        32                         -0.3504050              -9.5350
        33                         -0.2568289              -6.9887
        34                         -0.1871458              -5.0925
        35                         -0.1753312              -4.7710
        36                         -0.1541351              -4.1942
        37                         -0.1215493              -3.3075
        38                         -0.1162947              -3.1645
        39                         -0.1044709              -2.8428
        40                         -0.0956258              -2.6021
        41                         -0.0897712              -2.4428
       ...                                ...                  ...
        62                          0.7347046              19.9923
      -------------------------------------------------------------
                  HL-Gap            0.1498426 Eh            4.0774 eV

Wiberg/Mayer (AO) data.
largest (>0.10) Wiberg bond orders for each atom

     #   Z sym  total        # sym  WBO       # sym  WBO       # sym  WBO
 ---------------------------------------------------------------------------
     1   6 C    3.837 --    14 H    0.984    12 H    0.977    13 H    0.976
                             2 O    0.865
     2   8 O    2.236 --     3 C    1.166     1 C    0.865     4 O    0.158
     3   6 C    3.877 --     4 O    1.702     2 O    1.166     5 C    0.944
     4   8 O    1.979 --     3 C    1.702     2 O    0.158
     5   6 C    3.853 --     6 N    1.617    11 O    1.065     3 C    0.944
     6   7 N    2.992 --     5 C    1.617     7 N    1.162
     7   7 N    3.630 --     9 C    1.413     6 N    1.162     8 C    0.906
     8   6 C    3.880 --    16 H    0.977    15 H    0.971    17 H    0.966
                             7 N    0.906
     9   6 C    3.839 --     7 N    1.413    11 O    1.158    10 C    1.044
    10   6 C    3.959 --     9 C    1.044    19 H    0.967    20 H    0.961
                            18 H    0.930
    11   8 O    2.391 --     9 C    1.158     5 C    1.065
    12   1 H    1.000 --     1 C    0.977
    13   1 H    1.000 --     1 C    0.976
    14   1 H    1.005 --     1 C    0.984
    15   1 H    0.989 --     8 C    0.971
    16   1 H    0.992 --     8 C    0.977
    17   1 H    0.988 --     8 C    0.966
    18   1 H    0.983 --    10 C    0.930
    19   1 H    0.987 --    10 C    0.967
    20   1 H    0.984 --    10 C    0.961
 ---------------------------------------------------------------------------

           -------------------------------------------------
          | TOTAL ENERGY              -37.645069481714 Eh   |
          | GRADIENT NORM               0.000570995078 Eh/α |
          | HOMO-LUMO GAP               4.077425463890 eV   |
           -------------------------------------------------

 * finished run on 2023/06/20 at 14:55:33.309
