                         Program Version 5.0.1 -  RELEASE  -
|  1> # ORCA input file
|  2> ! SP r2SCAN-3c CPCM
|  3>
|  4> %maxcore 1875.0
|  5> %pal nprocs 4 end
|  6> %cpcm smd true SMDsolvent "DMSO" end
|  7>
|  8> *xyz -2 1
|  9> C       6.678397   -1.253668    0.541305
| 10> O       5.310577   -0.924647    0.363559
| 11> C       5.069857    0.263729   -0.268078
| 12> O       6.015790    0.971218   -0.648812
| 13> C       3.668419    0.586770   -0.429858
| 14> N       2.738948   -0.307029    0.042846
| 15> C       1.469353    0.016793   -0.108978
| 16> C       0.445714   -1.014561    0.381128
| 17> C       0.979815   -1.713448    1.640299
| 18> C       0.270191   -2.040501   -0.761040
| 19> N      -0.795532   -0.309986    0.692761
| 20> C      -2.008806   -1.076840    0.827903
| 21> O      -1.981138   -2.270455    1.277940
| 22> C      -3.131367   -0.350438    0.500299
| 23> N      -3.195548    0.964157    0.014899
| 24> N      -4.493378    1.177261   -0.152220
| 25> C      -4.946771    2.458074   -0.638914
| 26> C      -5.257891    0.157277    0.177555
| 27> C      -6.737087    0.066844    0.107863
| 28> O      -4.487234   -0.881713    0.607591
| 29> N       0.986987    1.113924   -0.684799
| 30> C       1.840536    2.061287   -1.180674
| 31> O       1.412840    3.108382   -1.718655
| 32> C       3.258800    1.767849   -1.039547
| 33> O       4.147884    2.688735   -1.523107
| 34> H       7.182232   -0.503644    1.159950
| 35> H       7.193626   -1.314133   -0.422861
| 36> H       6.714830   -2.222853    1.037858
| 37> H       0.298536   -2.501145    1.960854
| 38> H       1.957525   -2.150865    1.435739
| 39> H       1.083648   -0.988474    2.449257
| 40> H      -0.374009   -2.862945   -0.450666
| 41> H      -0.168850   -1.556310   -1.634280
| 42> H       1.244959   -2.443914   -1.037382
| 43> H      -0.924667    0.465669    0.037583
| 44> H      -5.524554    2.962699    0.134824
| 45> H      -5.574591    2.317053   -1.517186
| 46> H      -4.074369    3.055051   -0.896083
| 47> H      -7.200678    0.958370    0.530963
| 48> H      -7.068043   -0.805579    0.667976
| 49> H      -7.085284   -0.031370   -0.923352
| 50> H       5.060337    2.363376   -1.370254
| 51> **                         ****END OF INPUT****

CARTESIAN COORDINATES (ANGSTROEM)
---------------------------------
  C      6.678397   -1.253668    0.541305
  O      5.310577   -0.924647    0.363559
  C      5.069857    0.263729   -0.268078
  O      6.015790    0.971218   -0.648812
  C      3.668419    0.586770   -0.429858
  N      2.738948   -0.307029    0.042846
  C      1.469353    0.016793   -0.108978
  C      0.445714   -1.014561    0.381128
  C      0.979815   -1.713448    1.640299
  C      0.270191   -2.040501   -0.761040
  N     -0.795532   -0.309986    0.692761
  C     -2.008806   -1.076840    0.827903
  O     -1.981138   -2.270455    1.277940
  C     -3.131367   -0.350438    0.500299
  N     -3.195548    0.964157    0.014899
  N     -4.493378    1.177261   -0.152220
  C     -4.946771    2.458074   -0.638914
  C     -5.257891    0.157277    0.177555
  C     -6.737087    0.066844    0.107863
  O     -4.487234   -0.881713    0.607591
  N      0.986987    1.113924   -0.684799
  C      1.840536    2.061287   -1.180674
  O      1.412840    3.108382   -1.718655
  C      3.258800    1.767849   -1.039547
  O      4.147884    2.688735   -1.523107
  H      7.182232   -0.503644    1.159950
  H      7.193626   -1.314133   -0.422861
  H      6.714830   -2.222853    1.037858
  H      0.298536   -2.501145    1.960854
  H      1.957525   -2.150865    1.435739
  H      1.083648   -0.988474    2.449257
  H     -0.374009   -2.862945   -0.450666
  H     -0.168850   -1.556310   -1.634280
  H      1.244959   -2.443914   -1.037382
  H     -0.924667    0.465669    0.037583
  H     -5.524554    2.962699    0.134824
  H     -5.574591    2.317053   -1.517186
  H     -4.074369    3.055051   -0.896083
  H     -7.200678    0.958370    0.530963
  H     -7.068043   -0.805579    0.667976
  H     -7.085284   -0.031370   -0.923352
  H      5.060337    2.363376   -1.370254

 Total Charge           Charge          ....   -2
 Multiplicity           Mult            ....    1
 Number of Electrons    NEL             ....  186
 Basis Dimension        Dim             ....  615

ORBITAL ENERGIES
----------------

  NO   OCC          E(Eh)            E(eV)
   0   2.0000     -18.980947      -516.4978
   1   2.0000     -18.974599      -516.3251
   2   2.0000     -18.950997      -515.6829
   3   2.0000     -18.918291      -514.7929
   4   2.0000     -18.863897      -513.3127
   5   2.0000     -18.839091      -512.6377
   6   2.0000     -14.248053      -387.7092
   7   2.0000     -14.142740      -384.8435
   8   2.0000     -14.115752      -384.1092
   9   2.0000     -14.109631      -383.9426
  10   2.0000     -14.106153      -383.8479
  11   2.0000     -10.129044      -275.6253
  12   2.0000     -10.107146      -275.0294
  13   2.0000     -10.076194      -274.1872
  14   2.0000     -10.065602      -273.8989
  15   2.0000     -10.062875      -273.8248
  16   2.0000     -10.059793      -273.7409
  17   2.0000     -10.057283      -273.6726
  18   2.0000     -10.050005      -273.4745
  19   2.0000     -10.049007      -273.4474
  20   2.0000     -10.046595      -273.3817
  21   2.0000     -10.041833      -273.2522
  22   2.0000     -10.033902      -273.0363
  23   2.0000      -9.994051      -271.9520
  24   2.0000      -9.987560      -271.7753
  25   2.0000      -1.065439       -28.9921
  26   2.0000      -1.043102       -28.3842
  27   2.0000      -0.994989       -27.0750
  28   2.0000      -0.958367       -26.0785
  29   2.0000      -0.952584       -25.9211
  30   2.0000      -0.936502       -25.4835
  31   2.0000      -0.909228       -24.7414
  32   2.0000      -0.891593       -24.2615
  33   2.0000      -0.827239       -22.5103
  34   2.0000      -0.796741       -21.6804
  35   2.0000      -0.791642       -21.5417
  36   2.0000      -0.726330       -19.7644
  37   2.0000      -0.713501       -19.4153
  38   2.0000      -0.692650       -18.8480
  39   2.0000      -0.670161       -18.2360
  40   2.0000      -0.665188       -18.1007
  41   2.0000      -0.629489       -17.1293
  42   2.0000      -0.624500       -16.9935
  43   2.0000      -0.600852       -16.3500
  44   2.0000      -0.579916       -15.7803
  45   2.0000      -0.543478       -14.7888
  46   2.0000      -0.524089       -14.2612
  47   2.0000      -0.521329       -14.1861
  48   2.0000      -0.493260       -13.4223
  49   2.0000      -0.470584       -12.8053
  50   2.0000      -0.465702       -12.6724
  51   2.0000      -0.458550       -12.4778
  52   2.0000      -0.456702       -12.4275
  53   2.0000      -0.441433       -12.0120
  54   2.0000      -0.429731       -11.6936
  55   2.0000      -0.428610       -11.6631
  56   2.0000      -0.418439       -11.3863
  57   2.0000      -0.404191       -10.9986
  58   2.0000      -0.393646       -10.7117
  59   2.0000      -0.387448       -10.5430
  60   2.0000      -0.385194       -10.4817
  61   2.0000      -0.381641       -10.3850
  62   2.0000      -0.375801       -10.2261
  63   2.0000      -0.370526       -10.0825
  64   2.0000      -0.367332        -9.9956
  65   2.0000      -0.363417        -9.8891
  66   2.0000      -0.360535        -9.8107
  67   2.0000      -0.347556        -9.4575
  68   2.0000      -0.346699        -9.4341
  69   2.0000      -0.342654        -9.3241
  70   2.0000      -0.337159        -9.1746
  71   2.0000      -0.326191        -8.8761
  72   2.0000      -0.320559        -8.7229
  73   2.0000      -0.310310        -8.4440
  74   2.0000      -0.304687        -8.2909
  75   2.0000      -0.302196        -8.2232
  76   2.0000      -0.300387        -8.1740
  77   2.0000      -0.294042        -8.0013
  78   2.0000      -0.292305        -7.9540
  79   2.0000      -0.286230        -7.7887
  80   2.0000      -0.279446        -7.6041
  81   2.0000      -0.254764        -6.9325
  82   2.0000      -0.254004        -6.9118
  83   2.0000      -0.240568        -6.5462
  84   2.0000      -0.235382        -6.4051
  85   2.0000      -0.217624        -5.9219
  86   2.0000      -0.200247        -5.4490
  87   2.0000      -0.185235        -5.0405
  88   2.0000      -0.182048        -4.9538
  89   2.0000      -0.175664        -4.7800
  90   2.0000      -0.160217        -4.3597
  91   2.0000      -0.156492        -4.2584
  92   2.0000      -0.058423        -1.5898
  93   0.0000      -0.055381        -1.5070
  94   0.0000      -0.011657        -0.3172
  95   0.0000       0.012637         0.3439
  96   0.0000       0.057723         1.5707
  97   0.0000       0.062216         1.6930

MULLIKEN ATOMIC CHARGES
-----------------------
   0 C :   -0.331111
   1 O :   -0.193013
   2 C :    0.156444
   3 O :   -0.499938
   4 C :    0.000138
   5 N :   -0.210039
   6 C :    0.317310
   7 C :    0.103839
   8 C :   -0.695303
   9 C :   -0.717161
  10 N :   -0.244855
  11 C :   -0.296276
  12 O :   -0.530482
  13 C :    0.099507
  14 N :   -0.613304
  15 N :    0.566552
  16 C :   -0.480026
  17 C :    0.124017
  18 C :   -0.628223
  19 O :   -0.092892
  20 N :   -0.229147
  21 C :   -0.150249
  22 O :   -0.420284
  23 C :   -0.023369
  24 O :   -0.378789
  25 H :    0.165235
  26 H :    0.165601
  27 H :    0.165427
  28 H :    0.190283
  29 H :    0.165812
  30 H :    0.161135
  31 H :    0.191990
  32 H :    0.176917
  33 H :    0.168820
  34 H :    0.310817
  35 H :    0.193858
  36 H :    0.190293
  37 H :    0.199141
  38 H :    0.186071
  39 H :    0.191324
  40 H :    0.193329
  41 H :    0.350601
Sum of atomic charges:   -2.0000000

LOEWDIN ATOMIC CHARGES
----------------------
   0 C :   -0.052481
   1 O :   -0.606156
   2 C :    0.381515
   3 O :   -0.535189
   4 C :    0.142582
   5 N :   -0.655596
   6 C :    0.297600
   7 C :    0.087782
   8 C :   -0.380283
   9 C :   -0.378061
  10 N :   -0.719147
  11 C :    0.261059
  12 O :   -0.673247
  13 C :    0.309273
  14 N :   -0.415363
  15 N :   -0.643096
  16 C :   -0.059777
  17 C :    0.361553
  18 C :   -0.329154
  19 O :   -0.465918
  20 N :   -0.617464
  21 C :    0.284489
  22 O :   -0.564721
  23 C :    0.229336
  24 O :   -0.503359
  25 H :    0.174082
  26 H :    0.174508
  27 H :    0.178916
  28 H :    0.170481
  29 H :    0.163536
  30 H :    0.159707
  31 H :    0.172215
  32 H :    0.161589
  33 H :    0.159041
  34 H :    0.287875
  35 H :    0.195485
  36 H :    0.196014
  37 H :    0.206307
  38 H :    0.181844
  39 H :    0.184454
  40 H :    0.179171
  41 H :    0.298600

  Mayer bond orders larger than 0.100000
B(  0-C ,  1-O ) :   0.8473 B(  0-C , 25-H ) :   0.9620 B(  0-C , 26-H ) :   0.9629
B(  0-C , 27-H ) :   0.9661 B(  1-O ,  2-C ) :   1.0983 B(  2-C ,  3-O ) :   1.6536
B(  2-C ,  4-C ) :   1.1762 B(  4-C ,  5-N ) :   1.0568 B(  4-C , 23-C ) :   1.1500
B(  5-N ,  6-C ) :   1.4852 B(  6-C ,  7-C ) :   0.8184 B(  6-C , 10-N ) :  -0.1134
B(  6-C , 20-N ) :   1.3599 B(  7-C ,  8-C ) :   0.9002 B(  7-C ,  9-C ) :   0.8392
B(  7-C , 10-N ) :   0.9620 B(  8-C , 28-H ) :   0.9755 B(  8-C , 29-H ) :   0.9745
B(  8-C , 30-H ) :   0.9880 B(  9-C , 31-H ) :   0.9688 B(  9-C , 32-H ) :   0.9915
B(  9-C , 33-H ) :   0.9752 B( 10-N , 11-C ) :   0.9456 B( 10-N , 34-H ) :   0.8316
B( 11-C , 12-O ) :   1.8824 B( 11-C , 13-C ) :   1.0882 B( 12-O , 13-C ) :  -0.1152
B( 13-C , 14-N ) :   1.2834 B( 13-C , 17-C ) :   0.1042 B( 13-C , 19-O ) :   0.9234
B( 14-N , 15-N ) :   1.2865 B( 14-N , 16-C ) :   0.1049 B( 14-N , 17-C ) :   0.2739
B( 15-N , 16-C ) :   0.8555 B( 15-N , 17-C ) :   1.5328 B( 16-C , 35-H ) :   0.9380
B( 16-C , 36-H ) :   0.9413 B( 16-C , 37-H ) :   0.9536 B( 17-C , 18-C ) :   0.7971
B( 17-C , 19-O ) :   1.0211 B( 18-C , 38-H ) :   0.9647 B( 18-C , 39-H ) :   0.9761
B( 18-C , 40-H ) :   0.9586 B( 20-N , 21-C ) :   1.2241 B( 20-N , 22-O ) :  -0.1032
B( 21-C , 22-O ) :   2.0988 B( 21-C , 23-C ) :   0.9836 B( 23-C , 24-O ) :   1.1119
B( 24-O , 41-H ) :   0.7813

Dispersion correction           -0.018590301
FINAL SINGLE POINT ENERGY     -1268.798525243413

DIPOLE MOMENT
-------------
                                X             Y             Z
Electronic contribution:      8.42638       7.91694      -2.53463
Nuclear contribution   :    -11.80090      -8.25727       2.40674
                        -----------------------------------------
Total Dipole Moment    :     -3.37452      -0.34033      -0.12789
                        -----------------------------------------
Magnitude (a.u.)       :      3.39405
Magnitude (Debye)      :      8.62698

Rotational constants in cm-1:     0.016351     0.003184     0.002721
Rotational constants in MHz :   490.191441    95.465041    81.588229

                             ****ORCA TERMINATED NORMALLY****
TOTAL RUN TIME: 0 days 0 hours 9 minutes 6 seconds 270 msec
