   * xtb version 6.5.1 (579679a) compiled by 'ehlert@majestix' on 2022-07-11
          program call               : /lustre/hpc/kemi/ree/PhD/git/ReactivityQM/dep/xtb-6.5.1/bin/xtb --gfn 1 /lustre/hpc/kemi/ree/PhD/git/ReactivityQM/calculations/R02deprot/reac01prodE10/conf05/R02deprot_reac01prodE10_conf05_gfn1.xyz --opt --vfukui --chrg -2 --uhf 0 --alpb DMSO

   ID    Z sym.   atoms
    1    6 C      1, 3, 5, 7-10, 12, 14, 17-19, 22, 24
    2    8 O      2, 4, 13, 20, 23, 25
    3    7 N      6, 11, 15, 16, 21
    4    1 H      26-42

      * Solvation model:               ALPB
        Solvent                        DMSO
        Solvent mass                       7.8130E+01 g/mol
          :  Hamiltonian                  GFN1-xTB          :
 * total energy  :   -83.5544048 Eh     change       -0.1147669E-09 Eh
 * total energy  :   -83.5687959 Eh     change       -0.1439112E-01 Eh
 * total energy  :   -83.5741792 Eh     change       -0.5383286E-02 Eh
 * total energy  :   -83.5749095 Eh     change       -0.7302853E-03 Eh
 * total energy  :   -83.5755423 Eh     change       -0.6327778E-03 Eh
 * total energy  :   -83.5756972 Eh     change       -0.1548917E-03 Eh
 * total energy  :   -83.5758168 Eh     change       -0.1195716E-03 Eh
 * total energy  :   -83.5758807 Eh     change       -0.6396483E-04 Eh
 * total energy  :   -83.5759376 Eh     change       -0.5687855E-04 Eh
 * total energy  :   -83.5759761 Eh     change       -0.3852526E-04 Eh
 * total energy  :   -83.5760819 Eh     change       -0.3263594E-04 Eh
 * total energy  :   -83.5761154 Eh     change       -0.3358956E-04 Eh
 * total energy  :   -83.5761410 Eh     change       -0.2553810E-04 Eh
 * total energy  :   -83.5761620 Eh     change       -0.2102734E-04 Eh
 * total energy  :   -83.5761786 Eh     change       -0.1661832E-04 Eh
 * total energy  :   -83.5761915 Eh     change       -0.1284134E-04 Eh
 * total energy  :   -83.5762020 Eh     change       -0.1051460E-04 Eh
 * total energy  :   -83.5762104 Eh     change       -0.8455096E-05 Eh
 * total energy  :   -83.5762150 Eh     change       -0.4549548E-05 Eh
   *** GEOMETRY OPTIMIZATION CONVERGED AFTER 22 ITERATIONS ***

 final structure:
================
42
 xtb: 6.5.1 (579679a)
C            6.67839725968102       -1.25366810077002        0.54130510260708
O            5.31057675727848       -0.92464702027535        0.36355857728883
C            5.06985670903769        0.26372949514904       -0.26807825343571
O            6.01578953993835        0.97121792716571       -0.64881187347596
C            3.66841883642392        0.58676973853238       -0.42985772186438
N            2.73894828178272       -0.30702925779528        0.04284555023950
C            1.46935251263412        0.01679313685164       -0.10897826566948
C            0.44571351713488       -1.01456062761424        0.38112785451957
C            0.97981490952728       -1.71344845870720        1.64029899035317
C            0.27019083092941       -2.04050099722804       -0.76104026077015
N           -0.79553177796650       -0.30998617069854        0.69276087246004
C           -2.00880646645896       -1.07683969750902        0.82790283088822
O           -1.98113770289043       -2.27045472596052        1.27794032652979
C           -3.13136735341859       -0.35043765753201        0.50029897727154
N           -3.19554809110984        0.96415702032024        0.01489883035999
N           -4.49337840596661        1.17726079088785       -0.15221983643930
C           -4.94677134769636        2.45807413258543       -0.63891414025010
C           -5.25789061988231        0.15727663117059        0.17755467187547
C           -6.73708683089161        0.06684438554577        0.10786281107717
O           -4.48723421522832       -0.88171306231580        0.60759063136007
N            0.98698655007468        1.11392376428019       -0.68479919302279
C            1.84053618037857        2.06128719143362       -1.18067367111160
O            1.41283972571860        3.10838236409765       -1.71865539811603
C            3.25880033071721        1.76784870220953       -1.03954721193548
O            4.14788358788599        2.68873468700223       -1.52310688075975
H            7.18223191779421       -0.50364368778352        1.15994983992305
H            7.19362586522970       -1.31413315944175       -0.42286126394869
H            6.71483000422693       -2.22285344823173        1.03785839328366
H            0.29853572651189       -2.50114513366788        1.96085360398681
H            1.95752451365299       -2.15086539483690        1.43573913337592
H            1.08364800544786       -0.98847360692551        2.44925693393983
H           -0.37400933321284       -2.86294479028586       -0.45066570167131
H           -0.16885004640964       -1.55630970088140       -1.63428024480195
H            1.24495894482009       -2.44391413862355       -1.03738226563024
H           -0.92466725685453        0.46566941201970        0.03758343615805
H           -5.52455411307862        2.96269872438671        0.13482377849283
H           -5.57459125246851        2.31705259748644       -1.51718587063002
H           -4.07436928891346        3.05505107939884       -0.89608291137719
H           -7.20067790605907        0.95837034381238        0.53096286718811
H           -7.06804339378863       -0.80557910951491        0.66797614114537
H           -7.08528422622793       -0.03137048891016       -0.92335241714696
H            5.06033712169658        2.36337631120027       -1.37025377227361

          :  Hamiltonian                  GFN1-xTB          :
         :: total energy             -83.576214992074 Eh    ::
         :: gradient norm              0.000683550008 Eh/a0 ::
         :: HOMO-LUMO gap              0.089512017837 eV    ::
         :: SCC energy               -84.301483613429 Eh    ::
         :: -> Gsolv                  -0.292508092710 Eh    ::
         :: repulsion energy           0.750257621088 Eh    ::

    * Orbital Energies and Occupations

         #    Occupation            Energy/Eh            Energy/eV
      -------------------------------------------------------------
         1        2.0000           -0.8103981             -22.0521
       ...           ...                  ...                  ...
        56        2.0000           -0.4383071             -11.9269
        57        2.0000           -0.4356231             -11.8539
        58        2.0000           -0.4237926             -11.5320
        59        2.0000           -0.4130978             -11.2410
        60        2.0000           -0.4028133             -10.9611
        61        2.0000           -0.3904155             -10.6237
        62        2.0000           -0.3827322             -10.4147
        63        2.0000           -0.3721241             -10.1260
        64        2.0000           -0.3666467              -9.9770
        65        2.0000           -0.3508255              -9.5464
        66        2.0000           -0.3427003              -9.3253
        67        2.0000           -0.3418099              -9.3011
        68        1.6991           -0.2611623              -7.1066 (HOMO)
        69        0.3009           -0.2578728              -7.0171 (LUMO)
        70                         -0.2319298              -6.3111
        71                         -0.1968463              -5.3565
        72                         -0.1638079              -4.4574
        73                         -0.1428442              -3.8870
        74                         -0.1273943              -3.4666
        75                         -0.1169780              -3.1831
        76                         -0.1107947              -3.0149
        77                         -0.0855338              -2.3275
        78                         -0.0846107              -2.3024
        79                         -0.0796448              -2.1672
       ...                                ...                  ...
       134                          0.7193717              19.5751
      -------------------------------------------------------------
                  HL-Gap            0.0032895 Eh            0.0895 eV

Wiberg/Mayer (AO) data.
largest (>0.10) Wiberg bond orders for each atom

     #   Z sym  total        # sym  WBO       # sym  WBO       # sym  WBO
 ---------------------------------------------------------------------------
     1   6 C    3.902 --    28 H    0.987    26 H    0.980    27 H    0.980
                             2 O    0.930
     2   8 O    2.120 --     3 C    1.025     1 C    0.930
     3   6 C    3.712 --     4 O    1.498     5 C    1.115     2 O    1.025
     4   8 O    1.804 --     3 C    1.498
     5   6 C    3.922 --    24 C    1.388     6 N    1.188     3 C    1.115
     6   7 N    2.954 --     7 C    1.452     5 C    1.188
     7   6 C    3.953 --     6 N    1.452    21 N    1.377     8 C    0.968
     8   6 C    3.962 --     9 C    0.994    10 C    0.973     7 C    0.968
                            11 N    0.966
     9   6 C    3.996 --     8 C    0.994    31 H    0.987    30 H    0.986
                            29 H    0.982
    10   6 C    3.994 --    34 H    0.988    33 H    0.987    32 H    0.982
                             8 C    0.973
    11   7 N    3.070 --    12 C    0.983     8 C    0.966    35 H    0.923
    12   6 C    3.866 --    14 C    1.418    13 O    1.331    11 N    0.983
    13   8 O    1.629 --    12 C    1.331    14 C    0.117
    14   6 C    3.605 --    12 C    1.418    15 N    1.116    20 O    0.846
                            13 O    0.117
    15   7 N    2.733 --    16 N    1.181    14 C    1.116    18 C    0.274
    16   7 N    3.634 --    18 C    1.372    15 N    1.181    17 C    0.948
    17   6 C    3.951 --    38 H    0.984    37 H    0.982    36 H    0.980
                            16 N    0.948
    18   6 C    3.809 --    16 N    1.372    20 O    1.044    19 C    1.026
                            15 N    0.274
    19   6 C    3.993 --    18 C    1.026    40 H    0.982    39 H    0.976
                            41 H    0.967
    20   8 O    2.074 --    18 C    1.044    14 C    0.846
    21   7 N    2.946 --     7 C    1.377    22 C    1.210    23 O    0.115
    22   6 C    3.912 --    23 O    1.454    21 N    1.210    24 C    1.122
    23   8 O    1.726 --    22 C    1.454    21 N    0.115
    24   6 C    3.799 --     5 C    1.388    22 C    1.122    25 O    1.039
    25   8 O    1.996 --    24 C    1.039    42 H    0.811
    26   1 H    1.014 --     1 C    0.980
    27   1 H    1.014 --     1 C    0.980
    28   1 H    1.017 --     1 C    0.987
    29   1 H    1.032 --     9 C    0.982
    30   1 H    1.027 --     9 C    0.986
    31   1 H    1.016 --     9 C    0.987
    32   1 H    1.024 --    10 C    0.982
    33   1 H    1.010 --    10 C    0.987
    34   1 H    1.013 --    10 C    0.988
    35   1 H    1.011 --    11 N    0.923
    36   1 H    1.002 --    17 C    0.980
    37   1 H    1.002 --    17 C    0.982
    38   1 H    1.010 --    17 C    0.984
    39   1 H    1.001 --    19 C    0.976
    40   1 H    1.002 --    19 C    0.982
    41   1 H    1.001 --    19 C    0.967
    42   1 H    0.889 --    25 O    0.811
 ---------------------------------------------------------------------------

           -------------------------------------------------
          | TOTAL ENERGY              -83.576214992074 Eh   |
          | GRADIENT NORM               0.000683550008 Eh/α |
          | HOMO-LUMO GAP               0.089512017837 eV   |
           -------------------------------------------------

 * finished run on 2023/06/20 at 17:54:58.556
