   * xtb version 6.5.1 (579679a) compiled by 'ehlert@majestix' on 2022-07-11
          program call               : /lustre/hpc/kemi/ree/PhD/git/ReactivityQM/dep/xtb-6.5.1/bin/xtb --gfn 1 /lustre/hpc/kemi/ree/PhD/git/ReactivityQM/calculations/RaltegravirCLI/reac02prodE06/conf01/RaltegravirCLI_reac02prodE06_conf01_gfn1.xyz --opt --vfukui --chrg -1 --uhf 0 --alpb DMSO

   ID    Z sym.   atoms
    1    6 C      1, 3-6, 9, 10, 13-18, 20-22, 24
    2    7 N      2, 7, 8, 12
    3    8 O      11, 23, 25
    4    9 F      19
    5    1 H      26-47

      * Solvation model:               ALPB
        Solvent                        DMSO
        Solvent mass                       7.8130E+01 g/mol
          :  Hamiltonian                  GFN1-xTB          :
 * total energy  :   -80.1779484 Eh     change        0.1563194E-12 Eh
 * total energy  :   -80.1848225 Eh     change       -0.6874052E-02 Eh
 * total energy  :   -80.1866609 Eh     change       -0.1838464E-02 Eh
 * total energy  :   -80.1870150 Eh     change       -0.3540889E-03 Eh
 * total energy  :   -80.1873284 Eh     change       -0.3133239E-03 Eh
 * total energy  :   -80.1875113 Eh     change       -0.1829623E-03 Eh
 * total energy  :   -80.1876894 Eh     change       -0.1780961E-03 Eh
 * total energy  :   -80.1877905 Eh     change       -0.1010715E-03 Eh
 * total energy  :   -80.1878287 Eh     change       -0.3825817E-04 Eh
 * total energy  :   -80.1878561 Eh     change       -0.2737956E-04 Eh
 * total energy  :   -80.1879407 Eh     change       -0.1649177E-04 Eh
 * total energy  :   -80.1879375 Eh     change        0.3240162E-05 Eh
 * total energy  :   -80.1879502 Eh     change       -0.1276202E-04 Eh
 * total energy  :   -80.1879642 Eh     change       -0.1392567E-04 Eh
 * total energy  :   -80.1879716 Eh     change       -0.7433149E-05 Eh
 * total energy  :   -80.1879780 Eh     change       -0.6362004E-05 Eh
 * total energy  :   -80.1879830 Eh     change       -0.5036267E-05 Eh
 * total energy  :   -80.1879891 Eh     change       -0.6068557E-05 Eh
 * total energy  :   -80.1879922 Eh     change       -0.3091144E-05 Eh
   *** GEOMETRY OPTIMIZATION CONVERGED AFTER 22 ITERATIONS ***

 final structure:
================
47
 xtb: 6.5.1 (579679a)
C           -4.32305487265454       -2.04464577542093       -0.92147206826170
N           -3.04847988483225       -1.33514601855816       -0.85539115681183
C           -2.87871081804342       -0.11835483022104       -0.23220578920026
C           -4.03542331578659        0.61677728385077        0.43861578992683
C           -4.83242665244482        1.37758189547724       -0.63150855429846
C           -3.46724149717943        1.62280917236490        1.45483296844274
N           -4.92283845740837       -0.32020773831163        1.12383484797588
N           -1.74134612985988        0.49270344420048       -0.22125836241676
C           -0.61103683232642       -0.04277457759612       -0.79010861740880
C            0.58581691070933        0.82071593455565       -0.66863179479993
O            0.50953245653998        1.97759953590885       -0.23072353876605
N            1.76188316179609        0.29136746213700       -1.08868476207446
C            3.02123148012587        0.95448947668496       -0.84544946147484
C            3.72368056355171        0.50393150663194        0.50764062014801
C            2.75277389515254        0.81244756021857        1.67250306799222
C            4.98197994008070        1.32427361416680        0.64844020714428
C            6.23494132545857        0.78128382788484        0.58509650224100
C            6.39828949688312       -0.59678307581171        0.44395969458864
F            7.67198039738720       -1.12016985144177        0.39556197985795
C            5.30523057675094       -1.46423017115688        0.40356958531877
C            4.03271395643609       -0.97087002961154        0.46005863700481
C           -0.71439517925621       -1.28107083446249       -1.39282332949993
O            0.33261728714377       -1.92441050583119       -1.98834192189698
C           -1.96105401021428       -1.98119831503349       -1.44632310191069
O           -2.07736781668840       -3.08931817652497       -1.99288080247000
H           -5.13140561914193       -1.35551346529546       -1.14767648429301
H           -4.52956563905586       -2.53619555628404        0.02907816195112
H           -4.25401155391023       -2.79528425608287       -1.70957378379514
H           -5.30181241852081        0.69093711894191       -1.33377688510582
H           -4.17037647866660        2.04498898523804       -1.18310463340415
H           -5.61228165151467        1.97054932505439       -0.15592637323818
H           -4.28738218538313        2.12947496701527        1.96017621617069
H           -2.84497285453548        2.36298457868266        0.95190243253080
H           -2.86274550206741        1.10312030276961        2.19732287084204
H           -5.77450819001340        0.15644749377618        1.38172016668792
H           -4.48606668821877       -0.64275671393527        1.97776621308343
H            1.80738505540814       -0.68342546148064       -1.34116472004937
H            3.70422567591951        0.72424817335306       -1.66791594814366
H            2.85401922518486        2.03636716353384       -0.81573197024686
H            1.86480560307142        0.18315376779439        1.60913472331544
H            2.44587889977864        1.85909699595999        1.65504552653965
H            3.25372627715704        0.60799074196345        2.61885484426768
H            4.85538947085879        2.39419574590059        0.78069483733675
H            7.11293718106519        1.41456736688672        0.66778492456020
H            5.47834529941013       -2.53445327631349        0.34645654733713
H            3.18373829639794       -1.64721111336086        0.44975060429869
H           -0.00462018454324       -2.77008269821857       -2.33598790999593

          :  Hamiltonian                  GFN1-xTB          :
         :: total energy             -80.187992162070 Eh    ::
         :: gradient norm              0.000280229146 Eh/a0 ::
         :: HOMO-LUMO gap              0.257229478673 eV    ::
         :: SCC energy               -81.043752366311 Eh    ::
         :: -> Gsolv                  -0.101858315974 Eh    ::
         :: repulsion energy           0.886507162968 Eh    ::

    * Orbital Energies and Occupations

         #    Occupation            Energy/Eh            Energy/eV
      -------------------------------------------------------------
         1        2.0000           -0.8011621             -21.8007
       ...           ...                  ...                  ...
        56        2.0000           -0.4563430             -12.4177
        57        2.0000           -0.4419933             -12.0273
        58        2.0000           -0.4409939             -12.0001
        59        2.0000           -0.4389042             -11.9432
        60        2.0000           -0.4306899             -11.7197
        61        2.0000           -0.4220571             -11.4848
        62        2.0000           -0.4164145             -11.3312
        63        2.0000           -0.4101561             -11.1609
        64        2.0000           -0.4043641             -11.0033
        65        2.0000           -0.4019528             -10.9377
        66        2.0000           -0.3954811             -10.7616
        67        2.0000           -0.3947430             -10.7415
        68        1.9863           -0.2980877              -8.1114 (HOMO)
        69        0.0137           -0.2886346              -7.8541 (LUMO)
        70                         -0.2500222              -6.8035
        71                         -0.2102136              -5.7202
        72                         -0.1999113              -5.4399
        73                         -0.1282465              -3.4898
        74                         -0.1256453              -3.4190
        75                         -0.1206645              -3.2834
        76                         -0.1158586              -3.1527
        77                         -0.1097337              -2.9860
        78                         -0.0926073              -2.5200
        79                         -0.0873867              -2.3779
       ...                                ...                  ...
       144                          0.7031795              19.1345
      -------------------------------------------------------------
                  HL-Gap            0.0094530 Eh            0.2572 eV

Wiberg/Mayer (AO) data.
largest (>0.10) Wiberg bond orders for each atom

     #   Z sym  total        # sym  WBO       # sym  WBO       # sym  WBO
 ---------------------------------------------------------------------------
     1   6 C    3.935 --    26 H    0.979    27 H    0.978    28 H    0.976
                             2 N    0.938
     2   7 N    3.426 --     3 C    1.151    24 C    1.089     1 C    0.938
                            25 O    0.114
     3   6 C    3.905 --     8 N    1.586     2 N    1.151     4 C    0.975
     4   6 C    3.966 --     6 C    0.989     5 C    0.984     7 N    0.982
                             3 C    0.975
     5   6 C    3.993 --    30 H    0.986     4 C    0.984    31 H    0.984
                            29 H    0.980
     6   6 C    3.995 --     4 C    0.989    32 H    0.987    34 H    0.985
                            33 H    0.982
     7   7 N    2.977 --     4 C    0.982    36 H    0.943    35 H    0.942
     8   7 N    3.024 --     3 C    1.586     9 C    1.176
     9   6 C    3.900 --    22 C    1.416     8 N    1.176    10 C    1.043
    10   6 C    3.897 --    11 O    1.504    12 N    1.228     9 C    1.043
    11   8 O    1.811 --    10 C    1.504    12 N    0.156
    12   7 N    3.352 --    10 C    1.228    13 C    0.967    37 H    0.900
                            11 O    0.156
    13   6 C    3.927 --    38 H    0.980    39 H    0.976    12 N    0.967
                            14 C    0.900
    14   6 C    3.983 --    21 C    1.023    16 C    1.020    15 C    0.976
                            13 C    0.900
    15   6 C    3.990 --    42 H    0.988    40 H    0.985    41 H    0.985
                            14 C    0.976
    16   6 C    3.857 --    17 C    1.591    14 C    1.020    43 H    0.976
    17   6 C    3.993 --    16 C    1.591    18 C    1.316    44 H    0.971
    18   6 C    3.653 --    17 C    1.316    20 C    1.310    19 F    0.858
    19   9 F    0.949 --    18 C    0.858
    20   6 C    3.994 --    21 C    1.598    18 C    1.310    45 H    0.971
    21   6 C    3.910 --    20 C    1.598    14 C    1.023    46 H    0.974
    22   6 C    3.853 --     9 C    1.416    24 C    1.161    23 O    1.035
    23   8 O    2.023 --    22 C    1.035    47 H    0.816
    24   6 C    3.870 --    25 O    1.484    22 C    1.161     2 N    1.089
    25   8 O    1.816 --    24 C    1.484     2 N    0.114
    26   1 H    1.022 --     1 C    0.979
    27   1 H    1.019 --     1 C    0.978
    28   1 H    1.013 --     1 C    0.976
    29   1 H    1.006 --     5 C    0.980
    30   1 H    1.005 --     5 C    0.986
    31   1 H    1.001 --     5 C    0.984
    32   1 H    1.005 --     6 C    0.987
    33   1 H    1.018 --     6 C    0.982
    34   1 H    1.009 --     6 C    0.985
    35   1 H    0.957 --     7 N    0.942
    36   1 H    0.959 --     7 N    0.943
    37   1 H    0.963 --    12 N    0.900
    38   1 H    1.024 --    13 C    0.980
    39   1 H    1.019 --    13 C    0.976
    40   1 H    1.010 --    15 C    0.985
    41   1 H    1.016 --    15 C    0.985
    42   1 H    1.021 --    15 C    0.988
    43   1 H    1.003 --    16 C    0.976
    44   1 H    1.006 --    17 C    0.971
    45   1 H    1.006 --    20 C    0.971
    46   1 H    1.004 --    21 C    0.974
    47   1 H    0.862 --    23 O    0.816
 ---------------------------------------------------------------------------

           -------------------------------------------------
          | TOTAL ENERGY              -80.187992162070 Eh   |
          | GRADIENT NORM               0.000280229146 Eh/α |
          | HOMO-LUMO GAP               0.257229478673 eV   |
           -------------------------------------------------

 * finished run on 2023/06/20 at 15:03:40.281
