   * xtb version 6.5.1 (579679a) compiled by 'ehlert@majestix' on 2022-07-11
          program call               : /lustre/hpc/kemi/ree/PhD/git/ReactivityQM/dep/xtb-6.5.1/bin/xtb --gfn 1 /lustre/hpc/kemi/ree/PhD/git/ReactivityQM/calculations/RaltegravirCLI/reac02prodE03/conf15/RaltegravirCLI_reac02prodE03_conf15_gfn1.xyz --opt --vfukui --chrg -1 --uhf 0 --alpb DMSO

   ID    Z sym.   atoms
    1    6 C      1, 3, 5, 7, 8, 11-15, 17, 18, 20-24
    2    7 N      2, 10, 19, 25
    3    8 O      4, 6, 9
    4    9 F      16
    5    1 H      26-47

      * Solvation model:               ALPB
        Solvent                        DMSO
        Solvent mass                       7.8130E+01 g/mol
          :  Hamiltonian                  GFN1-xTB          :
 * total energy  :   -80.1245781 Eh     change       -0.1110436E-09 Eh
 * total energy  :   -80.1357279 Eh     change       -0.1114980E-01 Eh
 * total energy  :   -80.1400668 Eh     change       -0.4338852E-02 Eh
 * total energy  :   -80.1418683 Eh     change       -0.1801485E-02 Eh
 * total energy  :   -80.1433370 Eh     change       -0.1468711E-02 Eh
 * total energy  :   -80.1442130 Eh     change       -0.8760243E-03 Eh
 * total energy  :   -80.1455085 Eh     change       -0.1295539E-02 Eh
 * total energy  :   -80.1469075 Eh     change       -0.1398931E-02 Eh
 * total energy  :   -80.1485362 Eh     change       -0.1628749E-02 Eh
 * total energy  :   -80.1499997 Eh     change       -0.1463481E-02 Eh
 * total energy  :   -80.1639511 Eh     change       -0.1176770E-04 Eh
 * total energy  :   -80.1639667 Eh     change       -0.1557693E-04 Eh
 * total energy  :   -80.1639818 Eh     change       -0.1513390E-04 Eh
 * total energy  :   -80.1639959 Eh     change       -0.1413684E-04 Eh
 * total energy  :   -80.1640103 Eh     change       -0.1442414E-04 Eh
 * total energy  :   -80.1640258 Eh     change       -0.1544662E-04 Eh
 * total energy  :   -80.1640392 Eh     change       -0.1343207E-04 Eh
 * total energy  :   -80.1640463 Eh     change       -0.7071933E-05 Eh
 * total energy  :   -80.1640505 Eh     change       -0.4179421E-05 Eh
   *** GEOMETRY OPTIMIZATION CONVERGED AFTER 80 ITERATIONS ***

 final structure:
================
47
 xtb: 6.5.1 (579679a)
C           -3.59567512562003        1.27158243791083       -1.79680748992096
N           -2.45850902368089        0.39352363471912       -1.53895051016641
C           -1.53025019383451        0.34540044249611       -2.55852147433306
O           -1.71678155783507        0.96282122280750       -3.65518371547087
C           -0.30897282651658       -0.29477152851773       -2.21064003683310
O            0.77718340528980        0.05457408389725       -2.98672548199828
C           -0.20849579255270       -1.06821328318868       -1.05858009163004
C            0.97133643518361       -1.50287729783528       -0.35864840013036
O            0.95167514395648       -2.03409885558036        0.76877095830188
N            2.17580786139560       -1.40704929421699       -1.05293530711494
C            3.41587118553365       -1.59205106272938       -0.31297924297076
C            3.80240409245220       -0.33378792663088        0.43808711595294
C            4.66431139774001        0.59383963183917       -0.14357861717506
C            5.01131188702005        1.75986255339606        0.52614298260420
C            4.47647807124788        1.97478851588219        1.78285780271737
F            4.81117607622096        3.10056342647447        2.44292025036995
C            3.61737553561974        1.07800568148215        2.39211460520596
C            3.28093063399053       -0.08040392802150        1.70613069977413
N           -1.47941744011419       -1.50155111745855       -0.50041696303398
C           -2.08634499532555       -2.58847211524231       -1.30101019494659
C           -2.35729096833265       -0.36805468626167       -0.39399215469550
C           -2.59422425650289        0.20418291004468        0.99605168814328
C           -2.35635777907164        1.72775221183194        1.06664315204228
C           -1.66447271129970       -0.48309034676652        2.00938910301387
N           -3.97785699489021       -0.09915088969223        1.42551637505054
H           -3.27607247318368        2.31552576263199       -1.81182685771833
H           -4.00829550506414        1.02666376527750       -2.77903213736604
H           -4.36273186834765        1.12897086582312       -1.04103895009854
H            0.43360909255181        0.63109350468583       -3.69384807106323
H            2.23355853112181       -0.70953351644683       -1.78227254238537
H            4.20214875995089       -1.85801377212484       -1.02598026735144
H            3.28007590512021       -2.42341719748895        0.38724143799815
H            5.08032236679758        0.40371479914788       -1.12647011382459
H            5.68511810916929        2.48362329357566        0.08690020546020
H            3.22653804480133        1.28471091197226        3.38022094570120
H            2.60635959723618       -0.79768198376108        2.16234900706864
H           -1.41301077112838       -3.44770624330705       -1.29978390217221
H           -3.03296625915138       -2.86845614596401       -0.83604324656832
H           -2.27325616277817       -2.28369573928191       -2.33921561283586
H           -2.32125065383836        2.04934498249355        2.10773403496773
H           -1.41127334228207        1.98608884139375        0.58814914760025
H           -3.16028249793689        2.27350954304105        0.57787928371425
H           -1.88672011197100       -0.12568062373213        3.01529613583541
H           -1.80681733870203       -1.56376111106874        1.98121079446729
H           -0.62150733290750       -0.26549922024445        1.78059066377840
H           -4.62890200012725        0.25858199246962        0.73852555981995
H           -4.16585514943597        0.38829487026931        2.29166943221985

          :  Hamiltonian                  GFN1-xTB          :
         :: total energy             -80.164050475474 Eh    ::
         :: gradient norm              0.000553501988 Eh/a0 ::
         :: HOMO-LUMO gap              0.907326128217 eV    ::
         :: SCC energy               -81.007715725547 Eh    ::
         :: -> Gsolv                  -0.101918767028 Eh    ::
         :: repulsion energy           0.876071240504 Eh    ::

    * Orbital Energies and Occupations

         #    Occupation            Energy/Eh            Energy/eV
      -------------------------------------------------------------
         1        2.0000           -0.8546646             -23.2566
       ...           ...                  ...                  ...
        56        2.0000           -0.4607221             -12.5369
        57        2.0000           -0.4518959             -12.2967
        58        2.0000           -0.4485459             -12.2056
        59        2.0000           -0.4399518             -11.9717
        60        2.0000           -0.4270655             -11.6210
        61        2.0000           -0.4102981             -11.1648
        62        2.0000           -0.4079418             -11.1007
        63        2.0000           -0.3963671             -10.7857
        64        2.0000           -0.3867827             -10.5249
        65        2.0000           -0.3851917             -10.4816
        66        2.0000           -0.3724153             -10.1339
        67        2.0000           -0.3601094              -9.7991
        68        2.0000           -0.2953322              -8.0364 (HOMO)
        69                         -0.2619885              -7.1291 (LUMO)
        70                         -0.2580035              -7.0206
        71                         -0.2528498              -6.8804
        72                         -0.1769273              -4.8144
        73                         -0.1339779              -3.6457
        74                         -0.1227945              -3.3414
        75                         -0.1174865              -3.1970
        76                         -0.1047700              -2.8509
        77                         -0.1018427              -2.7713
        78                         -0.0971309              -2.6431
        79                         -0.0940034              -2.5580
       ...                                ...                  ...
       144                          0.6839382              18.6109
      -------------------------------------------------------------
                  HL-Gap            0.0333436 Eh            0.9073 eV

Wiberg/Mayer (AO) data.
largest (>0.10) Wiberg bond orders for each atom

     #   Z sym  total        # sym  WBO       # sym  WBO       # sym  WBO
 ---------------------------------------------------------------------------
     1   6 C    3.958 --    28 H    0.984    26 H    0.981    27 H    0.976
                             2 N    0.950
     2   7 N    3.488 --    21 C    1.150     3 C    1.136     1 C    0.950
                             4 O    0.124
     3   6 C    3.925 --     4 O    1.340     5 C    1.199     2 N    1.136
                            21 C    0.126
     4   8 O    1.710 --     3 C    1.340     2 N    0.124
     5   6 C    3.892 --     7 C    1.396     3 C    1.199     6 O    1.002
                            21 C    0.129
     6   8 O    2.006 --     5 C    1.002    29 H    0.829
     7   6 C    3.918 --     5 C    1.396     8 C    1.169    19 N    0.959
                            21 C    0.125
     8   6 C    3.907 --     9 O    1.477     7 C    1.169    10 N    1.111
     9   8 O    1.818 --     8 C    1.477    10 N    0.108
    10   7 N    3.212 --     8 C    1.111    11 C    0.961    30 H    0.906
                             9 O    0.108
    11   6 C    3.968 --    12 C    0.994    31 H    0.979    32 H    0.972
                            10 N    0.961
    12   6 C    3.986 --    13 C    1.419    18 C    1.414    11 C    0.994
    13   6 C    3.994 --    14 C    1.440    12 C    1.419    33 H    0.972
                            17 C    0.109
    14   6 C    3.992 --    13 C    1.440    15 C    1.404    34 H    0.970
                            18 C    0.111
    15   6 C    3.857 --    14 C    1.404    17 C    1.400    16 F    0.916
    16   9 F    1.041 --    15 C    0.916
    17   6 C    3.992 --    18 C    1.445    15 C    1.400    35 H    0.971
                            13 C    0.109
    18   6 C    3.992 --    17 C    1.445    12 C    1.414    36 H    0.968
                            14 C    0.111
    19   7 N    3.049 --    21 C    0.980    20 C    0.964     7 C    0.959
    20   6 C    3.987 --    38 H    0.989    37 H    0.988    39 H    0.982
                            19 N    0.964
    21   6 C    3.786 --     2 N    1.150    22 C    0.985    19 N    0.980
                             5 C    0.129     3 C    0.126     7 C    0.125
    22   6 C    3.962 --    24 C    0.996    21 C    0.985    23 C    0.983
                            25 N    0.959
    23   6 C    3.995 --    41 H    0.986    40 H    0.985    22 C    0.983
                            42 H    0.983
    24   6 C    3.996 --    22 C    0.996    43 H    0.987    45 H    0.985
                            44 H    0.984
    25   7 N    2.945 --    22 C    0.959    47 H    0.954    46 H    0.949
    26   1 H    1.013 --     1 C    0.981
    27   1 H    1.019 --     1 C    0.976
    28   1 H    1.013 --     1 C    0.984
    29   1 H    0.882 --     6 O    0.829
    30   1 H    0.967 --    10 N    0.906
    31   1 H    1.010 --    11 C    0.979
    32   1 H    1.019 --    11 C    0.972
    33   1 H    1.001 --    13 C    0.972
    34   1 H    0.999 --    14 C    0.970
    35   1 H    1.000 --    17 C    0.971
    36   1 H    1.018 --    18 C    0.968
    37   1 H    1.020 --    20 C    0.988
    38   1 H    1.027 --    20 C    0.989
    39   1 H    1.010 --    20 C    0.982
    40   1 H    1.006 --    23 C    0.985
    41   1 H    1.008 --    23 C    0.986
    42   1 H    1.009 --    23 C    0.983
    43   1 H    1.006 --    24 C    0.987
    44   1 H    1.030 --    24 C    0.984
    45   1 H    1.022 --    24 C    0.985
    46   1 H    0.981 --    25 N    0.949
    47   1 H    0.968 --    25 N    0.954
 ---------------------------------------------------------------------------

           -------------------------------------------------
          | TOTAL ENERGY              -80.164050475474 Eh   |
          | GRADIENT NORM               0.000553501988 Eh/α |
          | HOMO-LUMO GAP               0.907326128217 eV   |
           -------------------------------------------------

 * finished run on 2023/06/20 at 14:59:28.647
