   * xtb version 6.5.1 (579679a) compiled by 'ehlert@majestix' on 2022-07-11
          program call               : /lustre/hpc/kemi/ree/PhD/git/ReactivityQM/dep/xtb-6.5.1/bin/xtb --gfn 1 /lustre/hpc/kemi/ree/PhD/git/ReactivityQM/calculations/R03/reac02prodN08/conf14/R03_reac02prodN08_conf14_gfn1.xyz --opt --vfukui --chrg 1 --uhf 0 --alpb DMSO

   ID    Z sym.   atoms
    1    6 C      1, 3, 4, 6, 8-11, 13, 15, 18, 19, 22, 23, 25
    2    8 O      2, 5, 14, 20, 24, 26
    3    7 N      7, 12, 16, 17, 21
    4    1 H      27-46

      * Solvation model:               ALPB
        Solvent                        DMSO
        Solvent mass                       7.8130E+01 g/mol
          :  Hamiltonian                  GFN1-xTB          :
 * total energy  :   -86.1918164 Eh     change       -0.4422418E-10 Eh
 * total energy  :   -86.2081304 Eh     change       -0.1631403E-01 Eh
 * total energy  :   -86.2170784 Eh     change       -0.8947926E-02 Eh
 * total energy  :   -86.2194845 Eh     change       -0.2406127E-02 Eh
 * total energy  :   -86.2218616 Eh     change       -0.2377152E-02 Eh
 * total energy  :   -86.2236666 Eh     change       -0.1804971E-02 Eh
 * total energy  :   -86.2254703 Eh     change       -0.1803728E-02 Eh
 * total energy  :   -86.2275743 Eh     change       -0.2103981E-02 Eh
 * total energy  :   -86.2304032 Eh     change       -0.2828857E-02 Eh
 * total energy  :   -86.2346659 Eh     change       -0.4262692E-02 Eh
 * total energy  :   -86.3140537 Eh     change       -0.1047307E-04 Eh
 * total energy  :   -86.3140644 Eh     change       -0.1069843E-04 Eh
 * total energy  :   -86.3140752 Eh     change       -0.1075688E-04 Eh
 * total energy  :   -86.3140815 Eh     change       -0.6330704E-05 Eh
 * total energy  :   -86.3140888 Eh     change       -0.7350926E-05 Eh
 * total energy  :   -86.3140957 Eh     change       -0.6872672E-05 Eh
 * total energy  :   -86.3141017 Eh     change       -0.5988045E-05 Eh
 * total energy  :   -86.3141081 Eh     change       -0.6381572E-05 Eh
 * total energy  :   -86.3141130 Eh     change       -0.4960812E-05 Eh
   *** GEOMETRY OPTIMIZATION CONVERGED AFTER 99 ITERATIONS ***

 final structure:
================
46
 xtb: 6.5.1 (579679a)
C           -4.05882091867505        3.20517480759176        1.11191486852043
O           -3.90547189011739        1.84549207309903        0.63373503126340
C           -2.73354969493520        1.32483679065818        0.54392079078291
C           -4.16943261187467       -0.82046155773190        0.56979644899934
O           -1.66123442175132        1.77703485935888        0.77520641242818
C           -2.87613782397506       -0.22579434971067        0.01398720291038
N           -1.72972732741591       -0.87261910962423        0.53192821995194
C           -0.61872745158950       -0.94601207127857       -0.09819289778358
C            0.50475707514078       -1.65805315057897        0.64473218570093
C            0.18912725500939       -1.68002105711875        2.14733515559318
C            0.60103242328661       -3.09485278201613        0.10759307128290
N            1.74599937850574       -0.91308335238633        0.44505948604269
C            2.95743624249979       -1.35835870295946        0.87193517724706
O            3.18436476140176       -2.45954007261317        1.33436269997003
C            4.01581434094300       -0.34157280370268        0.67007236578511
N            5.26909684243057       -0.41992185686052        0.98970026218674
N            5.84755389819920        0.75060629976050        0.60475694971797
C            4.91287544766958        1.47351639629880        0.07108620244342
C            5.03276799356388        2.83041796370722       -0.50319838868738
O            3.72674694277973        0.84112544942568        0.08091789208736
N           -0.45738076728961       -0.49103548418915       -1.40989149566036
C            0.81706573429762       -0.49680576878129       -2.13791507608152
C           -1.51498453781677       -0.00917411536455       -2.12492322966980
O           -1.47798504637092        0.35926784579745       -3.28337256008688
C           -2.81468702977337        0.02216897591054       -1.40716556235473
O           -3.83471805851488        0.38387545151718       -2.08552380657775
H           -4.73368956708306        3.16784469801501        1.96586028676846
H           -3.08848828624061        3.61128509783457        1.39547178945011
H           -4.50066304658634        3.78081161465506        0.29976092097161
H           -5.02924258427121       -0.31474865584566        0.13755587113959
H           -4.18311816664493       -0.71658739684611        1.65226053363242
H           -4.19826991559411       -1.87704108039868        0.31029708551708
H            1.01659975612540       -2.14600809927789        2.68015648633984
H           -0.72016375628599       -2.24883407763035        2.32878238980415
H            0.05071729980105       -0.66368991713643        2.51139801144867
H           -0.38688576067037       -3.55061338699395        0.14680466907831
H            1.28280410933904       -3.67656026524248        0.72515104226560
H            0.95547117425902       -3.11098472825977       -0.92026640602099
H            1.65549150894524        0.07753169273752        0.29066079497704
H            4.34479410987538        3.50819672189237        0.00176391575122
H            4.76691882233461        2.81051564528655       -1.56004585238735
H            6.05354202736534        3.18876691385372       -0.38926733015476
H            1.40568073304472       -1.36435884529288       -1.86250460429867
H            0.58933136772809       -0.51962900983182       -3.20257946159738
H            1.36475752959273        0.41487512278968       -1.90256088239010
H           -3.59737011067256        0.60301827748714       -3.01827266631240

          :  Hamiltonian                  GFN1-xTB          :
         :: total energy             -86.314113036666 Eh    ::
         :: gradient norm              0.000491064502 Eh/a0 ::
         :: HOMO-LUMO gap              0.946699450748 eV    ::
         :: SCC energy               -87.149908435018 Eh    ::
         :: -> Gsolv                  -0.114221342733 Eh    ::
         :: repulsion energy           0.866203157153 Eh    ::

    * Orbital Energies and Occupations

         #    Occupation            Energy/Eh            Energy/eV
      -------------------------------------------------------------
         1        2.0000           -0.9129630             -24.8430
       ...           ...                  ...                  ...
        58        2.0000           -0.5288881             -14.3918
        59        2.0000           -0.5260432             -14.3144
        60        2.0000           -0.5216675             -14.1953
        61        2.0000           -0.5126480             -13.9499
        62        2.0000           -0.5108447             -13.9008
        63        2.0000           -0.5087770             -13.8445
        64        2.0000           -0.4920942             -13.3906
        65        2.0000           -0.4867548             -13.2453
        66        2.0000           -0.4844354             -13.1822
        67        2.0000           -0.4745720             -12.9138
        68        2.0000           -0.4680861             -12.7373
        69        2.0000           -0.4580784             -12.4649
        70        2.0000           -0.4562948             -12.4164 (HOMO)
        71                         -0.4215042             -11.4697 (LUMO)
        72                         -0.3337375              -9.0815
        73                         -0.3198926              -8.7047
        74                         -0.3070459              -8.3551
        75                         -0.2661578              -7.2425
        76                         -0.2615754              -7.1178
        77                         -0.2073113              -5.6412
        78                         -0.1647436              -4.4829
        79                         -0.1558693              -4.2414
        80                         -0.1512497              -4.1157
        81                         -0.1492159              -4.0604
       ...                                ...                  ...
       144                          0.7571841              20.6040
      -------------------------------------------------------------
                  HL-Gap            0.0347906 Eh            0.9467 eV

Wiberg/Mayer (AO) data.
largest (>0.10) Wiberg bond orders for each atom

     #   Z sym  total        # sym  WBO       # sym  WBO       # sym  WBO
 ---------------------------------------------------------------------------
     1   6 C    3.810 --    28 H    0.981    27 H    0.977    29 H    0.974
                             2 O    0.830
     2   8 O    2.273 --     3 C    1.232     1 C    0.830     5 O    0.151
     3   6 C    3.859 --     5 O    1.748     2 O    1.232     6 C    0.684
     4   6 C    3.967 --    31 H    0.981    30 H    0.981    32 H    0.974
                             6 C    0.956
     5   8 O    2.078 --     3 C    1.748     2 O    0.151
     6   6 C    3.955 --    25 C    1.107     7 N    1.030     4 C    0.956
                             3 C    0.684
     7   7 N    3.037 --     8 C    1.691     6 C    1.030
     8   6 C    3.911 --     7 N    1.691    21 N    1.088     9 C    0.975
     9   6 C    3.933 --    10 C    0.986     8 C    0.975    11 C    0.974
                            12 N    0.932
    10   6 C    3.985 --     9 C    0.986    35 H    0.984    34 H    0.983
                            33 H    0.981
    11   6 C    3.983 --    36 H    0.984    38 H    0.979    37 H    0.974
                             9 C    0.974
    12   7 N    3.321 --    13 C    1.218     9 C    0.932    39 H    0.894
                            14 O    0.167
    13   6 C    3.912 --    14 O    1.609    12 N    1.218    15 C    0.997
    14   8 O    1.922 --    13 C    1.609    12 N    0.167
    15   6 C    3.874 --    16 N    1.622    20 O    1.043    13 C    0.997
    16   7 N    3.003 --    15 C    1.622    17 N    1.201
    17   7 N    2.983 --    18 C    1.608    16 N    1.201
    18   6 C    3.866 --    17 N    1.608    20 O    1.070    19 C    1.033
    19   6 C    3.985 --    18 C    1.033    42 H    0.982    40 H    0.963
                            41 H    0.961
    20   8 O    2.314 --    18 C    1.070    15 C    1.043
    21   7 N    3.529 --    23 C    1.198     8 C    1.088    22 C    0.913
                            24 O    0.170
    22   6 C    3.895 --    43 H    0.974    44 H    0.970    45 H    0.964
                            21 N    0.913
    23   6 C    3.926 --    24 O    1.606    21 N    1.198    25 C    0.991
    24   8 O    1.968 --    23 C    1.606    21 N    0.170
    25   6 C    3.817 --    26 O    1.350     6 C    1.107    23 C    0.991
    26   8 O    2.275 --    25 C    1.350    46 H    0.742
    27   1 H    1.000 --     1 C    0.977
    28   1 H    0.998 --     1 C    0.981
    29   1 H    1.000 --     1 C    0.974
    30   1 H    1.000 --     4 C    0.981
    31   1 H    0.996 --     4 C    0.981
    32   1 H    0.995 --     4 C    0.974
    33   1 H    1.003 --    10 C    0.981
    34   1 H    1.008 --    10 C    0.983
    35   1 H    1.003 --    10 C    0.984
    36   1 H    1.000 --    11 C    0.984
    37   1 H    1.009 --    11 C    0.974
    38   1 H    1.000 --    11 C    0.979
    39   1 H    0.938 --    12 N    0.894
    40   1 H    0.996 --    19 C    0.963
    41   1 H    0.996 --    19 C    0.961
    42   1 H    0.998 --    19 C    0.982
    43   1 H    1.007 --    22 C    0.974
    44   1 H    0.997 --    22 C    0.970
    45   1 H    0.998 --    22 C    0.964
    46   1 H    0.791 --    26 O    0.742
 ---------------------------------------------------------------------------

           -------------------------------------------------
          | TOTAL ENERGY              -86.314113036666 Eh   |
          | GRADIENT NORM               0.000491064502 Eh/α |
          | HOMO-LUMO GAP               0.946699450748 eV   |
           -------------------------------------------------

 * finished run on 2023/06/20 at 15:43:13.864
