   * xtb version 6.5.1 (579679a) compiled by 'ehlert@majestix' on 2022-07-11
          program call               : /lustre/hpc/kemi/ree/PhD/git/ReactivityQM/dep/xtb-6.5.1/bin/xtb --gfn 1 /lustre/hpc/kemi/ree/PhD/git/ReactivityQM/calculations/R03/reac02prodE02/conf14/R03_reac02prodE02_conf14_gfn1.xyz --opt --vfukui --chrg -1 --uhf 0 --alpb DMSO

   ID    Z sym.   atoms
    1    6 C      1, 3, 4, 6, 8-11, 13, 15, 18, 19, 22, 23, 25
    2    8 O      2, 5, 14, 20, 24, 26
    3    7 N      7, 12, 16, 17, 21
    4    1 H      27-46

      * Solvation model:               ALPB
        Solvent                        DMSO
        Solvent mass                       7.8130E+01 g/mol
          :  Hamiltonian                  GFN1-xTB          :
 * total energy  :   -87.0236811 Eh     change       -0.1514593E-09 Eh
 * total energy  :   -87.0366854 Eh     change       -0.1300424E-01 Eh
 * total energy  :   -87.0418066 Eh     change       -0.5121253E-02 Eh
 * total energy  :   -87.0430340 Eh     change       -0.1227415E-02 Eh
 * total energy  :   -87.0437886 Eh     change       -0.7545990E-03 Eh
 * total energy  :   -87.0442879 Eh     change       -0.4992732E-03 Eh
 * total energy  :   -87.0446905 Eh     change       -0.4026217E-03 Eh
 * total energy  :   -87.0450110 Eh     change       -0.3204204E-03 Eh
 * total energy  :   -87.0452069 Eh     change       -0.1959699E-03 Eh
 * total energy  :   -87.0453295 Eh     change       -0.1226154E-03 Eh
 * total energy  :   -87.0472748 Eh     change       -0.1968269E-04 Eh
 * total energy  :   -87.0472924 Eh     change       -0.1765601E-04 Eh
 * total energy  :   -87.0472945 Eh     change       -0.2105315E-05 Eh
 * total energy  :   -87.0473087 Eh     change       -0.1412785E-04 Eh
 * total energy  :   -87.0473156 Eh     change       -0.6933637E-05 Eh
 * total energy  :   -87.0473271 Eh     change       -0.1146744E-04 Eh
 * total energy  :   -87.0473412 Eh     change       -0.1417354E-04 Eh
 * total energy  :   -87.0473448 Eh     change       -0.3544764E-05 Eh
 * total energy  :   -87.0473485 Eh     change       -0.3722848E-05 Eh
   *** GEOMETRY OPTIMIZATION CONVERGED AFTER 119 ITERATIONS ***

 final structure:
================
46
 xtb: 6.5.1 (579679a)
C           -3.43372339929583        2.83538255381367        1.18757075348277
O           -4.21652429145402        1.87824861146383        0.52597898010256
C           -3.85137630116082        0.44850971374782        0.88684894304077
C           -5.08314214890025       -0.35364604658383        0.33928956884799
O           -3.59221083533918        0.26912026220524        2.13167435542008
C           -2.63326083127983        0.10928755695975       -0.08880270373176
N           -1.56210643111443       -0.48593960113454        0.51375020834598
C           -0.50265452078076       -0.83666278488225       -0.13641838950489
C            0.59033687302643       -1.52510254706682        0.67650260610562
C            0.21744231628396       -1.47789668904812        2.16583236805365
C            0.74243721532347       -2.98710639223164        0.23272259676281
N            1.84506655650486       -0.77673316909276        0.49275271401881
C            3.02606755631654       -1.16137083437916        1.01508285975520
O            3.24002325330309       -2.20604732049944        1.60852877631507
C            4.10214046416489       -0.16135177703481        0.78260185032645
N            5.32521573233619       -0.20109544674907        1.21255670692236
N            5.93670445058904        0.93245044364091        0.76563448707110
C            5.04974156732488        1.59397798580328        0.08989456032478
C            5.21928682421463        2.89005449806333       -0.60167701903907
O            3.86645441446860        0.95804858588613        0.06321124041080
N           -0.38369012142719       -0.63471780540184       -1.49010836461186
C            0.76416610524657       -1.01323533528431       -2.31029374494097
C           -1.42502712647813       -0.06232817129464       -2.20855596405949
O           -1.34573310639569        0.10206817214899       -3.43218443007742
C           -2.58143187335055        0.31821014711252       -1.43724162231976
O           -3.59132904128001        0.87591775076922       -2.16191621642441
H           -3.35530274756246        2.62569101711338        2.26717034032903
H           -2.41113602383687        2.89065287245075        0.77527438358486
H           -3.90715196108841        3.81427329433985        1.05835033097965
H           -5.32349268813999       -0.07182976228013       -0.68316799626050
H           -5.93489446967791       -0.14116348145769        0.98399556671777
H           -4.85777820070012       -1.41759273373955        0.38476086714863
H            1.00025294935104       -1.95158798386707        2.75509406214539
H           -0.72122436017420       -2.00657767056915        2.32587669289601
H            0.09867155584700       -0.44481696915104        2.48949971627404
H           -0.24264659151327       -3.45110380244447        0.19797800638706
H            1.36221951092688       -3.53446504325806        0.94037173780555
H            1.19870990521435       -3.05933820092180       -0.75073039685125
H            1.78045481521215        0.16084906189059        0.13052856030134
H            4.50745885115836        3.61713857745225       -0.21188143093151
H            5.02926529915423        2.77073774882556       -1.66807194652885
H            6.23249257696734        3.25394264301550       -0.45194870829580
H            1.65837156754073       -1.12001834054688       -1.70762877871228
H            0.54785470673788       -1.94825308330275       -2.82854604023074
H            0.91993716190161       -0.22996262196572       -3.05239625754804
H           -3.30493715815807        0.91538311748798       -3.08947982980961

          :  Hamiltonian                  GFN1-xTB          :
         :: total energy             -87.047348492856 Eh    ::
         :: gradient norm              0.000756408836 Eh/a0 ::
         :: HOMO-LUMO gap              0.885960422643 eV    ::
         :: SCC energy               -87.845680804568 Eh    ::
         :: -> Gsolv                  -0.133649928566 Eh    ::
         :: repulsion energy           0.827761598462 Eh    ::

    * Orbital Energies and Occupations

         #    Occupation            Energy/Eh            Energy/eV
      -------------------------------------------------------------
         1        2.0000           -0.8628682             -23.4798
       ...           ...                  ...                  ...
        59        2.0000           -0.4610855             -12.5468
        60        2.0000           -0.4576510             -12.4533
        61        2.0000           -0.4561823             -12.4134
        62        2.0000           -0.4488268             -12.2132
        63        2.0000           -0.4422858             -12.0352
        64        2.0000           -0.4394308             -11.9575
        65        2.0000           -0.4358716             -11.8607
        66        2.0000           -0.4328002             -11.7771
        67        2.0000           -0.4146941             -11.2844
        68        2.0000           -0.3994095             -10.8685
        69        2.0000           -0.3912055             -10.6452
        70        2.0000           -0.3584179              -9.7530
        71        2.0000           -0.3393869              -9.2352 (HOMO)
        72                         -0.3068285              -8.3492 (LUMO)
        73                         -0.2718638              -7.3978
        74                         -0.2544115              -6.9229
        75                         -0.2458992              -6.6913
        76                         -0.1952911              -5.3141
        77                         -0.1406676              -3.8278
        78                         -0.1396539              -3.8002
        79                         -0.1311569              -3.5690
        80                         -0.1164872              -3.1698
        81                         -0.1066471              -2.9020
        82                         -0.1003773              -2.7314
       ...                                ...                  ...
       144                          0.7320215              19.9193
      -------------------------------------------------------------
                  HL-Gap            0.0325584 Eh            0.8860 eV

Wiberg/Mayer (AO) data.
largest (>0.10) Wiberg bond orders for each atom

     #   Z sym  total        # sym  WBO       # sym  WBO       # sym  WBO
 ---------------------------------------------------------------------------
     1   6 C    3.938 --    29 H    0.984     2 O    0.980    28 H    0.980
                            27 H    0.974
     2   8 O    1.941 --     1 C    0.980     3 C    0.778
     3   6 C    3.897 --     5 O    1.270     4 C    0.926     6 C    0.870
                             2 O    0.778
     4   6 C    3.991 --    32 H    0.989    30 H    0.988    31 H    0.986
                             3 C    0.926
     5   8 O    1.541 --     3 C    1.270
     6   6 C    3.913 --    25 C    1.516     7 N    1.207     3 C    0.870
     7   7 N    3.041 --     8 C    1.576     6 C    1.207
     8   6 C    3.937 --     7 N    1.576    21 N    1.163     9 C    0.974
     9   6 C    3.929 --    10 C    0.991    11 C    0.986     8 C    0.974
                            12 N    0.912
    10   6 C    3.990 --     9 C    0.991    35 H    0.984    33 H    0.984
                            34 H    0.984
    11   6 C    3.990 --     9 C    0.986    36 H    0.985    38 H    0.981
                            37 H    0.979
    12   7 N    3.359 --    13 C    1.262     9 C    0.912    39 H    0.897
                            14 O    0.177
    13   6 C    3.918 --    14 O    1.583    12 N    1.262    15 C    0.989
    14   8 O    1.900 --    13 C    1.583    12 N    0.177
    15   6 C    3.870 --    16 N    1.625    20 O    1.047    13 C    0.989
    16   7 N    2.998 --    15 C    1.625    17 N    1.196
    17   7 N    2.981 --    18 C    1.613    16 N    1.196
    18   6 C    3.869 --    17 N    1.613    20 O    1.072    19 C    1.032
    19   6 C    3.987 --    18 C    1.032    42 H    0.983    40 H    0.964
                            41 H    0.963
    20   8 O    2.315 --    18 C    1.072    15 C    1.047
    21   7 N    3.493 --     8 C    1.163    23 C    1.114    22 C    0.937
                            24 O    0.124
    22   6 C    3.934 --    43 H    0.979    44 H    0.977    45 H    0.975
                            21 N    0.937
    23   6 C    3.911 --    24 O    1.506    25 C    1.128    21 N    1.114
    24   8 O    1.854 --    23 C    1.506    21 N    0.124
    25   6 C    3.912 --     6 C    1.516    23 C    1.128    26 O    1.043
    26   8 O    2.032 --    25 C    1.043    46 H    0.828
    27   1 H    1.036 --     1 C    0.974
    28   1 H    1.018 --     1 C    0.980
    29   1 H    1.023 --     1 C    0.984
    30   1 H    1.019 --     4 C    0.988
    31   1 H    1.019 --     4 C    0.986
    32   1 H    1.016 --     4 C    0.989
    33   1 H    1.008 --    10 C    0.984
    34   1 H    1.015 --    10 C    0.984
    35   1 H    1.012 --    10 C    0.984
    36   1 H    1.003 --    11 C    0.985
    37   1 H    1.013 --    11 C    0.979
    38   1 H    1.003 --    11 C    0.981
    39   1 H    0.943 --    12 N    0.897
    40   1 H    0.997 --    19 C    0.964
    41   1 H    0.997 --    19 C    0.963
    42   1 H    0.999 --    19 C    0.983
    43   1 H    1.010 --    22 C    0.979
    44   1 H    1.005 --    22 C    0.977
    45   1 H    1.010 --    22 C    0.975
    46   1 H    0.871 --    26 O    0.828
 ---------------------------------------------------------------------------

           -------------------------------------------------
          | TOTAL ENERGY              -87.047348492856 Eh   |
          | GRADIENT NORM               0.000756408836 Eh/α |
          | HOMO-LUMO GAP               0.885960422643 eV   |
           -------------------------------------------------

 * finished run on 2023/06/20 at 15:15:48.918
