   * xtb version 6.5.1 (579679a) compiled by 'ehlert@majestix' on 2022-07-11
          program call               : /lustre/hpc/kemi/ree/PhD/git/ReactivityQM/dep/xtb-6.5.1/bin/xtb --gfn 1 /lustre/hpc/kemi/ree/PhD/git/ReactivityQM/calculations/R03/reac02prodE12/conf19/R03_reac02prodE12_conf19_gfn1.xyz --opt --vfukui --chrg -1 --uhf 0 --alpb DMSO

   ID    Z sym.   atoms
    1    6 C      1, 3, 5, 6, 8, 9, 12-16, 18, 20, 23, 24
    2    8 O      2, 4, 7, 10, 19, 25
    3    7 N      11, 17, 21, 22, 26
    4    1 H      27-46

      * Solvation model:               ALPB
        Solvent                        DMSO
        Solvent mass                       7.8130E+01 g/mol
          :  Hamiltonian                  GFN1-xTB          :
 * total energy  :   -87.0242082 Eh     change       -0.4044409E-10 Eh
 * total energy  :   -87.0381043 Eh     change       -0.1389611E-01 Eh
 * total energy  :   -87.0438724 Eh     change       -0.5768029E-02 Eh
 * total energy  :   -87.0451571 Eh     change       -0.1284707E-02 Eh
 * total energy  :   -87.0461571 Eh     change       -0.1000050E-02 Eh
 * total energy  :   -87.0471178 Eh     change       -0.9606523E-03 Eh
 * total energy  :   -87.0494658 Eh     change       -0.2348045E-02 Eh
 * total energy  :   -87.0483543 Eh     change        0.1111497E-02 Eh
 * total energy  :   -87.0538440 Eh     change       -0.5489693E-02 Eh
 * total energy  :   -87.0571551 Eh     change       -0.3311080E-02 Eh
 * total energy  :   -87.0725948 Eh     change       -0.2173403E-04 Eh
 * total energy  :   -87.0726170 Eh     change       -0.2222114E-04 Eh
 * total energy  :   -87.0726298 Eh     change       -0.1284447E-04 Eh
 * total energy  :   -87.0726368 Eh     change       -0.6989111E-05 Eh
 * total energy  :   -87.0726527 Eh     change       -0.1592574E-04 Eh
 * total energy  :   -87.0726598 Eh     change       -0.7096279E-05 Eh
 * total energy  :   -87.0726700 Eh     change       -0.1017441E-04 Eh
 * total energy  :   -87.0726771 Eh     change       -0.7102199E-05 Eh
 * total energy  :   -87.0726816 Eh     change       -0.4446678E-05 Eh
   *** GEOMETRY OPTIMIZATION CONVERGED AFTER 36 ITERATIONS ***

 final structure:
================
46
 xtb: 6.5.1 (579679a)
C           -5.61472265071411       -1.21028437215875        2.63145700346495
O           -4.79169545930476       -1.04875728738800        1.48807500489826
C           -3.66612864296863       -0.28734254946475        1.67200448593392
O           -3.42862385942686        0.19836166981643        2.77758903405354
C           -2.85981214764489       -0.13441466018923        0.49326196434834
C           -3.11295660772869       -0.70295346861660       -0.75750758222066
O           -3.98154352477823       -1.52913851062250       -1.09742720872165
C           -2.17581728541113       -0.20438126446061       -1.89611550463938
C           -2.70791386956777        1.13789454156659       -2.44488961680114
O           -2.19506074331004       -1.16991168869811       -2.91140456751574
N           -0.81342031317386       -0.05944860494607       -1.36679804490869
C            0.20875636608621        0.03497386749848       -2.40477405801002
C           -0.74970495396256        0.65934102754945       -0.16916331127847
C            0.51385325379869        1.41379691229871        0.24784030980109
C            0.33212160953784        1.94700696228620        1.67784974024225
C            0.82045514019944        2.59153293352595       -0.68960460830420
N            1.62564874924350        0.44717791331283        0.26194473631847
C            2.91113909329429        0.77589082071197        0.47063014627562
O            3.35835333454234        1.90598071076254        0.58074962041631
C            3.76113760750699       -0.44723406224988        0.53623037469705
N            3.34477288762908       -1.67316530772415        0.43225695579440
N            4.44252478946844       -2.47370737777319        0.55395823552897
C            5.45735200956528       -1.68359272906011        0.72607596936856
C            6.87394630078926       -2.06343543725533        0.92152884564846
O            5.09267340761207       -0.39260685071955        0.72536854831194
N           -1.69991362658290        0.64324845295417        0.68796336620122
H           -5.98372631227757       -0.24258059652917        2.98807581964024
H           -6.45743462713426       -1.83512967626002        2.33597512637506
H           -5.06538910193914       -1.69634010919888        3.44517790718343
H           -2.93173489429292       -1.77757265650949       -2.67562030451339
H           -2.13913139993780        1.43807478828630       -3.32260827311263
H           -3.75024301754734        1.00985434746279       -2.73174823505548
H           -2.63472701379718        1.91290051757700       -1.68407349603776
H            0.07084739173841       -0.79919783968161       -3.09411890962296
H            1.20036665051263       -0.04641867596838       -1.96564667952128
H            0.13728711373123        0.96983680285948       -2.96923832844755
H           -0.49358707249765        2.65667364662832        1.69852109260580
H            0.10733617692657        1.12837796320162        2.36064505385217
H            1.24242004145355        2.44701473821367        2.00443913196099
H           -0.11233498022139        3.08061558240457       -0.96651391895178
H            1.32966806447415        2.26444340302891       -1.59157985195593
H            1.45856162145857        3.31789992546623       -0.18927359296715
H            1.38807723207215       -0.53489995343612        0.28380647852323
H            7.00457637578038       -3.11902363018693        0.69642340523947
H            7.51439503057611       -1.46509906954137        0.27522095998446
H            7.16935285621802       -1.87873614877208        1.95503377591932

          :  Hamiltonian                  GFN1-xTB          :
         :: total energy             -87.072681550240 Eh    ::
         :: gradient norm              0.000837985183 Eh/a0 ::
         :: HOMO-LUMO gap              1.092944277362 eV    ::
         :: SCC energy               -87.867080741170 Eh    ::
         :: -> Gsolv                  -0.113681084663 Eh    ::
         :: repulsion energy           0.824171945695 Eh    ::

    * Orbital Energies and Occupations

         #    Occupation            Energy/Eh            Energy/eV
      -------------------------------------------------------------
         1        2.0000           -0.8594193             -23.3860
       ...           ...                  ...                  ...
        59        2.0000           -0.4696707             -12.7804
        60        2.0000           -0.4660999             -12.6832
        61        2.0000           -0.4572754             -12.4431
        62        2.0000           -0.4548589             -12.3773
        63        2.0000           -0.4541220             -12.3573
        64        2.0000           -0.4494235             -12.2294
        65        2.0000           -0.4439309             -12.0800
        66        2.0000           -0.4337411             -11.8027
        67        2.0000           -0.4263134             -11.6006
        68        2.0000           -0.4136150             -11.2550
        69        2.0000           -0.3911670             -10.6442
        70        2.0000           -0.3778295             -10.2813
        71        2.0000           -0.3430066              -9.3337 (HOMO)
        72                         -0.3028417              -8.2407 (LUMO)
        73                         -0.2533397              -6.8937
        74                         -0.2359761              -6.4212
        75                         -0.2217773              -6.0349
        76                         -0.1912458              -5.2041
        77                         -0.1412225              -3.8429
        78                         -0.1231643              -3.3515
        79                         -0.1185298              -3.2254
        80                         -0.1172372              -3.1902
        81                         -0.1124737              -3.0606
        82                         -0.1026894              -2.7943
       ...                                ...                  ...
       144                          0.7319369              19.9170
      -------------------------------------------------------------
                  HL-Gap            0.0401650 Eh            1.0929 eV

Wiberg/Mayer (AO) data.
largest (>0.10) Wiberg bond orders for each atom

     #   Z sym  total        # sym  WBO       # sym  WBO       # sym  WBO
 ---------------------------------------------------------------------------
     1   6 C    3.906 --    28 H    0.987    27 H    0.981    29 H    0.981
                             2 O    0.934
     2   8 O    2.132 --     3 C    1.013     1 C    0.934
     3   6 C    3.854 --     4 O    1.545     5 C    1.173     2 O    1.013
     4   8 O    1.832 --     3 C    1.545
     5   6 C    3.890 --     6 C    1.333     3 C    1.173    26 N    1.061
                             7 O    0.118
     6   6 C    3.928 --     7 O    1.511     5 C    1.333     8 C    0.908
     7   8 O    1.863 --     6 C    1.511     5 C    0.118
     8   6 C    3.882 --    10 O    0.971     9 C    0.968    11 N    0.923
                             6 C    0.908
     9   6 C    3.994 --    33 H    0.987    32 H    0.985    31 H    0.983
                             8 C    0.968
    10   8 O    1.902 --     8 C    0.971    30 H    0.819
    11   7 N    3.240 --    13 C    1.089    12 C    0.959     8 C    0.923
                            26 N    0.144
    12   6 C    3.963 --    35 H    0.982    34 H    0.981    36 H    0.978
                            11 N    0.959
    13   6 C    3.944 --    26 N    1.674    11 N    1.089    14 C    0.968
    14   6 C    3.923 --    15 C    0.991    16 C    0.989    13 C    0.968
                            17 N    0.906
    15   6 C    3.994 --    14 C    0.991    39 H    0.985    37 H    0.985
                            38 H    0.984
    16   6 C    3.992 --    14 C    0.989    40 H    0.986    41 H    0.981
                            42 H    0.981
    17   7 N    3.370 --    18 C    1.275    14 C    0.906    43 H    0.899
                            19 O    0.183
    18   6 C    3.921 --    19 O    1.581    17 N    1.275    20 C    0.982
    19   8 O    1.898 --    18 C    1.581    17 N    0.183
    20   6 C    3.871 --    21 N    1.615    25 O    1.063    18 C    0.982
    21   7 N    3.014 --    20 C    1.615    22 N    1.194
    22   7 N    2.980 --    23 C    1.611    21 N    1.194
    23   6 C    3.873 --    22 N    1.611    25 O    1.081    24 C    1.030
    24   6 C    3.987 --    23 C    1.030    44 H    0.982    45 H    0.969
                            46 H    0.960
    25   8 O    2.328 --    23 C    1.081    20 C    1.063
    26   7 N    3.021 --    13 C    1.674     5 C    1.061    11 N    0.144
    27   1 H    1.016 --     1 C    0.981
    28   1 H    1.017 --     1 C    0.987
    29   1 H    1.016 --     1 C    0.981
    30   1 H    0.888 --    10 O    0.819
    31   1 H    1.007 --     9 C    0.983
    32   1 H    1.008 --     9 C    0.985
    33   1 H    1.007 --     9 C    0.987
    34   1 H    1.019 --    12 C    0.981
    35   1 H    1.015 --    12 C    0.982
    36   1 H    1.008 --    12 C    0.978
    37   1 H    1.016 --    15 C    0.985
    38   1 H    1.019 --    15 C    0.984
    39   1 H    1.008 --    15 C    0.985
    40   1 H    1.006 --    16 C    0.986
    41   1 H    1.007 --    16 C    0.981
    42   1 H    1.014 --    16 C    0.981
    43   1 H    0.961 --    17 N    0.899
    44   1 H    0.999 --    24 C    0.982
    45   1 H    0.997 --    24 C    0.969
    46   1 H    0.997 --    24 C    0.960
 ---------------------------------------------------------------------------

           -------------------------------------------------
          | TOTAL ENERGY              -87.072681550240 Eh   |
          | GRADIENT NORM               0.000837985183 Eh/α |
          | HOMO-LUMO GAP               1.092944277362 eV   |
           -------------------------------------------------

 * finished run on 2023/06/20 at 15:32:29.747
