                         Program Version 5.0.1 -  RELEASE  -
|  1> # ORCA input file
|  2> ! SP r2SCAN-3c CPCM
|  3>
|  4> %maxcore 1875.0
|  5> %pal nprocs 4 end
|  6> %cpcm smd true SMDsolvent "DMSO" end
|  7>
|  8> *xyz 1 1
|  9> C      -0.716712    0.112429    2.083125
| 10> C       0.299387   -0.020567    0.985640
| 11> C      -1.526438   -0.163547   -1.339676
| 12> N      -2.595368    0.468468   -1.026346
| 13> C       1.204508   -1.082853    0.983448
| 14> C       2.180749   -1.182428    0.004420
| 15> C       2.243071   -0.201130   -0.974332
| 16> F       3.191536   -0.289716   -1.913068
| 17> C       1.362101    0.860187   -1.014641
| 18> C       0.369712    0.936320   -0.034836
| 19> H      -1.578121    0.686384    1.743402
| 20> H      -0.272939    0.636376    2.933709
| 21> H      -1.050444   -0.867591    2.423800
| 22> H      -1.289180   -1.096247   -0.848682
| 23> H      -0.931961    0.166333   -2.178649
| 24> H      -2.867059    1.319788   -1.494180
| 25> H      -3.203152    0.152991   -0.284980
| 26> H       1.146369   -1.836923    1.759771
| 27> H       2.886907   -2.003416   -0.003305
| 28> H       1.436588    1.610682   -1.790459
| 29> H      -0.289554    1.794463   -0.014162
| 30> **                         ****END OF INPUT****

CARTESIAN COORDINATES (ANGSTROEM)
---------------------------------
  C     -0.716712    0.112429    2.083125
  C      0.299387   -0.020567    0.985640
  C     -1.526438   -0.163547   -1.339676
  N     -2.595368    0.468468   -1.026346
  C      1.204508   -1.082853    0.983448
  C      2.180749   -1.182428    0.004420
  C      2.243071   -0.201130   -0.974332
  F      3.191536   -0.289716   -1.913068
  C      1.362101    0.860187   -1.014641
  C      0.369712    0.936320   -0.034836
  H     -1.578121    0.686384    1.743402
  H     -0.272939    0.636376    2.933709
  H     -1.050444   -0.867591    2.423800
  H     -1.289180   -1.096247   -0.848682
  H     -0.931961    0.166333   -2.178649
  H     -2.867059    1.319788   -1.494180
  H     -3.203152    0.152991   -0.284980
  H      1.146369   -1.836923    1.759771
  H      2.886907   -2.003416   -0.003305
  H      1.436588    1.610682   -1.790459
  H     -0.289554    1.794463   -0.014162

 Total Charge           Charge          ....    1
 Multiplicity           Mult            ....    1
 Number of Electrons    NEL             ....   74
 Basis Dimension        Dim             ....  255

ORBITAL ENERGIES
----------------

  NO   OCC          E(Eh)            E(eV)
   0   2.0000     -24.507399      -666.8802
   1   2.0000     -14.256380      -387.9358
   2   2.0000     -10.144888      -276.0564
   3   2.0000     -10.124306      -275.4964
   4   2.0000     -10.056464      -273.6503
   5   2.0000     -10.050841      -273.4973
   6   2.0000     -10.049597      -273.4634
   7   2.0000     -10.048771      -273.4410
   8   2.0000     -10.045542      -273.3531
   9   2.0000     -10.025975      -272.8206
  10   2.0000      -1.200491       -32.6670
  11   2.0000      -0.966760       -26.3069
  12   2.0000      -0.842690       -22.9308
  13   2.0000      -0.749761       -20.4020
  14   2.0000      -0.734401       -19.9841
  15   2.0000      -0.678089       -18.4517
  16   2.0000      -0.657044       -17.8791
  17   2.0000      -0.600741       -16.3470
  18   2.0000      -0.571166       -15.5422
  19   2.0000      -0.566535       -15.4162
  20   2.0000      -0.521601       -14.1935
  21   2.0000      -0.515399       -14.0247
  22   2.0000      -0.470187       -12.7944
  23   2.0000      -0.447259       -12.1705
  24   2.0000      -0.441809       -12.0222
  25   2.0000      -0.417253       -11.3540
  26   2.0000      -0.408814       -11.1244
  27   2.0000      -0.405227       -11.0268
  28   2.0000      -0.397488       -10.8162
  29   2.0000      -0.384155       -10.4534
  30   2.0000      -0.377533       -10.2732
  31   2.0000      -0.345138        -9.3917
  32   2.0000      -0.335945        -9.1415
  33   2.0000      -0.330280        -8.9874
  34   2.0000      -0.316513        -8.6127
  35   2.0000      -0.253699        -6.9035
  36   2.0000      -0.228401        -6.2151
  37   0.0000      -0.109923        -2.9911
  38   0.0000      -0.045763        -1.2453
  39   0.0000      -0.032416        -0.8821
  40   0.0000       0.055486         1.5099
  41   0.0000       0.072567         1.9747

MULLIKEN ATOMIC CHARGES
-----------------------
   0 C :   -0.519082
   1 C :    0.092606
   2 C :   -0.031616
   3 N :   -0.236116
   4 C :   -0.176869
   5 C :   -0.268508
   6 C :    0.348197
   7 F :   -0.229995
   8 C :   -0.276438
   9 C :   -0.211649
  10 H :    0.169456
  11 H :    0.191977
  12 H :    0.176707
  13 H :    0.243905
  14 H :    0.232089
  15 H :    0.343708
  16 H :    0.344490
  17 H :    0.190829
  18 H :    0.200215
  19 H :    0.201835
  20 H :    0.214258
Sum of atomic charges:    1.0000000

LOEWDIN ATOMIC CHARGES
----------------------
   0 C :   -0.389362
   1 C :   -0.107115
   2 C :    0.205872
   3 N :   -0.349581
   4 C :   -0.149564
   5 C :   -0.139875
   6 C :    0.196939
   7 F :   -0.291266
   8 C :   -0.151704
   9 C :   -0.162090
  10 H :    0.169879
  11 H :    0.177893
  12 H :    0.172103
  13 H :    0.227224
  14 H :    0.226655
  15 H :    0.294088
  16 H :    0.294449
  17 H :    0.187551
  18 H :    0.196019
  19 H :    0.197420
  20 H :    0.194466

  Mayer bond orders larger than 0.100000
B(  0-C ,  1-C ) :   0.8271 B(  0-C , 10-H ) :   0.9771 B(  0-C , 11-H ) :   0.9539
B(  0-C , 12-H ) :   0.9845 B(  1-C ,  4-C ) :   1.3544 B(  1-C ,  9-C ) :   1.2934
B(  2-C ,  3-N ) :   1.6186 B(  2-C , 13-H ) :   0.9254 B(  2-C , 14-H ) :   0.9266
B(  3-N , 15-H ) :   0.8728 B(  3-N , 16-H ) :   0.8713 B(  4-C ,  5-C ) :   1.4068
B(  4-C , 17-H ) :   0.9458 B(  5-C ,  6-C ) :   1.3824 B(  5-C , 18-H ) :   0.9352
B(  6-C ,  7-F ) :   0.8887 B(  6-C ,  8-C ) :   1.4091 B(  8-C ,  9-C ) :   1.3445
B(  8-C , 19-H ) :   0.9394 B(  9-C , 20-H ) :   0.9483

Dispersion correction           -0.007136261
FINAL SINGLE POINT ENERGY      -465.801527092490

DIPOLE MOMENT
-------------
                                X             Y             Z
Electronic contribution:      8.93159      -0.71440      -7.18519
Nuclear contribution   :    -14.19564       1.28731       6.56497
                        -----------------------------------------
Total Dipole Moment    :     -5.26405       0.57290      -0.62021
                        -----------------------------------------
Magnitude (a.u.)       :      5.33133
Magnitude (Debye)      :     13.55116

Rotational constants in cm-1:     0.062487     0.030511     0.023606
Rotational constants in MHz :  1873.307003   914.693715   707.687827

                             ****ORCA TERMINATED NORMALLY****
TOTAL RUN TIME: 0 days 0 hours 0 minutes 19 seconds 586 msec
