   * xtb version 6.5.1 (579679a) compiled by 'ehlert@majestix' on 2022-07-11
          program call               : /lustre/hpc/kemi/ree/PhD/git/ReactivityQM/dep/xtb-6.5.1/bin/xtb --gfn 1 /lustre/hpc/kemi/ree/PhD/git/ReactivityQM/calculations/R03/reac01prodN02/conf05/R03_reac01prodN02_conf05_gfn1.xyz --opt --vfukui --chrg 1 --uhf 0 --alpb DMSO

   ID    Z sym.   atoms
    1    6 C      1-3, 5-7, 9, 10
    2    7 N      4
    3    9 F      8
    4    1 H      11-21

      * Solvation model:               ALPB
        Solvent                        DMSO
        Solvent mass                       7.8130E+01 g/mol
          :  Hamiltonian                  GFN1-xTB          :
 * total energy  :   -30.7612005 Eh     change       -0.3832312E-10 Eh
 * total energy  :   -30.7666791 Eh     change       -0.5478580E-02 Eh
 * total energy  :   -30.7690709 Eh     change       -0.2391837E-02 Eh
 * total energy  :   -30.7696422 Eh     change       -0.5712577E-03 Eh
 * total energy  :   -30.7709548 Eh     change       -0.1312589E-02 Eh
 * total energy  :   -30.7719595 Eh     change       -0.1004736E-02 Eh
 * total energy  :   -30.7721268 Eh     change       -0.1672429E-03 Eh
 * total energy  :   -30.7737294 Eh     change       -0.1602605E-02 Eh
 * total energy  :   -30.7744291 Eh     change       -0.6997139E-03 Eh
 * total energy  :   -30.7748559 Eh     change       -0.4268443E-03 Eh
 * total energy  :   -30.7818445 Eh     change       -0.6707402E-05 Eh
 * total energy  :   -30.7818485 Eh     change       -0.3977907E-05 Eh
 * total energy  :   -30.7818689 Eh     change       -0.2038044E-04 Eh
 * total energy  :   -30.7818809 Eh     change       -0.1205648E-04 Eh
 * total energy  :   -30.7818907 Eh     change       -0.9767126E-05 Eh
 * total energy  :   -30.7819057 Eh     change       -0.1499975E-04 Eh
 * total energy  :   -30.7819119 Eh     change       -0.6188911E-05 Eh
 * total energy  :   -30.7819169 Eh     change       -0.5044855E-05 Eh
 * total energy  :   -30.7819202 Eh     change       -0.3260349E-05 Eh
   *** GEOMETRY OPTIMIZATION CONVERGED AFTER 89 ITERATIONS ***

 final structure:
================
21
 xtb: 6.5.1 (579679a)
C           -0.71671194732631        0.11242858566570        2.08312539292317
C            0.29938684115248       -0.02056736015184        0.98564029149294
C           -1.52643763354444       -0.16354749484050       -1.33967614884912
N           -2.59536820817557        0.46846803955863       -1.02634610534708
C            1.20450802122297       -1.08285312083721        0.98344794594718
C            2.18074853568616       -1.18242812595959        0.00441988279118
C            2.24307087268962       -0.20112963246674       -0.97433244339341
F            3.19153620886241       -0.28971623655654       -1.91306811772458
C            1.36210108069852        0.86018711282299       -1.01464071955647
C            0.36971209554412        0.93631991245097       -0.03483597991723
H           -1.57812124214485        0.68638366167606        1.74340219853663
H           -0.27293910580634        0.63637598001302        2.93370938809075
H           -1.05044369343532       -0.86759087718758        2.42380030472298
H           -1.28918046089890       -1.09624735299116       -0.84868230701121
H           -0.93196114843062        0.16633265572400       -2.17864945245701
H           -2.86705900147216        1.31978802605652       -1.49417987295146
H           -3.20315158439166        0.15299115254764       -0.28497958933861
H            1.14636925190974       -1.83692279346739        1.75977140600384
H            2.88690719094735       -2.00341575659505       -0.00330459040669
H            1.43658792738400        1.61068212601636       -1.79045900969377
H           -0.28955400047209        1.79446349852002       -0.01416247386193

          :  Hamiltonian                  GFN1-xTB          :
         :: total energy             -30.781920210352 Eh    ::
         :: gradient norm              0.000882125560 Eh/a0 ::
         :: HOMO-LUMO gap              1.746565389084 eV    ::
         :: SCC energy               -31.215408514277 Eh    ::
         :: -> Gsolv                  -0.105329674656 Eh    ::
         :: repulsion energy           0.444120646235 Eh    ::

    * Orbital Energies and Occupations

         #    Occupation            Energy/Eh            Energy/eV
      -------------------------------------------------------------
         1        2.0000           -0.8856788             -24.1005
       ...           ...                  ...                  ...
        15        2.0000           -0.5939991             -16.1635
        16        2.0000           -0.5874147             -15.9844
        17        2.0000           -0.5737528             -15.6126
        18        2.0000           -0.5570760             -15.1588
        19        2.0000           -0.5554856             -15.1155
        20        2.0000           -0.5539779             -15.0745
        21        2.0000           -0.5476842             -14.9032
        22        2.0000           -0.5208103             -14.1720
        23        2.0000           -0.5185919             -14.1116
        24        2.0000           -0.5075862             -13.8121
        25        2.0000           -0.4900196             -13.3341
        26        2.0000           -0.4708418             -12.8123
        27        2.0000           -0.4513260             -12.2812 (HOMO)
        28                         -0.3871409             -10.5346 (LUMO)
        29                         -0.2912301              -7.9248
        30                         -0.2824845              -7.6868
        31                         -0.1843078              -5.0153
        32                         -0.1689306              -4.5968
        33                         -0.1633240              -4.4443
        34                         -0.1562155              -4.2508
        35                         -0.1364886              -3.7140
        36                         -0.1186606              -3.2289
        37                         -0.1088846              -2.9629
        38                         -0.1057615              -2.8779
       ...                                ...                  ...
        62                          0.6234298              16.9644
      -------------------------------------------------------------
                  HL-Gap            0.0641851 Eh            1.7466 eV

Wiberg/Mayer (AO) data.
largest (>0.10) Wiberg bond orders for each atom

     #   Z sym  total        # sym  WBO       # sym  WBO       # sym  WBO
 ---------------------------------------------------------------------------
     1   6 C    3.993 --     2 C    1.028    11 H    0.981    13 H    0.979
                            12 H    0.961
     2   6 C    3.986 --     5 C    1.402    10 C    1.367     1 C    1.028
     3   6 C    3.857 --     4 N    1.754    14 H    0.966    15 H    0.965
     4   7 N    3.565 --     3 C    1.754    17 H    0.869    16 H    0.865
     5   6 C    3.993 --     6 C    1.456     2 C    1.402    18 H    0.970
                             9 C    0.108
     6   6 C    3.991 --     5 C    1.456     7 C    1.374    19 H    0.967
     7   6 C    3.867 --     9 C    1.420     6 C    1.374     8 F    0.938
     8   9 F    1.069 --     7 C    0.938
     9   6 C    3.991 --     7 C    1.420    10 C    1.391    20 H    0.967
                             5 C    0.108
    10   6 C    3.993 --     9 C    1.391     2 C    1.367    21 H    0.967
    11   1 H    1.001 --     1 C    0.981
    12   1 H    0.999 --     1 C    0.961
    13   1 H    1.000 --     1 C    0.979
    14   1 H    0.997 --     3 C    0.966
    15   1 H    0.999 --     3 C    0.965
    16   1 H    0.893 --     4 N    0.865
    17   1 H    0.900 --     4 N    0.869
    18   1 H    0.997 --     5 C    0.970
    19   1 H    0.995 --     6 C    0.967
    20   1 H    0.995 --     9 C    0.967
    21   1 H    1.000 --    10 C    0.967
 ---------------------------------------------------------------------------

           -------------------------------------------------
          | TOTAL ENERGY              -30.781920210352 Eh   |
          | GRADIENT NORM               0.000882125560 Eh/α |
          | HOMO-LUMO GAP               1.746565389084 eV   |
           -------------------------------------------------

 * finished run on 2023/06/20 at 15:14:12.960
