   * xtb version 6.5.1 (579679a) compiled by 'ehlert@majestix' on 2022-07-11
          program call               : /lustre/hpc/kemi/ree/PhD/git/ReactivityQM/dep/xtb-6.5.1/bin/xtb --gfn 1 /lustre/hpc/kemi/ree/PhD/git/ReactivityQM/calculations/R02/reac01prodN06/conf01/R02_reac01prodN06_conf01_gfn1.xyz --opt --vfukui --chrg 1 --uhf 0 --alpb DMSO

   ID    Z sym.   atoms
    1    6 C      1, 3, 5, 7-10, 12, 14, 16, 17, 20, 22, 24
    2    8 O      2, 4, 13, 15, 23, 25
    3    7 N      6, 11, 18, 19, 21
    4    1 H      26-43

      * Solvation model:               ALPB
        Solvent                        DMSO
        Solvent mass                       7.8130E+01 g/mol
          :  Hamiltonian                  GFN1-xTB          :
 * total energy  :   -83.1539062 Eh     change       -0.7669598E-10 Eh
 * total energy  :   -83.1729069 Eh     change       -0.1900064E-01 Eh
 * total energy  :   -83.1800151 Eh     change       -0.7108246E-02 Eh
 * total energy  :   -83.1812932 Eh     change       -0.1278107E-02 Eh
 * total energy  :   -83.1822641 Eh     change       -0.9708535E-03 Eh
 * total energy  :   -83.1826258 Eh     change       -0.3617257E-03 Eh
 * total energy  :   -83.1829295 Eh     change       -0.3036975E-03 Eh
 * total energy  :   -83.1831611 Eh     change       -0.2316495E-03 Eh
 * total energy  :   -83.1833320 Eh     change       -0.1708937E-03 Eh
 * total energy  :   -83.1834624 Eh     change       -0.1303462E-03 Eh
 * total energy  :   -83.1843441 Eh     change       -0.1205007E-04 Eh
 * total energy  :   -83.1843540 Eh     change       -0.9845397E-05 Eh
 * total energy  :   -83.1843643 Eh     change       -0.1039570E-04 Eh
 * total energy  :   -83.1843747 Eh     change       -0.1035189E-04 Eh
 * total energy  :   -83.1843815 Eh     change       -0.6787384E-05 Eh
 * total energy  :   -83.1843884 Eh     change       -0.6904481E-05 Eh
 * total energy  :   -83.1843957 Eh     change       -0.7267900E-05 Eh
 * total energy  :   -83.1844020 Eh     change       -0.6338147E-05 Eh
 * total energy  :   -83.1844064 Eh     change       -0.4419793E-05 Eh
   *** GEOMETRY OPTIMIZATION CONVERGED AFTER 33 ITERATIONS ***

 final structure:
================
43
 xtb: 6.5.1 (579679a)
C            6.79105949617688        1.32754566700062       -1.00033685519581
O            5.53684060686684        1.47577730877078       -0.31392432676154
C            4.62039373097332        0.53206875015302       -0.56265960553295
O            4.81972691235121       -0.39721661482866       -1.30667529759680
C            3.33878152904970        0.74693256116963        0.16832490515773
N            2.40614073580313       -0.22721445171863       -0.10534449381815
C            1.24777984933550       -0.17591174617317        0.44834234151164
C            0.24902774386897       -1.28291196382412        0.19313690925247
C            0.60953707222553       -2.03670525186780       -1.08884374634134
C            0.23906808307008       -2.21260382895667        1.41501470285589
N           -1.08031941685540       -0.65903694518042        0.03321098706367
C           -2.19567990678081       -1.37482206031635       -0.12627420159698
O           -2.31201513961632       -2.58299816941653       -0.12595376165413
C           -3.40844009323797       -0.50218550064327       -0.31060120988286
O           -3.35526775520812        0.82056503801766       -0.33008270528055
C           -4.62083509212684        1.24311948688693       -0.50092354236377
C           -4.93515243737226        2.68001295560482       -0.55377709184338
N           -5.43849088161528        0.23451604494107       -0.58643832812100
N           -4.66262666021118       -0.85733947225640       -0.46287132879202
C           -5.27460622548109       -2.16860036696669       -0.52444653013805
N            0.90451424903856        0.81049580700361        1.32760858669863
C            1.74426993636680        1.85286564615688        1.68288447832540
O            1.38021939299660        2.70853931487872        2.46607508144247
C            3.05870918232434        1.77954514827933        1.02721562151235
O            3.88742613375065        2.77241476294943        1.35607320342191
H            7.41491017919199        2.16279552103813       -0.69277859714668
H            6.62471948187361        1.35158598498943       -2.07933115401061
H            7.25543283180483        0.37928196138061       -0.72157296563330
H            1.61879685070713       -2.43552013954985       -0.99615994237824
H           -0.08862029937104       -2.85497053212312       -1.25116963551426
H            0.57412133436130       -1.35761376970693       -1.93896899734520
H           -0.41057037732103       -3.06679738695762        1.23777903356268
H           -0.11416613320841       -1.67039861119151        2.28984506245294
H            1.25176239013363       -2.56876693603691        1.59879554349097
H           -1.13402795158572        0.34166696609957       -0.05961945265403
H           -5.97925722363810        2.82108132635351       -0.82389168277679
H           -4.74479612059789        3.12834595696503        0.42315133322712
H           -4.28640866433951        3.17355897832653       -1.27785035063266
H           -4.59554841471434       -2.89567507561504       -0.08616733061125
H           -6.21476459282744       -2.12666715411767        0.02122843903618
H           -5.46334713230645       -2.41064801051906       -1.57027913412339
H           -0.00674023458505        0.81353212617205        1.75534367241618
H            4.74844203073226        2.70835567483305        0.90546636631806

          :  Hamiltonian                  GFN1-xTB          :
         :: total energy             -83.184406419387 Eh    ::
         :: gradient norm              0.000748866328 Eh/a0 ::
         :: HOMO-LUMO gap              1.689352373009 eV    ::
         :: SCC energy               -83.994520430132 Eh    ::
         :: -> Gsolv                  -0.122086995115 Eh    ::
         :: repulsion energy           0.835749439981 Eh    ::

    * Orbital Energies and Occupations

         #    Occupation            Energy/Eh            Energy/eV
      -------------------------------------------------------------
         1        2.0000           -0.9385624             -25.5396
       ...           ...                  ...                  ...
        55        2.0000           -0.5281334             -14.3712
        56        2.0000           -0.5216050             -14.1936
        57        2.0000           -0.5190518             -14.1241
        58        2.0000           -0.5187106             -14.1148
        59        2.0000           -0.5158899             -14.0381
        60        2.0000           -0.5030040             -13.6874
        61        2.0000           -0.5006564             -13.6236
        62        2.0000           -0.4954642             -13.4823
        63        2.0000           -0.4915563             -13.3759
        64        2.0000           -0.4859471             -13.2233
        65        2.0000           -0.4678066             -12.7297
        66        2.0000           -0.4576533             -12.4534
        67        2.0000           -0.4388872             -11.9427 (HOMO)
        68                         -0.3768047             -10.2534 (LUMO)
        69                         -0.3315585              -9.0222
        70                         -0.3238997              -8.8138
        71                         -0.2926361              -7.9630
        72                         -0.2575533              -7.0084
        73                         -0.2477182              -6.7408
        74                         -0.1707793              -4.6471
        75                         -0.1669701              -4.5435
        76                         -0.1668200              -4.5394
        77                         -0.1430585              -3.8928
        78                         -0.1390621              -3.7841
       ...                                ...                  ...
       136                          0.7306608              19.8823
      -------------------------------------------------------------
                  HL-Gap            0.0620826 Eh            1.6894 eV

Wiberg/Mayer (AO) data.
largest (>0.10) Wiberg bond orders for each atom

     #   Z sym  total        # sym  WBO       # sym  WBO       # sym  WBO
 ---------------------------------------------------------------------------
     1   6 C    3.858 --    26 H    0.986    27 H    0.980    28 H    0.980
                             2 O    0.881
     2   8 O    2.206 --     3 C    1.093     1 C    0.881     4 O    0.131
     3   6 C    3.849 --     4 O    1.673     2 O    1.093     5 C    1.004
     4   8 O    1.935 --     3 C    1.673     2 O    0.131
     5   6 C    3.961 --    24 C    1.504     6 N    1.167     3 C    1.004
     6   7 N    3.031 --     7 C    1.605     5 C    1.167
     7   6 C    3.936 --     6 N    1.605    21 N    1.163     8 C    0.982
     8   6 C    3.913 --     9 C    0.989     7 C    0.982    10 C    0.975
                            11 N    0.900
     9   6 C    3.984 --     8 C    0.989    31 H    0.984    30 H    0.982
                            29 H    0.981
    10   6 C    3.983 --    33 H    0.984    34 H    0.983    32 H    0.978
                             8 C    0.975
    11   7 N    3.392 --    12 C    1.308     8 C    0.900    35 H    0.885
                            13 O    0.200
    12   6 C    3.928 --    13 O    1.593    11 N    1.308    14 C    0.953
    13   8 O    1.951 --    12 C    1.593    11 N    0.200
    14   6 C    3.841 --    19 N    1.458    15 O    1.125    12 C    0.953
    15   8 O    2.369 --    14 C    1.125    16 C    1.066
    16   6 C    3.838 --    18 N    1.575    15 O    1.066    17 C    1.044
    17   6 C    3.969 --    16 C    1.044    36 H    0.976    38 H    0.954
                            37 H    0.944
    18   7 N    2.965 --    16 C    1.575    19 N    1.157
    19   7 N    3.661 --    14 C    1.458    18 N    1.157    20 C    0.908
    20   6 C    3.877 --    39 H    0.971    40 H    0.971    41 H    0.959
                            19 N    0.908
    21   7 N    3.453 --     7 C    1.163    22 C    1.113    42 H    0.884
                            23 O    0.135
    22   6 C    3.906 --    23 O    1.614    21 N    1.113    24 C    1.051
    23   8 O    1.909 --    22 C    1.614    21 N    0.135
    24   6 C    3.919 --     5 C    1.504    25 O    1.118    22 C    1.051
    25   8 O    2.097 --    24 C    1.118    43 H    0.796
    26   1 H    1.008 --     1 C    0.986
    27   1 H    1.006 --     1 C    0.980
    28   1 H    1.006 --     1 C    0.980
    29   1 H    1.008 --     9 C    0.981
    30   1 H    1.003 --     9 C    0.982
    31   1 H    1.002 --     9 C    0.984
    32   1 H    1.004 --    10 C    0.978
    33   1 H    0.999 --    10 C    0.984
    34   1 H    0.999 --    10 C    0.983
    35   1 H    0.925 --    11 N    0.885
    36   1 H    0.990 --    17 C    0.976
    37   1 H    0.988 --    17 C    0.944
    38   1 H    0.989 --    17 C    0.954
    39   1 H    1.003 --    20 C    0.971
    40   1 H    0.992 --    20 C    0.971
    41   1 H    0.990 --    20 C    0.959
    42   1 H    0.925 --    21 N    0.884
    43   1 H    0.849 --    25 O    0.796
 ---------------------------------------------------------------------------

           -------------------------------------------------
          | TOTAL ENERGY              -83.184406419387 Eh   |
          | GRADIENT NORM               0.000748866328 Eh/α |
          | HOMO-LUMO GAP               1.689352373009 eV   |
           -------------------------------------------------

 * finished run on 2023/06/20 at 15:25:17.204
