   * xtb version 6.5.1 (579679a) compiled by 'ehlert@majestix' on 2022-07-11
          program call               : /lustre/hpc/kemi/ree/PhD/git/ReactivityQM/dep/xtb-6.5.1/bin/xtb --gfn 1 /lustre/hpc/kemi/ree/PhD/git/ReactivityQM/calculations/R02methylcation/reac01prodN03/conf13/R02methylcation_reac01prodN03_conf13_gfn1.xyz --opt --vfukui --chrg 0 --uhf 0 --alpb DMSO

   ID    Z sym.   atoms
    1    6 C      1, 3, 5, 6, 8-11, 13, 15, 18, 19, 22, 24
    2    8 O      2, 4, 14, 20, 23, 25
    3    7 N      7, 12, 16, 17, 21
    4    1 H      26-42

      * Solvation model:               ALPB
        Solvent                        DMSO
        Solvent mass                       7.8130E+01 g/mol
          :  Hamiltonian                  GFN1-xTB          :
 * total energy  :   -82.9858662 Eh     change       -0.8810730E-11 Eh
 * total energy  :   -82.9971586 Eh     change       -0.1129234E-01 Eh
 * total energy  :   -83.0013242 Eh     change       -0.4165651E-02 Eh
 * total energy  :   -83.0022303 Eh     change       -0.9060509E-03 Eh
 * total energy  :   -83.0030241 Eh     change       -0.7938143E-03 Eh
 * total energy  :   -83.0035389 Eh     change       -0.5147654E-03 Eh
 * total energy  :   -83.0039783 Eh     change       -0.4394716E-03 Eh
 * total energy  :   -83.0043136 Eh     change       -0.3352377E-03 Eh
 * total energy  :   -83.0045324 Eh     change       -0.2188236E-03 Eh
 * total energy  :   -83.0046583 Eh     change       -0.1258609E-03 Eh
 * total energy  :   -83.0059461 Eh     change        0.8410172E-06 Eh
 * total energy  :   -83.0059585 Eh     change       -0.1235368E-04 Eh
 * total energy  :   -83.0059760 Eh     change       -0.1752760E-04 Eh
 * total energy  :   -83.0059917 Eh     change       -0.1573028E-04 Eh
 * total energy  :   -83.0060039 Eh     change       -0.1213861E-04 Eh
 * total energy  :   -83.0060143 Eh     change       -0.1037859E-04 Eh
 * total energy  :   -83.0060239 Eh     change       -0.9596175E-05 Eh
 * total energy  :   -83.0060315 Eh     change       -0.7671158E-05 Eh
 * total energy  :   -83.0060364 Eh     change       -0.4879913E-05 Eh
   *** GEOMETRY OPTIMIZATION CONVERGED AFTER 45 ITERATIONS ***

 final structure:
================
42
 xtb: 6.5.1 (579679a)
C           -3.84754588986024        3.11525071269718        1.30655419686004
O           -3.86154310937106        1.70740566538723        1.02214708881528
C           -2.76729186653810        1.18789235586726        0.50678904878134
O           -1.76637966344401        1.79837056736467        0.24068134741526
C           -2.92537503771725       -0.33436786744612        0.22960174266958
C           -4.02622110171015       -0.95812968114136        1.08694408817911
N           -1.65407068459398       -0.93757755059850        0.55882008783954
C           -0.74142128283953       -1.05598947257458       -0.31408853845775
C            0.59190761379887       -1.67280047777671        0.09018592409459
C            0.57649103644763       -1.96819906376400        1.59056078406572
C            0.83101253476513       -2.96649239194853       -0.69848602378331
N            1.68175931607800       -0.71386597027930       -0.13767014573812
C            2.21208948411750       -0.38212375152675       -1.32883197361665
O            1.78567700317208       -0.72988973748235       -2.42277788977428
C            3.39156921196232        0.50528716876847       -1.20450626099645
N            4.09768979586764        1.02234862032003       -2.16152722640579
N            5.07240026743239        1.76821164821564       -1.57246358846398
C            4.90277064153415        1.66154400119022       -0.29105334123340
C            5.69941258964315        2.28825936472714        0.78525330378964
O            3.85497674645116        0.87665641263940        0.00889443417906
N           -0.89338656843634       -0.70437859075194       -1.64400747347026
C           -2.07525707175412       -0.35213427307346       -2.21254685249436
O           -2.18513095524060       -0.06335834517627       -3.38403709422902
C           -3.26867383010728       -0.38447596123829       -1.24956142476816
O           -4.40198018284681       -0.40692622320104       -1.65322798498382
H           -3.01892883416388        3.34743984069750        1.97740382993938
H           -4.79925094438921        3.34075690713232        1.78153330379396
H           -3.73772287354667        3.67956113289385        0.37845284669311
H           -4.03175032553018       -2.03504521475739        0.93110898675818
H           -4.99445816607200       -0.54884251430938        0.80569389809633
H           -3.83542595244331       -0.75121848753480        2.13701871875682
H            1.52574782102481       -2.40686319853632        1.89081447501546
H            0.40931947199488       -1.05156386753862        2.15385476908713
H           -0.22666605067163       -2.66634022855683        1.81894646537238
H            0.80370326711305       -2.78980087115146       -1.77138709032289
H            1.80305675721481       -3.37746571793257       -0.43254316353776
H            0.05747624375794       -3.68810074832959       -0.44106777983842
H            2.15459951237802       -0.38397428787053        0.68868876946465
H            6.03017908236821        1.52910704474277        1.49228279370329
H            5.08733718788800        3.00828827851809        1.32806991569612
H            6.56095778946140        2.79471390340344        0.35738271048770
H           -0.07165298319589       -0.74616313007517       -2.24789867744140

          :  Hamiltonian                  GFN1-xTB          :
         :: total energy             -83.006036413600 Eh    ::
         :: gradient norm              0.000660689355 Eh/a0 ::
         :: HOMO-LUMO gap              2.399407390661 eV    ::
         :: SCC energy               -83.791836873222 Eh    ::
         :: -> Gsolv                  -0.055873613958 Eh    ::
         :: repulsion energy           0.812550822231 Eh    ::

    * Orbital Energies and Occupations

         #    Occupation            Energy/Eh            Energy/eV
      -------------------------------------------------------------
         1        2.0000           -0.8679538             -23.6182
       ...           ...                  ...                  ...
        55        2.0000           -0.5111003             -13.9077
        56        2.0000           -0.5081052             -13.8262
        57        2.0000           -0.5074042             -13.8072
        58        2.0000           -0.5035584             -13.7025
        59        2.0000           -0.4902780             -13.3411
        60        2.0000           -0.4825240             -13.1301
        61        2.0000           -0.4737729             -12.8920
        62        2.0000           -0.4698188             -12.7844
        63        2.0000           -0.4611583             -12.5488
        64        2.0000           -0.4559307             -12.4065
        65        2.0000           -0.4541783             -12.3588
        66        2.0000           -0.4503154             -12.2537
        67        2.0000           -0.4375216             -11.9056 (HOMO)
        68                         -0.3493450              -9.5062 (LUMO)
        69                         -0.3157709              -8.5926
        70                         -0.2955528              -8.0424
        71                         -0.2688682              -7.3163
        72                         -0.2586523              -7.0383
        73                         -0.2211808              -6.0186
        74                         -0.2033014              -5.5321
        75                         -0.1468527              -3.9961
        76                         -0.1427613              -3.8847
        77                         -0.1293537              -3.5199
        78                         -0.1271620              -3.4603
       ...                                ...                  ...
       134                          0.7590381              20.6545
      -------------------------------------------------------------
                  HL-Gap            0.0881766 Eh            2.3994 eV

Wiberg/Mayer (AO) data.
largest (>0.10) Wiberg bond orders for each atom

     #   Z sym  total        # sym  WBO       # sym  WBO       # sym  WBO
 ---------------------------------------------------------------------------
     1   6 C    3.854 --    27 H    0.985    26 H    0.980    28 H    0.980
                             2 O    0.876
     2   8 O    2.230 --     3 C    1.155     1 C    0.876     4 O    0.139
     3   6 C    3.844 --     4 O    1.694     2 O    1.155     5 C    0.867
     4   8 O    1.961 --     3 C    1.694     2 O    0.139
     5   6 C    3.964 --     6 C    0.982     7 N    0.979    24 C    0.947
                             3 C    0.867
     6   6 C    3.985 --    31 H    0.985    29 H    0.984     5 C    0.982
                            30 H    0.982
     7   7 N    3.027 --     8 C    1.754     5 C    0.979
     8   6 C    3.929 --     7 N    1.754    21 N    1.083     9 C    0.965
     9   6 C    3.933 --    10 C    1.001    11 C    0.983     8 C    0.965
                            12 N    0.919
    10   6 C    3.990 --     9 C    1.001    32 H    0.984    33 H    0.982
                            34 H    0.982
    11   6 C    3.987 --    37 H    0.984     9 C    0.983    36 H    0.983
                            35 H    0.979
    12   7 N    3.357 --    13 C    1.274     9 C    0.919    38 H    0.891
                            14 O    0.174
    13   6 C    3.915 --    14 O    1.554    12 N    1.274    15 C    0.999
    14   8 O    1.916 --    13 C    1.554    12 N    0.174
    15   6 C    3.874 --    16 N    1.619    20 O    1.047    13 C    0.999
    16   7 N    3.001 --    15 C    1.619    17 N    1.202
    17   7 N    2.982 --    18 C    1.607    16 N    1.202
    18   6 C    3.867 --    17 N    1.607    20 O    1.073    19 C    1.032
    19   6 C    3.986 --    18 C    1.032    41 H    0.982    39 H    0.965
                            40 H    0.960
    20   8 O    2.317 --    18 C    1.073    15 C    1.047
    21   7 N    3.439 --    22 C    1.201     8 C    1.083    42 H    0.840
                            23 O    0.150
    22   6 C    3.897 --    23 O    1.662    21 N    1.201    24 C    0.906
    23   8 O    1.949 --    22 C    1.662    21 N    0.150
    24   6 C    3.845 --    25 O    1.809     5 C    0.947    22 C    0.906
    25   8 O    2.023 --    24 C    1.809
    26   1 H    1.004 --     1 C    0.980
    27   1 H    1.008 --     1 C    0.985
    28   1 H    1.004 --     1 C    0.980
    29   1 H    1.001 --     6 C    0.984
    30   1 H    1.008 --     6 C    0.982
    31   1 H    1.003 --     6 C    0.985
    32   1 H    0.998 --    10 C    0.984
    33   1 H    1.004 --    10 C    0.982
    34   1 H    1.007 --    10 C    0.982
    35   1 H    1.008 --    11 C    0.979
    36   1 H    0.999 --    11 C    0.983
    37   1 H    1.000 --    11 C    0.984
    38   1 H    0.935 --    12 N    0.891
    39   1 H    0.996 --    19 C    0.965
    40   1 H    0.996 --    19 C    0.960
    41   1 H    0.998 --    19 C    0.982
    42   1 H    0.928 --    21 N    0.840
 ---------------------------------------------------------------------------

           -------------------------------------------------
          | TOTAL ENERGY              -83.006036413600 Eh   |
          | GRADIENT NORM               0.000660689355 Eh/α |
          | HOMO-LUMO GAP               2.399407390661 eV   |
           -------------------------------------------------

 * finished run on 2023/06/21 at 17:32:44.801
