                         Program Version 5.0.1 -  RELEASE  -
|  1> # ORCA input file
|  2> ! SP r2SCAN-3c CPCM
|  3>
|  4> %maxcore 1875.0
|  5> %pal nprocs 4 end
|  6> %cpcm smd true SMDsolvent "DMSO" end
|  7>
|  8> *xyz -1 1
|  9> C       5.703911    0.743165    2.216947
| 10> O       4.511632    0.340588    1.548513
| 11> C       4.620853    0.131837    0.224218
| 12> O       5.687770    0.289262   -0.369135
| 13> C       3.385239   -0.297968   -0.420867
| 14> N       2.267850   -0.436706    0.372277
| 15> C       1.168311   -0.833107   -0.177274
| 16> C      -0.064912   -1.094658    0.659602
| 17> C      -0.072283   -0.185179    1.896243
| 18> C      -0.025056   -2.569816    1.088044
| 19> N      -1.242880   -0.914108   -0.181856
| 20> C      -1.479127    0.441862   -0.628434
| 21> O      -0.501156    1.226059   -0.794515
| 22> C      -2.802607    0.754261   -0.808739
| 23> O      -3.856779   -0.175390   -0.705135
| 24> C      -4.927916    0.471684   -1.191420
| 25> C      -6.235331   -0.236986   -1.199333
| 26> N      -4.729189    1.662274   -1.611772
| 27> N      -3.334850    1.926840   -1.461428
| 28> C      -3.142869    3.175894   -0.712978
| 29> N       1.084831   -1.153793   -1.498367
| 30> C       2.126952   -1.041245   -2.401512
| 31> O       1.965143   -1.340803   -3.584715
| 32> C       3.349451   -0.570027   -1.782927
| 33> O       4.424547   -0.433196   -2.589305
| 34> H       5.451056    0.862095    3.268930
| 35> H       6.070017    1.689221    1.808891
| 36> H       6.479811   -0.018407    2.101725
| 37> H      -0.977508   -0.354838    2.476253
| 38> H       0.796098   -0.406522    2.515769
| 39> H      -0.029284    0.861003    1.594365
| 40> H      -0.055198   -3.213735    0.209799
| 41> H       0.886946   -2.773439    1.647632
| 42> H      -0.882863   -2.795378    1.718886
| 43> H      -2.067783   -1.307129    0.254210
| 44> H      -6.523329   -0.492586   -0.180044
| 45> H      -6.155069   -1.163117   -1.767971
| 46> H      -6.998203    0.398278   -1.642692
| 47> H      -3.596925    3.115224    0.280190
| 48> H      -3.597246    3.990450   -1.274687
| 49> H      -2.069809    3.341647   -0.619801
| 50> H       0.188936   -1.473523   -1.845373
| 51> H       5.198815   -0.139989   -2.056371
| 52> **                         ****END OF INPUT****

CARTESIAN COORDINATES (ANGSTROEM)
---------------------------------
  C      5.703911    0.743165    2.216947
  O      4.511632    0.340588    1.548513
  C      4.620853    0.131837    0.224218
  O      5.687770    0.289262   -0.369135
  C      3.385239   -0.297968   -0.420867
  N      2.267850   -0.436706    0.372277
  C      1.168311   -0.833107   -0.177274
  C     -0.064912   -1.094658    0.659602
  C     -0.072283   -0.185179    1.896243
  C     -0.025056   -2.569816    1.088044
  N     -1.242880   -0.914108   -0.181856
  C     -1.479127    0.441862   -0.628434
  O     -0.501156    1.226059   -0.794515
  C     -2.802607    0.754261   -0.808739
  O     -3.856779   -0.175390   -0.705135
  C     -4.927916    0.471684   -1.191420
  C     -6.235331   -0.236986   -1.199333
  N     -4.729189    1.662274   -1.611772
  N     -3.334850    1.926840   -1.461428
  C     -3.142869    3.175894   -0.712978
  N      1.084831   -1.153793   -1.498367
  C      2.126952   -1.041245   -2.401512
  O      1.965143   -1.340803   -3.584715
  C      3.349451   -0.570027   -1.782927
  O      4.424547   -0.433196   -2.589305
  H      5.451056    0.862095    3.268930
  H      6.070017    1.689221    1.808891
  H      6.479811   -0.018407    2.101725
  H     -0.977508   -0.354838    2.476253
  H      0.796098   -0.406522    2.515769
  H     -0.029284    0.861003    1.594365
  H     -0.055198   -3.213735    0.209799
  H      0.886946   -2.773439    1.647632
  H     -0.882863   -2.795378    1.718886
  H     -2.067783   -1.307129    0.254210
  H     -6.523329   -0.492586   -0.180044
  H     -6.155069   -1.163117   -1.767971
  H     -6.998203    0.398278   -1.642692
  H     -3.596925    3.115224    0.280190
  H     -3.597246    3.990450   -1.274687
  H     -2.069809    3.341647   -0.619801
  H      0.188936   -1.473523   -1.845373
  H      5.198815   -0.139989   -2.056371

 Total Charge           Charge          ....   -1
 Multiplicity           Mult            ....    1
 Number of Electrons    NEL             ....  186
 Basis Dimension        Dim             ....  620

ORBITAL ENERGIES
----------------

  NO   OCC          E(Eh)            E(eV)
   0   2.0000     -18.999596      -517.0053
   1   2.0000     -18.994298      -516.8611
   2   2.0000     -18.981908      -516.5240
   3   2.0000     -18.946785      -515.5682
   4   2.0000     -18.914853      -514.6993
   5   2.0000     -18.860563      -513.2220
   6   2.0000     -14.205022      -386.5383
   7   2.0000     -14.183374      -385.9492
   8   2.0000     -14.161252      -385.3473
   9   2.0000     -14.148152      -384.9908
  10   2.0000     -14.140203      -384.7745
  11   2.0000     -10.162168      -276.5266
  12   2.0000     -10.133207      -275.7386
  13   2.0000     -10.112696      -275.1804
  14   2.0000     -10.108617      -275.0695
  15   2.0000     -10.106565      -275.0136
  16   2.0000     -10.079824      -274.2860
  17   2.0000     -10.074139      -274.1313
  18   2.0000     -10.072686      -274.0917
  19   2.0000     -10.066418      -273.9212
  20   2.0000     -10.050893      -273.4987
  21   2.0000     -10.032907      -273.0093
  22   2.0000     -10.030212      -272.9359
  23   2.0000     -10.015772      -272.5430
  24   2.0000     -10.003207      -272.2011
  25   2.0000      -1.073836       -29.2206
  26   2.0000      -1.072938       -29.1961
  27   2.0000      -1.032824       -28.1046
  28   2.0000      -0.999741       -27.2043
  29   2.0000      -0.982284       -26.7293
  30   2.0000      -0.950595       -25.8670
  31   2.0000      -0.931856       -25.3571
  32   2.0000      -0.925704       -25.1897
  33   2.0000      -0.863233       -23.4898
  34   2.0000      -0.851307       -23.1653
  35   2.0000      -0.799353       -21.7515
  36   2.0000      -0.761025       -20.7086
  37   2.0000      -0.720226       -19.5984
  38   2.0000      -0.702765       -19.1232
  39   2.0000      -0.701283       -19.0829
  40   2.0000      -0.656904       -17.8753
  41   2.0000      -0.650240       -17.6939
  42   2.0000      -0.642636       -17.4870
  43   2.0000      -0.625079       -17.0093
  44   2.0000      -0.599113       -16.3027
  45   2.0000      -0.549243       -14.9457
  46   2.0000      -0.547692       -14.9035
  47   2.0000      -0.544698       -14.8220
  48   2.0000      -0.535207       -14.5637
  49   2.0000      -0.525165       -14.2905
  50   2.0000      -0.503646       -13.7049
  51   2.0000      -0.485468       -13.2103
  52   2.0000      -0.468456       -12.7473
  53   2.0000      -0.453801       -12.3486
  54   2.0000      -0.451650       -12.2900
  55   2.0000      -0.444262       -12.0890
  56   2.0000      -0.442724       -12.0471
  57   2.0000      -0.436102       -11.8669
  58   2.0000      -0.425582       -11.5807
  59   2.0000      -0.413255       -11.2452
  60   2.0000      -0.405004       -11.0207
  61   2.0000      -0.395999       -10.7757
  62   2.0000      -0.387507       -10.5446
  63   2.0000      -0.383840       -10.4448
  64   2.0000      -0.382860       -10.4182
  65   2.0000      -0.378346       -10.2953
  66   2.0000      -0.373079       -10.1520
  67   2.0000      -0.371627       -10.1125
  68   2.0000      -0.365653        -9.9499
  69   2.0000      -0.359964        -9.7951
  70   2.0000      -0.355657        -9.6779
  71   2.0000      -0.347926        -9.4676
  72   2.0000      -0.343762        -9.3542
  73   2.0000      -0.341437        -9.2910
  74   2.0000      -0.333816        -9.0836
  75   2.0000      -0.329493        -8.9660
  76   2.0000      -0.325353        -8.8533
  77   2.0000      -0.321284        -8.7426
  78   2.0000      -0.319069        -8.6823
  79   2.0000      -0.307237        -8.3603
  80   2.0000      -0.300239        -8.1699
  81   2.0000      -0.277432        -7.5493
  82   2.0000      -0.274411        -7.4671
  83   2.0000      -0.265830        -7.2336
  84   2.0000      -0.264408        -7.1949
  85   2.0000      -0.262527        -7.1437
  86   2.0000      -0.235824        -6.4171
  87   2.0000      -0.228404        -6.2152
  88   2.0000      -0.214791        -5.8448
  89   2.0000      -0.207030        -5.6336
  90   2.0000      -0.200427        -5.4539
  91   2.0000      -0.178998        -4.8708
  92   2.0000      -0.094497        -2.5714
  93   0.0000      -0.089117        -2.4250
  94   0.0000      -0.018638        -0.5072
  95   0.0000       0.005034         0.1370
  96   0.0000       0.019276         0.5245
  97   0.0000       0.055777         1.5178

MULLIKEN ATOMIC CHARGES
-----------------------
   0 C :   -0.317935
   1 O :   -0.186527
   2 C :    0.202660
   3 O :   -0.486168
   4 C :    0.087360
   5 N :   -0.148226
   6 C :    0.228171
   7 C :    0.185727
   8 C :   -0.670797
   9 C :   -0.565666
  10 N :   -0.395666
  11 C :   -0.043678
  12 O :   -0.530484
  13 C :   -0.151745
  14 O :   -0.088743
  15 C :    0.384929
  16 C :   -0.648939
  17 N :   -0.359625
  18 N :   -0.019071
  19 C :   -0.402788
  20 N :    0.015580
  21 C :   -0.007956
  22 O :   -0.408266
  23 C :    0.039280
  24 O :   -0.368200
  25 H :    0.175471
  26 H :    0.174969
  27 H :    0.175027
  28 H :    0.179255
  29 H :    0.171772
  30 H :    0.195438
  31 H :    0.181782
  32 H :    0.184940
  33 H :    0.179790
  34 H :    0.300041
  35 H :    0.187318
  36 H :    0.185256
  37 H :    0.192434
  38 H :    0.150171
  39 H :    0.163432
  40 H :    0.185415
  41 H :    0.304939
  42 H :    0.369320
Sum of atomic charges:   -1.0000000

LOEWDIN ATOMIC CHARGES
----------------------
   0 C :   -0.038778
   1 O :   -0.573732
   2 C :    0.405803
   3 O :   -0.487551
   4 C :    0.182137
   5 N :   -0.571659
   6 C :    0.360014
   7 C :    0.085432
   8 C :   -0.369777
   9 C :   -0.351261
  10 N :   -0.703741
  11 C :    0.284310
  12 O :   -0.624177
  13 C :    0.285922
  14 O :   -0.494989
  15 C :    0.346361
  16 C :   -0.328562
  17 N :   -0.413165
  18 N :   -0.647481
  19 C :   -0.118419
  20 N :   -0.457476
  21 C :    0.359350
  22 O :   -0.473062
  23 C :    0.267242
  24 O :   -0.462696
  25 H :    0.185320
  26 H :    0.181109
  27 H :    0.181280
  28 H :    0.162477
  29 H :    0.167984
  30 H :    0.179378
  31 H :    0.170114
  32 H :    0.169665
  33 H :    0.168300
  34 H :    0.280850
  35 H :    0.182273
  36 H :    0.180905
  37 H :    0.182097
  38 H :    0.162312
  39 H :    0.177490
  40 H :    0.189301
  41 H :    0.310015
  42 H :    0.309085

  Mayer bond orders larger than 0.100000
B(  0-C ,  1-O ) :   0.8337 B(  0-C , 25-H ) :   0.9623 B(  0-C , 26-H ) :   0.9570
B(  0-C , 27-H ) :   0.9572 B(  1-O ,  2-C ) :   1.1628 B(  2-C ,  3-O ) :   1.6953
B(  2-C ,  4-C ) :   1.1159 B(  4-C ,  5-N ) :   1.0141 B(  4-C , 23-C ) :   1.2582
B(  5-N ,  6-C ) :   1.6632 B(  6-C ,  7-C ) :   0.7719 B(  6-C , 12-O ) :   0.1472
B(  6-C , 20-N ) :   1.0863 B(  7-C ,  8-C ) :   0.8667 B(  7-C ,  9-C ) :   0.8927
B(  7-C , 10-N ) :   0.8298 B(  8-C , 28-H ) :   0.9812 B(  8-C , 29-H ) :   0.9604
B(  8-C , 30-H ) :   0.9795 B(  9-C , 31-H ) :   0.9683 B(  9-C , 32-H ) :   0.9767
B(  9-C , 33-H ) :   0.9643 B( 10-N , 11-C ) :   0.9766 B( 10-N , 34-H ) :   0.8959
B( 11-C , 12-O ) :   1.6546 B( 11-C , 13-C ) :   1.3369 B( 13-C , 14-O ) :   0.9499
B( 13-C , 18-N ) :   0.9741 B( 14-O , 15-C ) :   1.0725 B( 15-C , 16-C ) :   0.8249
B( 15-C , 17-N ) :   1.7624 B( 16-C , 35-H ) :   0.9474 B( 16-C , 36-H ) :   0.9519
B( 16-C , 37-H ) :   0.9994 B( 17-N , 18-N ) :   1.1932 B( 18-N , 19-C ) :   0.8835
B( 19-C , 38-H ) :   0.9513 B( 19-C , 39-H ) :   0.9708 B( 19-C , 40-H ) :   0.9610
B( 20-N , 21-C ) :   1.0145 B( 20-N , 41-H ) :   0.8734 B( 21-C , 22-O ) :   2.0638
B( 21-C , 23-C ) :   1.0051 B( 23-C , 24-O ) :   1.1372 B( 24-O , 42-H ) :   0.7677

Dispersion correction           -0.019359468
FINAL SINGLE POINT ENERGY     -1269.332368123430

DIPOLE MOMENT
-------------
                                X             Y             Z
Electronic contribution:     13.46638      -2.13431     -13.39474
Nuclear contribution   :    -13.21182       0.09332      17.28480
                        -----------------------------------------
Total Dipole Moment    :      0.25456      -2.04099       3.89006
                        -----------------------------------------
Magnitude (a.u.)       :      4.40034
Magnitude (Debye)      :     11.18478

Rotational constants in cm-1:     0.014795     0.003489     0.003338
Rotational constants in MHz :   443.534933   104.587722   100.080619

                             ****ORCA TERMINATED NORMALLY****
TOTAL RUN TIME: 0 days 0 hours 3 minutes 35 seconds 521 msec
