   * xtb version 6.5.1 (579679a) compiled by 'ehlert@majestix' on 2022-07-11
          program call               : /lustre/hpc/kemi/ree/PhD/git/ReactivityQM/dep/xtb-6.5.1/bin/xtb --gfn 1 /lustre/hpc/kemi/ree/PhD/git/ReactivityQM/calculations/R02/reac01prodE09/conf12/R02_reac01prodE09_conf12_gfn1.xyz --opt --vfukui --chrg -1 --uhf 0 --alpb DMSO

   ID    Z sym.   atoms
    1    6 C      1, 3, 5, 7-10, 12, 14, 16, 17, 20, 22, 24
    2    8 O      2, 4, 13, 15, 23, 25
    3    7 N      6, 11, 18, 19, 21
    4    1 H      26-43

      * Solvation model:               ALPB
        Solvent                        DMSO
        Solvent mass                       7.8130E+01 g/mol
          :  Hamiltonian                  GFN1-xTB          :
 * total energy  :   -83.8382037 Eh     change       -0.2696794E-09 Eh
 * total energy  :   -83.8486916 Eh     change       -0.1048790E-01 Eh
 * total energy  :   -83.8524645 Eh     change       -0.3772915E-02 Eh
 * total energy  :   -83.8535337 Eh     change       -0.1069136E-02 Eh
 * total energy  :   -83.8550362 Eh     change       -0.1502503E-02 Eh
 * total energy  :   -83.8565895 Eh     change       -0.1553328E-02 Eh
 * total energy  :   -83.8586908 Eh     change       -0.2101312E-02 Eh
 * total energy  :   -83.8601720 Eh     change       -0.1481202E-02 Eh
 * total energy  :   -83.8610441 Eh     change       -0.8720996E-03 Eh
 * total energy  :   -83.8619256 Eh     change       -0.8815073E-03 Eh
 * total energy  :   -83.8647004 Eh     change       -0.4415618E-04 Eh
 * total energy  :   -83.8647136 Eh     change       -0.1326818E-04 Eh
 * total energy  :   -83.8647322 Eh     change       -0.1857221E-04 Eh
 * total energy  :   -83.8647481 Eh     change       -0.1592290E-04 Eh
 * total energy  :   -83.8647662 Eh     change       -0.1807440E-04 Eh
 * total energy  :   -83.8647849 Eh     change       -0.1872524E-04 Eh
 * total energy  :   -83.8648007 Eh     change       -0.1581583E-04 Eh
 * total energy  :   -83.8648128 Eh     change       -0.1207617E-04 Eh
 * total energy  :   -83.8648173 Eh     change       -0.4536747E-05 Eh
   *** GEOMETRY OPTIMIZATION CONVERGED AFTER 44 ITERATIONS ***

 final structure:
================
43
 xtb: 6.5.1 (579679a)
C            5.70391136947399        0.74316548931468        2.21694729192157
O            4.51163190234187        0.34058787812619        1.54851301043520
C            4.62085344620267        0.13183718703979        0.22421846768825
O            5.68776950382166        0.28926198954354       -0.36913492919190
C            3.38523885907074       -0.29796845381514       -0.42086695319923
N            2.26784975220110       -0.43670607180597        0.37227686450851
C            1.16831137753532       -0.83310683077524       -0.17727424506619
C           -0.06491236770039       -1.09465767023614        0.65960223122347
C           -0.07228301686932       -0.18517945357198        1.89624262561228
C           -0.02505558647599       -2.56981613231911        1.08804432173767
N           -1.24287986579287       -0.91410842417105       -0.18185601685541
C           -1.47912685581169        0.44186159913440       -0.62843433047380
O           -0.50115573207267        1.22605867917854       -0.79451510484186
C           -2.80260727851164        0.75426052292367       -0.80873865950302
O           -3.85677889913014       -0.17539048860896       -0.70513532985616
C           -4.92791619442454        0.47168408670029       -1.19141997063740
C           -6.23533131176726       -0.23698589799041       -1.19933341319703
N           -4.72918889400141        1.66227367456936       -1.61177163295470
N           -3.33485012271183        1.92684046556566       -1.46142762277125
C           -3.14286919143201        3.17589436239818       -0.71297763029036
N            1.08483083976497       -1.15379267586506       -1.49836672780007
C            2.12695160622623       -1.04124535003751       -2.40151222384881
O            1.96514265734892       -1.34080291740799       -3.58471471867459
C            3.34945087251298       -0.57002655709287       -1.78292709954414
O            4.42454732218662       -0.43319597495464       -2.58930548396482
H            5.45105578861810        0.86209510559335        3.26892996453709
H            6.07001725863464        1.68922108489855        1.80889078333132
H            6.47981114261895       -0.01840701084826        2.10172522626456
H           -0.97750782453447       -0.35483839135668        2.47625250287125
H            0.79609794570439       -0.40652239226912        2.51576913231432
H           -0.02928385926332        0.86100259455420        1.59436477522048
H           -0.05519815597606       -3.21373452411576        0.20979926205959
H            0.88694638319124       -2.77343902133055        1.64763152378507
H           -0.88286346851438       -2.79537766853473        1.71888614405186
H           -2.06778318761116       -1.30712899969683        0.25420995521091
H           -6.52332855519799       -0.49258605485613       -0.18004386514352
H           -6.15506888922255       -1.16311705067758       -1.76797091347902
H           -6.99820253784613        0.39827826237310       -1.64269208625872
H           -3.59692461724573        3.11522421232047        0.28019047635325
H           -3.59724608271901        3.99044976106714       -1.27468688317478
H           -2.06980917725812        3.34164676602271       -0.61980058535143
H            0.18893629884853       -1.47352268467260       -1.84537306996242
H            5.19881534577953       -0.13998902432622       -2.05637106309540

          :  Hamiltonian                  GFN1-xTB          :
         :: total energy             -83.864817348056 Eh    ::
         :: gradient norm              0.000376931320 Eh/a0 ::
         :: HOMO-LUMO gap              0.100348136437 eV    ::
         :: SCC energy               -84.624210332958 Eh    ::
         :: -> Gsolv                  -0.116949890622 Eh    ::
         :: repulsion energy           0.785812637383 Eh    ::

    * Orbital Energies and Occupations

         #    Occupation            Energy/Eh            Energy/eV
      -------------------------------------------------------------
         1        2.0000           -0.8189062             -22.2836
       ...           ...                  ...                  ...
        56        2.0000           -0.4752502             -12.9322
        57        2.0000           -0.4708937             -12.8137
        58        2.0000           -0.4620415             -12.5728
        59        2.0000           -0.4553813             -12.3916
        60        2.0000           -0.4415039             -12.0139
        61        2.0000           -0.4331221             -11.7859
        62        2.0000           -0.4305861             -11.7168
        63        2.0000           -0.4196034             -11.4180
        64        2.0000           -0.4061457             -11.0518
        65        2.0000           -0.4030382             -10.9672
        66        2.0000           -0.4002264             -10.8907
        67        2.0000           -0.3826126             -10.4114
        68        1.7489           -0.3066860              -8.3454 (HOMO)
        69        0.2511           -0.3029983              -8.2450 (LUMO)
        70                         -0.2505176              -6.8169
        71                         -0.2237506              -6.0886
        72                         -0.2151022              -5.8532
        73                         -0.1496528              -4.0723
        74                         -0.1303193              -3.5462
        75                         -0.1289359              -3.5085
        76                         -0.1275380              -3.4705
        77                         -0.1144061              -3.1131
        78                         -0.1031422              -2.8066
        79                         -0.1013825              -2.7588
       ...                                ...                  ...
       136                          0.7134299              19.4134
      -------------------------------------------------------------
                  HL-Gap            0.0036877 Eh            0.1003 eV

Wiberg/Mayer (AO) data.
largest (>0.10) Wiberg bond orders for each atom

     #   Z sym  total        # sym  WBO       # sym  WBO       # sym  WBO
 ---------------------------------------------------------------------------
     1   6 C    3.884 --    26 H    0.987    28 H    0.980    27 H    0.980
                             2 O    0.911
     2   8 O    2.163 --     3 C    1.080     1 C    0.911     4 O    0.111
     3   6 C    3.775 --     4 O    1.544     2 O    1.080     5 C    1.079
     4   8 O    1.861 --     3 C    1.544     2 O    0.111
     5   6 C    3.900 --    24 C    1.406     6 N    1.167     3 C    1.079
     6   7 N    3.000 --     7 C    1.576     5 C    1.167
     7   6 C    3.914 --     6 N    1.576    21 N    1.169     8 C    0.980
     8   6 C    3.963 --     9 C    0.987     7 C    0.980    10 C    0.977
                            11 N    0.967
     9   6 C    3.994 --    29 H    0.987     8 C    0.987    30 H    0.985
                            31 H    0.981
    10   6 C    3.993 --    33 H    0.986    32 H    0.986    34 H    0.984
                             8 C    0.977
    11   7 N    3.084 --    12 C    0.969     8 C    0.967    35 H    0.929
    12   6 C    3.883 --    14 C    1.430    13 O    1.367    11 N    0.969
    13   8 O    1.670 --    12 C    1.367    14 C    0.128
    14   6 C    3.572 --    12 C    1.430    19 N    0.977    15 O    0.909
                            13 O    0.128
    15   8 O    2.182 --    16 C    1.071    14 C    0.909    18 N    0.115
    16   6 C    3.897 --    18 N    1.708    15 O    1.071    17 C    1.019
    17   6 C    3.993 --    16 C    1.019    38 H    0.986    37 H    0.971
                            36 H    0.969
    18   7 N    2.933 --    16 C    1.708    19 N    1.001    15 O    0.115
    19   7 N    3.073 --    18 N    1.001    14 C    0.977    20 C    0.953
    20   6 C    3.957 --    40 H    0.989    41 H    0.985    39 H    0.984
                            19 N    0.953
    21   7 N    3.423 --     7 C    1.169    22 C    1.107    42 H    0.885
                            23 O    0.121
    22   6 C    3.874 --    23 O    1.534    24 C    1.113    21 N    1.107
    23   8 O    1.812 --    22 C    1.534    21 N    0.121
    24   6 C    3.824 --     5 C    1.406    22 C    1.113    25 O    1.082
    25   8 O    2.031 --    24 C    1.082    43 H    0.788
    26   1 H    1.013 --     1 C    0.987
    27   1 H    1.009 --     1 C    0.980
    28   1 H    1.009 --     1 C    0.980
    29   1 H    1.004 --     9 C    0.987
    30   1 H    1.013 --     9 C    0.985
    31   1 H    1.018 --     9 C    0.981
    32   1 H    1.006 --    10 C    0.986
    33   1 H    1.005 --    10 C    0.986
    34   1 H    1.001 --    10 C    0.984
    35   1 H    0.966 --    11 N    0.929
    36   1 H    1.001 --    17 C    0.969
    37   1 H    1.002 --    17 C    0.971
    38   1 H    1.003 --    17 C    0.986
    39   1 H    1.011 --    20 C    0.984
    40   1 H    1.019 --    20 C    0.989
    41   1 H    1.028 --    20 C    0.985
    42   1 H    0.958 --    21 N    0.885
    43   1 H    0.868 --    25 O    0.788
 ---------------------------------------------------------------------------

           -------------------------------------------------
          | TOTAL ENERGY              -83.864817348056 Eh   |
          | GRADIENT NORM               0.000376931320 Eh/α |
          | HOMO-LUMO GAP               0.100348136437 eV   |
           -------------------------------------------------

 * finished run on 2023/06/20 at 15:09:34.982
