   * xtb version 6.5.1 (579679a) compiled by 'ehlert@majestix' on 2022-07-11
          program call               : /lustre/hpc/kemi/ree/PhD/git/ReactivityQM/dep/xtb-6.5.1/bin/xtb --gfn 1 /lustre/hpc/kemi/ree/PhD/git/ReactivityQM/calculations/R01/reac01prodE05/conf10/R01_reac01prodE05_conf10_gfn1.xyz --opt --vfukui --chrg -1 --uhf 0 --alpb DMSO

   ID    Z sym.   atoms
    1    6 C      1, 3, 5, 8-10
    2    8 O      2, 4, 11
    3    7 N      6, 7
    4    1 H      12-20

      * Solvation model:               ALPB
        Solvent                        DMSO
        Solvent mass                       7.8130E+01 g/mol
          :  Hamiltonian                  GFN1-xTB          :
 * total energy  :   -38.2552202 Eh     change       -0.1003286E-10 Eh
 * total energy  :   -38.2715311 Eh     change       -0.1631090E-01 Eh
 * total energy  :   -38.2766609 Eh     change       -0.5129814E-02 Eh
 * total energy  :   -38.2772423 Eh     change       -0.5814626E-03 Eh
 * total energy  :   -38.2776683 Eh     change       -0.4260067E-03 Eh
 * total energy  :   -38.2778142 Eh     change       -0.1458635E-03 Eh
 * total energy  :   -38.2778896 Eh     change       -0.7538374E-04 Eh
 * total energy  :   -38.2779317 Eh     change       -0.4209438E-04 Eh
 * total energy  :   -38.2779542 Eh     change       -0.2253212E-04 Eh
 * total energy  :   -38.2779697 Eh     change       -0.1552806E-04 Eh
 * total energy  :   -38.2779819 Eh     change       -0.1213577E-04 Eh
 * total energy  :   -38.2779846 Eh     change       -0.2715677E-05 Eh
   *** GEOMETRY OPTIMIZATION CONVERGED AFTER 12 ITERATIONS ***

 final structure:
================
20
 xtb: 6.5.1 (579679a)
C            4.07171404188446        0.71480241490727        0.29585187982357
O            2.68260725657175        0.79076099738290        0.09348091808510
C            1.98945402344978       -0.46038964345068        0.33802651624712
O            2.68206418311461       -1.47734813995883        0.68048462635092
C            0.64800137687285       -0.37500338819493        0.16284322689629
N           -0.31819908907255       -1.40829310855446        0.32219863674218
N           -1.46103383129788       -0.80054971419753        0.03936669233495
C           -2.68716120754150       -1.55796681739811        0.11276809172486
C           -1.35829739641509        0.47637904128495       -0.26105672853916
C           -2.44080425423157        1.40771822103603       -0.66976994462353
O           -0.04288954959161        0.86273325190046       -0.23153231443827
H            4.54546892600277       -0.02070470535603       -0.37199121461629
H            4.49111106908511        1.70192548657703        0.08258868493169
H            4.32203220667979        0.44226785830796        1.33248908663464
H           -3.27245561478210       -1.23642155956570        0.97452801003321
H           -2.42918618653535       -2.60977344847679        0.21675599194010
H           -3.27118540631440       -1.40543876232689       -0.79347435857620
H           -3.28253984746752        1.35539744878621        0.02206297114655
H           -2.05146544562354        2.42423996054038       -0.67553514473402
H           -2.81723725478835        1.17566460675689       -1.67008562736374

          :  Hamiltonian                  GFN1-xTB          :
         :: total energy             -38.277984589903 Eh    ::
         :: gradient norm              0.000681061306 Eh/a0 ::
         :: HOMO-LUMO gap              0.970596468385 eV    ::
         :: SCC energy               -38.591325733742 Eh    ::
         :: -> Gsolv                  -0.121745563731 Eh    ::
         :: repulsion energy           0.321482242624 Eh    ::

    * Orbital Energies and Occupations

         #    Occupation            Energy/Eh            Energy/eV
      -------------------------------------------------------------
         1        2.0000           -0.8003367             -21.7783
       ...           ...                  ...                  ...
        19        2.0000           -0.5140736             -13.9887
        20        2.0000           -0.5112167             -13.9109
        21        2.0000           -0.5035688             -13.7028
        22        2.0000           -0.4850966             -13.2001
        23        2.0000           -0.4659705             -12.6797
        24        2.0000           -0.4595977             -12.5063
        25        2.0000           -0.4554164             -12.3925
        26        2.0000           -0.4371301             -11.8949
        27        2.0000           -0.4068898             -11.0720
        28        2.0000           -0.4028713             -10.9627
        29        2.0000           -0.3698626             -10.0645
        30        2.0000           -0.3654273              -9.9438
        31        2.0000           -0.2579760              -7.0199 (HOMO)
        32                         -0.2223072              -6.0493 (LUMO)
        33                         -0.1398032              -3.8042
        34                         -0.1242877              -3.3820
        35                         -0.0997797              -2.7151
        36                         -0.0987024              -2.6858
        37                         -0.0810439              -2.2053
        38                         -0.0701543              -1.9090
        39                         -0.0532505              -1.4490
        40                         -0.0483018              -1.3144
        41                         -0.0382175              -1.0400
        42                         -0.0351043              -0.9552
       ...                                ...                  ...
        62                          0.7117806              19.3685
      -------------------------------------------------------------
                  HL-Gap            0.0356688 Eh            0.9706 eV

Wiberg/Mayer (AO) data.
largest (>0.10) Wiberg bond orders for each atom

     #   Z sym  total        # sym  WBO       # sym  WBO       # sym  WBO
 ---------------------------------------------------------------------------
     1   6 C    3.932 --    13 H    0.986    14 H    0.980    12 H    0.979
                             2 O    0.970
     2   8 O    2.001 --     1 C    0.970     3 C    0.856
     3   6 C    3.877 --     5 C    1.544     4 O    1.309     2 O    0.856
     4   8 O    1.639 --     3 C    1.309     5 C    0.167
     5   6 C    3.711 --     3 C    1.544     6 N    1.059    11 O    0.836
                             4 O    0.167
     6   7 N    2.758 --     7 N    1.186     5 C    1.059     9 C    0.329
     7   7 N    3.635 --     9 C    1.374     6 N    1.186     8 C    0.952
     8   6 C    3.956 --    16 H    0.985    17 H    0.983    15 H    0.980
                             7 N    0.952
     9   6 C    3.866 --     7 N    1.374    11 O    1.028    10 C    1.024
                             6 N    0.329
    10   6 C    3.994 --     9 C    1.024    19 H    0.983    18 H    0.977
                            20 H    0.969
    11   8 O    2.085 --     9 C    1.028     5 C    0.836
    12   1 H    1.028 --     1 C    0.979
    13   1 H    1.023 --     1 C    0.986
    14   1 H    1.027 --     1 C    0.980
    15   1 H    1.003 --     8 C    0.980
    16   1 H    1.014 --     8 C    0.985
    17   1 H    1.003 --     8 C    0.983
    18   1 H    1.005 --    10 C    0.977
    19   1 H    1.004 --    10 C    0.983
    20   1 H    1.004 --    10 C    0.969
 ---------------------------------------------------------------------------

           -------------------------------------------------
          | TOTAL ENERGY              -38.277984589903 Eh   |
          | GRADIENT NORM               0.000681061306 Eh/α |
          | HOMO-LUMO GAP               0.970596468385 eV   |
           -------------------------------------------------

 * finished run on 2023/06/20 at 14:53:59.199
