   * xtb version 6.5.1 (579679a) compiled by 'ehlert@majestix' on 2022-07-11
          program call               : /lustre/hpc/kemi/ree/PhD/git/ReactivityQM/dep/xtb-6.5.1/bin/xtb --gfn 1 /lustre/hpc/kemi/ree/PhD/git/ReactivityQM/calculations/R02methylcation/reac01prodN18/conf06/R02methylcation_reac01prodN18_conf06_gfn1.xyz --opt --vfukui --chrg 0 --uhf 0 --alpb DMSO

   ID    Z sym.   atoms
    1    6 C      1, 3, 5, 6, 8, 11-15, 17, 19, 22, 23
    2    8 O      2, 4, 7, 9, 18, 24
    3    7 N      10, 16, 20, 21, 25
    4    1 H      26-42

      * Solvation model:               ALPB
        Solvent                        DMSO
        Solvent mass                       7.8130E+01 g/mol
          :  Hamiltonian                  GFN1-xTB          :
 * total energy  :   -82.9250817 Eh     change       -0.7148060E-11 Eh
 * total energy  :   -82.9409819 Eh     change       -0.1590017E-01 Eh
 * total energy  :   -82.9477555 Eh     change       -0.6773622E-02 Eh
 * total energy  :   -82.9491546 Eh     change       -0.1399059E-02 Eh
 * total energy  :   -82.9500331 Eh     change       -0.8785647E-03 Eh
 * total energy  :   -82.9505810 Eh     change       -0.5478596E-03 Eh
 * total energy  :   -82.9510126 Eh     change       -0.4315598E-03 Eh
 * total energy  :   -82.9513299 Eh     change       -0.3173410E-03 Eh
 * total energy  :   -82.9515272 Eh     change       -0.1972820E-03 Eh
 * total energy  :   -82.9516330 Eh     change       -0.1057723E-03 Eh
 * total energy  :   -82.9523154 Eh     change       -0.1095543E-04 Eh
 * total energy  :   -82.9523252 Eh     change       -0.9816471E-05 Eh
 * total energy  :   -82.9523370 Eh     change       -0.1177381E-04 Eh
 * total energy  :   -82.9523514 Eh     change       -0.1437284E-04 Eh
 * total energy  :   -82.9523679 Eh     change       -0.1650360E-04 Eh
 * total energy  :   -82.9523837 Eh     change       -0.1583201E-04 Eh
 * total energy  :   -82.9523903 Eh     change       -0.6552021E-05 Eh
 * total energy  :   -82.9523955 Eh     change       -0.5261201E-05 Eh
 * total energy  :   -82.9524003 Eh     change       -0.4736130E-05 Eh
   *** GEOMETRY OPTIMIZATION CONVERGED AFTER 43 ITERATIONS ***

 final structure:
================
42
 xtb: 6.5.1 (579679a)
C            6.68505839339507       -0.08138420240464        0.89418799664810
O            5.46597377490375       -0.08413500845083        0.15416621974566
C            4.33779961118270       -0.20567615785748        0.87315741645280
O            4.35182901241244       -0.31067419912913        2.08663199737245
C            3.11346993551460       -0.17283635088533        0.06576066986278
C            3.08400896341170       -0.15481246042452       -1.34241475872162
O            4.02636239436109       -0.14977788125957       -2.13787810572367
C            1.68426267863880       -0.22512316401463       -1.94410291333772
O            1.34573672201164       -0.56736073577895       -3.03024048209208
N            0.60162003803504        0.31425541890541       -1.03515225727327
C            0.68517331513666        1.79857426886680       -1.18351587260525
C            0.79584062796026       -0.09702106597323        0.37929993209434
C           -0.42892906389069       -0.34742683853244        1.23394929674956
C           -0.36535627625381        0.52895044474932        2.49198249164111
C           -0.41687116933896       -1.83035048715232        1.63800411926115
N           -1.66581221540016       -0.13495983247972        0.47627856471690
C           -2.31784887001683        1.04673022798655        0.34844796139570
O           -1.85388392632307        2.14389003351024        0.61135915032604
C           -3.68238413291961        0.88668825105500       -0.20187195678898
N           -4.54637210920020        1.81867487076312       -0.45912890074429
N           -5.66463619265759        1.20060028847493       -0.92592300266619
C           -5.41776832269428       -0.07301686230470       -0.92481184084638
C           -6.31691846319813       -1.17188648692231       -1.33684341421799
O           -4.17965636248819       -0.33865209011192       -0.47788988620054
N            1.95959037055335       -0.28020355588056        0.82448647414681
H            6.80571648413616       -1.02452855398908        1.43395884544372
H            7.49128497208201        0.04277388278122        0.17300096769536
H            6.69250609362932        0.74407826141733        1.61128125624484
H           -0.30292594371039       -0.00713424368586       -1.37860646338542
H           -0.09086538074655        2.24660084034664       -0.56910596399948
H            0.53059772941608        2.03853359329070       -2.23246450439859
H            1.66772288617768        2.12786913058135       -0.85287621913296
H           -0.27546326786817        1.58139207233859        2.23266939664542
H           -1.26138792869261        0.38025311019317        3.09108993909205
H            0.50910024910057        0.23537022914524        3.07181023126943
H           -1.25731507069448       -2.03890852234939        2.29695198167629
H           -0.49083781944534       -2.46288960873256        0.75522958435446
H            0.51316557289570       -2.05657703979335        2.15784497341767
H           -2.20094645640573       -0.96523059659918        0.27461589538967
H           -5.84324150545529       -1.76609414064078       -2.11832566688757
H           -6.51277640828471       -1.82761923767643       -0.48815274651473
H           -7.25462193927179       -0.76095360138588       -1.70391140609921

          :  Hamiltonian                  GFN1-xTB          :
         :: total energy             -82.952400280002 Eh    ::
         :: gradient norm              0.000918609763 Eh/a0 ::
         :: HOMO-LUMO gap              1.641150731680 eV    ::
         :: SCC energy               -83.733065813550 Eh    ::
         :: -> Gsolv                  -0.072840615683 Eh    ::
         :: repulsion energy           0.807818023798 Eh    ::

    * Orbital Energies and Occupations

         #    Occupation            Energy/Eh            Energy/eV
      -------------------------------------------------------------
         1        2.0000           -0.8746803             -23.8013
       ...           ...                  ...                  ...
        55        2.0000           -0.5078269             -13.8187
        56        2.0000           -0.5038477             -13.7104
        57        2.0000           -0.5028035             -13.6820
        58        2.0000           -0.4840480             -13.1716
        59        2.0000           -0.4826856             -13.1345
        60        2.0000           -0.4751646             -12.9299
        61        2.0000           -0.4714786             -12.8296
        62        2.0000           -0.4675570             -12.7229
        63        2.0000           -0.4621542             -12.5759
        64        2.0000           -0.4565883             -12.4244
        65        2.0000           -0.4544772             -12.3670
        66        2.0000           -0.4293068             -11.6820
        67        2.0000           -0.4095090             -11.1433 (HOMO)
        68                         -0.3491978              -9.5022 (LUMO)
        69                         -0.3192497              -8.6872
        70                         -0.2879533              -7.8356
        71                         -0.2599817              -7.0745
        72                         -0.2500958              -6.8055
        73                         -0.2067428              -5.6258
        74                         -0.1640220              -4.4633
        75                         -0.1483531              -4.0369
        76                         -0.1427499              -3.8844
        77                         -0.1375669              -3.7434
        78                         -0.1334921              -3.6325
       ...                                ...                  ...
       134                          0.7717436              21.0002
      -------------------------------------------------------------
                  HL-Gap            0.0603112 Eh            1.6412 eV

Wiberg/Mayer (AO) data.
largest (>0.10) Wiberg bond orders for each atom

     #   Z sym  total        # sym  WBO       # sym  WBO       # sym  WBO
 ---------------------------------------------------------------------------
     1   6 C    3.884 --    27 H    0.986    28 H    0.980    26 H    0.980
                             2 O    0.910
     2   8 O    2.181 --     3 C    1.081     1 C    0.910     4 O    0.121
     3   6 C    3.860 --     4 O    1.608     2 O    1.081     5 C    1.074
     4   8 O    1.882 --     3 C    1.608     2 O    0.121
     5   6 C    3.906 --     6 C    1.297    25 N    1.119     3 C    1.074
                             7 O    0.152
     6   6 C    3.942 --     7 O    1.548     5 C    1.297     8 C    0.921
     7   8 O    1.890 --     6 C    1.548     5 C    0.152
     8   6 C    3.783 --     9 O    1.850     6 C    0.921    10 N    0.838
     9   8 O    2.066 --     8 C    1.850
    10   7 N    3.606 --    11 C    0.880    29 H    0.877    12 C    0.856
                             8 C    0.838
    11   6 C    3.883 --    32 H    0.985    31 H    0.982    30 H    0.965
                            10 N    0.880
    12   6 C    3.891 --    25 N    1.780    13 C    0.979    10 N    0.856
    13   6 C    3.932 --    14 C    0.980    15 C    0.979    12 C    0.979
                            16 N    0.928
    14   6 C    3.986 --    34 H    0.984    35 H    0.983    13 C    0.980
                            33 H    0.980
    15   6 C    3.986 --    37 H    0.984    36 H    0.983    38 H    0.982
                            13 C    0.979
    16   7 N    3.332 --    17 C    1.236    13 C    0.928    39 H    0.891
                            18 O    0.168
    17   6 C    3.913 --    18 O    1.583    16 N    1.236    19 C    1.001
    18   8 O    1.918 --    17 C    1.583    16 N    0.168
    19   6 C    3.875 --    20 N    1.617    24 O    1.046    17 C    1.001
    20   7 N    3.004 --    19 C    1.617    21 N    1.205
    21   7 N    2.982 --    22 C    1.604    20 N    1.205
    22   6 C    3.866 --    21 N    1.604    24 O    1.073    23 C    1.033
    23   6 C    3.985 --    22 C    1.033    42 H    0.982    40 H    0.963
                            41 H    0.961
    24   8 O    2.318 --    22 C    1.073    19 C    1.046
    25   7 N    3.082 --    12 C    1.780     5 C    1.119
    26   1 H    1.010 --     1 C    0.980
    27   1 H    1.013 --     1 C    0.986
    28   1 H    1.010 --     1 C    0.980
    29   1 H    0.938 --    10 N    0.877
    30   1 H    1.008 --    11 C    0.965
    31   1 H    0.992 --    11 C    0.982
    32   1 H    0.997 --    11 C    0.985
    33   1 H    1.013 --    14 C    0.980
    34   1 H    0.998 --    14 C    0.984
    35   1 H    1.005 --    14 C    0.983
    36   1 H    0.996 --    15 C    0.983
    37   1 H    0.998 --    15 C    0.984
    38   1 H    1.005 --    15 C    0.982
    39   1 H    0.934 --    16 N    0.891
    40   1 H    0.996 --    23 C    0.963
    41   1 H    0.996 --    23 C    0.961
    42   1 H    0.998 --    23 C    0.982
 ---------------------------------------------------------------------------

           -------------------------------------------------
          | TOTAL ENERGY              -82.952400280002 Eh   |
          | GRADIENT NORM               0.000918609763 Eh/α |
          | HOMO-LUMO GAP               1.641150731680 eV   |
           -------------------------------------------------

 * finished run on 2023/06/21 at 18:01:05.976
