   * xtb version 6.5.1 (579679a) compiled by 'ehlert@majestix' on 2022-07-11
          program call               : /lustre/hpc/kemi/ree/PhD/git/ReactivityQM/dep/xtb-6.5.1/bin/xtb --gfn 1 /lustre/hpc/kemi/ree/PhD/git/ReactivityQM/calculations/RaltegravirCLI/reac01prodE06/conf01/RaltegravirCLI_reac01prodE06_conf01_gfn1.xyz --opt --vfukui --chrg -1 --uhf 0 --alpb DMSO

   ID    Z sym.   atoms
    1    6 C      1, 3, 5, 8, 9
    2    8 O      2, 10
    3   17 Cl     4
    4    7 N      6, 7
    5    1 H      11-16

      * Solvation model:               ALPB
        Solvent                        DMSO
        Solvent mass                       7.8130E+01 g/mol
          :  Hamiltonian                  GFN1-xTB          :
 * total energy  :   -34.1094510 Eh     change       -0.6679102E-12 Eh
 * total energy  :   -34.1144972 Eh     change       -0.5046194E-02 Eh
 * total energy  :   -34.1163100 Eh     change       -0.1812767E-02 Eh
 * total energy  :   -34.1169678 Eh     change       -0.6577549E-03 Eh
 * total energy  :   -34.1180398 Eh     change       -0.1072017E-02 Eh
 * total energy  :   -34.1196061 Eh     change       -0.1566373E-02 Eh
 * total energy  :   -34.1207627 Eh     change       -0.1156521E-02 Eh
 * total energy  :   -34.1221837 Eh     change       -0.1421070E-02 Eh
 * total energy  :   -34.1232168 Eh     change       -0.1033082E-02 Eh
 * total energy  :   -34.1238761 Eh     change       -0.6593211E-03 Eh
 * total energy  :   -34.1271748 Eh     change       -0.6531784E-04 Eh
 * total energy  :   -34.1271743 Eh     change        0.4462910E-06 Eh
 * total energy  :   -34.1272288 Eh     change       -0.5450220E-04 Eh
 * total energy  :   -34.1272489 Eh     change       -0.2009205E-04 Eh
 * total energy  :   -34.1271960 Eh     change        0.5291655E-04 Eh
 * total energy  :   -34.1272865 Eh     change       -0.9051160E-04 Eh
 * total energy  :   -34.1272926 Eh     change       -0.6056449E-05 Eh
 * total energy  :   -34.1273036 Eh     change       -0.1104847E-04 Eh
 * total energy  :   -34.1273084 Eh     change       -0.4780030E-05 Eh
   *** GEOMETRY OPTIMIZATION CONVERGED AFTER 35 ITERATIONS ***

 final structure:
================
16
 xtb: 6.5.1 (579679a)
C           -3.09276652827989        0.70190424938919       -0.26031256923251
O           -2.02836721412156        0.11881672591373       -0.99544493571415
C           -1.37436382294250       -0.91540466638339       -0.32425085681015
Cl          -2.13769219650269       -2.53178377806335       -0.62250467904464
C            0.01418062559283       -0.92777190519240       -0.27808330522692
N            0.81366999015042       -1.95148152098740        0.04096127706294
N            2.07628101398438       -1.41137827271662        0.22470708782514
C            1.98923046232357       -0.14609371075555        0.02406692780403
C            3.07776062217014        0.86365594492262        0.10486848796541
O            0.72386391112054        0.25646768226293       -0.30101584154125
H           -3.43875952727239        1.57243209045651       -0.81991656541085
H           -3.92397706098104       -0.00475644244696       -0.14431799371712
H           -2.75825074837886        1.01731259531511        0.73585691983845
H            2.81209376072029        1.65785223573761        0.80347149294127
H            3.25406460846462        1.31889422128602       -0.87104625043448
H            3.99303010395205        0.38133355126194        0.44214780369460

          :  Hamiltonian                  GFN1-xTB          :
         :: total energy             -34.127308418321 Eh    ::
         :: gradient norm              0.000701938912 Eh/a0 ::
         :: HOMO-LUMO gap              2.918413509225 eV    ::
         :: SCC energy               -34.377679158749 Eh    ::
         :: -> Gsolv                  -0.095801148648 Eh    ::
         :: repulsion energy           0.257180697964 Eh    ::

    * Orbital Energies and Occupations

         #    Occupation            Energy/Eh            Energy/eV
      -------------------------------------------------------------
         1        2.0000           -0.8514829             -23.1700
       ...           ...                  ...                  ...
        16        2.0000           -0.5124437             -13.9443
        17        2.0000           -0.5082922             -13.8313
        18        2.0000           -0.4890933             -13.3089
        19        2.0000           -0.4824692             -13.1287
        20        2.0000           -0.4709207             -12.8144
        21        2.0000           -0.4525132             -12.3135
        22        2.0000           -0.4347586             -11.8304
        23        2.0000           -0.4296223             -11.6906
        24        2.0000           -0.4254327             -11.5766
        25        2.0000           -0.4063601             -11.0576
        26        2.0000           -0.3954623             -10.7611
        27        2.0000           -0.3814865             -10.3808
        28        2.0000           -0.3032800              -8.2527 (HOMO)
        29                         -0.1960302              -5.3343 (LUMO)
        30                         -0.1734668              -4.7203
        31                         -0.1378212              -3.7503
        32                         -0.1194143              -3.2494
        33                         -0.1071272              -2.9151
        34                         -0.0531031              -1.4450
        35                         -0.0521026              -1.4178
        36                         -0.0507129              -1.3800
        37                         -0.0498040              -1.3552
        38                          0.0112015               0.3048
        39                          0.0168428               0.4583
       ...                                ...                  ...
        57                          0.6409987              17.4425
      -------------------------------------------------------------
                  HL-Gap            0.1072497 Eh            2.9184 eV

Wiberg/Mayer (AO) data.
largest (>0.10) Wiberg bond orders for each atom

     #   Z sym  total        # sym  WBO       # sym  WBO       # sym  WBO
 ---------------------------------------------------------------------------
     1   6 C    3.929 --    11 H    0.986    12 H    0.982    13 H    0.982
                             2 O    0.948
     2   8 O    2.049 --     3 C    0.974     1 C    0.948
     3   6 C    3.492 --     5 C    1.384     2 O    0.974     4 Cl   0.838
                             6 N    0.150
     4  17 Cl   0.940 --     3 C    0.838
     5   6 C    3.866 --     3 C    1.384     6 N    1.373    10 O    0.979
     6   7 N    2.845 --     5 C    1.373     7 N    1.141     3 C    0.150
     7   7 N    2.983 --     8 C    1.680     6 N    1.141
     8   6 C    3.889 --     7 N    1.680     9 C    1.019    10 O    1.014
     9   6 C    3.995 --     8 C    1.019    16 H    0.986    14 H    0.975
                            15 H    0.973
    10   8 O    2.208 --     8 C    1.014     5 C    0.979
    11   1 H    1.021 --     1 C    0.986
    12   1 H    1.024 --     1 C    0.982
    13   1 H    1.027 --     1 C    0.982
    14   1 H    1.005 --     9 C    0.975
    15   1 H    1.006 --     9 C    0.973
    16   1 H    1.006 --     9 C    0.986
 ---------------------------------------------------------------------------

           -------------------------------------------------
          | TOTAL ENERGY              -34.127308418321 Eh   |
          | GRADIENT NORM               0.000701938912 Eh/α |
          | HOMO-LUMO GAP               2.918413509225 eV   |
           -------------------------------------------------

 * finished run on 2023/06/20 at 14:54:03.674
