                         Program Version 5.0.1 -  RELEASE  -
|  1> # ORCA input file
|  2> ! SP r2SCAN-3c CPCM
|  3>
|  4> %maxcore 1875.0
|  5> %pal nprocs 4 end
|  6> %cpcm smd true SMDsolvent "DMSO" end
|  7>
|  8> *xyz 1 1
|  9> C      -6.212756   -1.071456    0.011392
| 10> O      -5.525890    0.041311   -0.599069
| 11> C      -4.281684    0.244415   -0.389890
| 12> C      -3.668832    1.412031   -1.050238
| 13> O      -3.672120   -0.586186    0.379619
| 14> C      -2.342378   -0.594817    0.787063
| 15> N      -1.508849    0.356269    0.303683
| 16> C      -0.266910    0.332140    0.686755
| 17> C       0.709082    1.380545    0.204875
| 18> C       0.952312    2.389877    1.331801
| 19> C       0.189810    2.075305   -1.056271
| 20> N       1.975027    0.710913   -0.084655
| 21> C       2.002998   -0.370559   -0.901173
| 22> O       1.003372   -0.947585   -1.296217
| 23> C       3.375215   -0.809814   -1.230549
| 24> N       3.742804   -1.840900   -1.925566
| 25> N       5.103392   -1.831410   -1.952765
| 26> C       5.485074   -0.793889   -1.273323
| 27> C       6.865988   -0.339944   -1.002870
| 28> O       4.439338   -0.104869   -0.789247
| 29> N       0.195368   -0.584449    1.573485
| 30> C      -0.571589   -1.598434    2.112600
| 31> O      -0.128800   -2.418638    2.894334
| 32> C      -1.955271   -1.576733    1.654466
| 33> O      -2.787771   -2.517667    2.114074
| 34> H      -5.819205   -2.001423   -0.399725
| 35> H      -7.263265   -0.944417   -0.239299
| 36> H      -6.057410   -1.044367    1.089738
| 37> H      -4.421861    1.954155   -1.617560
| 38> H      -2.863998    1.076136   -1.704929
| 39> H      -3.215035    2.056587   -0.297711
| 40> H       0.015922    2.877180    1.597807
| 41> H       1.662898    3.144150    0.999084
| 42> H       1.353181    1.885800    2.209023
| 43> H      -0.035539    1.336317   -1.824114
| 44> H       0.944729    2.764393   -1.429190
| 45> H      -0.715444    2.630879   -0.820398
| 46> H       2.828334    1.201821    0.124942
| 47> H       7.062524   -0.373401    0.068877
| 48> H       7.573708   -0.980271   -1.524431
| 49> H       6.987050    0.691272   -1.333102
| 50> H       1.164112   -0.544868    1.860587
| 51> H      -2.317635   -3.100004    2.738090
| 52> **                         ****END OF INPUT****

CARTESIAN COORDINATES (ANGSTROEM)
---------------------------------
  C     -6.212756   -1.071456    0.011392
  O     -5.525890    0.041311   -0.599069
  C     -4.281684    0.244415   -0.389890
  C     -3.668832    1.412031   -1.050238
  O     -3.672120   -0.586186    0.379619
  C     -2.342378   -0.594817    0.787063
  N     -1.508849    0.356269    0.303683
  C     -0.266910    0.332140    0.686755
  C      0.709082    1.380545    0.204875
  C      0.952312    2.389877    1.331801
  C      0.189810    2.075305   -1.056271
  N      1.975027    0.710913   -0.084655
  C      2.002998   -0.370559   -0.901173
  O      1.003372   -0.947585   -1.296217
  C      3.375215   -0.809814   -1.230549
  N      3.742804   -1.840900   -1.925566
  N      5.103392   -1.831410   -1.952765
  C      5.485074   -0.793889   -1.273323
  C      6.865988   -0.339944   -1.002870
  O      4.439338   -0.104869   -0.789247
  N      0.195368   -0.584449    1.573485
  C     -0.571589   -1.598434    2.112600
  O     -0.128800   -2.418638    2.894334
  C     -1.955271   -1.576733    1.654466
  O     -2.787771   -2.517667    2.114074
  H     -5.819205   -2.001423   -0.399725
  H     -7.263265   -0.944417   -0.239299
  H     -6.057410   -1.044367    1.089738
  H     -4.421861    1.954155   -1.617560
  H     -2.863998    1.076136   -1.704929
  H     -3.215035    2.056587   -0.297711
  H      0.015922    2.877180    1.597807
  H      1.662898    3.144150    0.999084
  H      1.353181    1.885800    2.209023
  H     -0.035539    1.336317   -1.824114
  H      0.944729    2.764393   -1.429190
  H     -0.715444    2.630879   -0.820398
  H      2.828334    1.201821    0.124942
  H      7.062524   -0.373401    0.068877
  H      7.573708   -0.980271   -1.524431
  H      6.987050    0.691272   -1.333102
  H      1.164112   -0.544868    1.860587
  H     -2.317635   -3.100004    2.738090

 Total Charge           Charge          ....    1
 Multiplicity           Mult            ....    1
 Number of Electrons    NEL             ....  184
 Basis Dimension        Dim             ....  620

ORBITAL ENERGIES
----------------

  NO   OCC          E(Eh)            E(eV)
   0   2.0000     -19.094567      -519.5896
   1   2.0000     -19.076854      -519.1076
   2   2.0000     -19.070181      -518.9260
   3   2.0000     -19.015039      -517.4255
   4   2.0000     -18.948709      -515.6206
   5   2.0000     -18.946473      -515.5597
   6   2.0000     -14.239991      -387.4898
   7   2.0000     -14.210559      -386.6890
   8   2.0000     -14.210332      -386.6828
   9   2.0000     -14.201240      -386.4354
  10   2.0000     -14.187976      -386.0745
  11   2.0000     -10.253084      -279.0006
  12   2.0000     -10.173479      -276.8344
  13   2.0000     -10.166164      -276.6354
  14   2.0000     -10.165298      -276.6118
  15   2.0000     -10.151666      -276.2409
  16   2.0000     -10.148158      -276.1454
  17   2.0000     -10.147460      -276.1264
  18   2.0000     -10.135998      -275.8145
  19   2.0000     -10.112997      -275.1886
  20   2.0000     -10.107367      -275.0354
  21   2.0000     -10.062648      -273.8186
  22   2.0000     -10.047553      -273.4078
  23   2.0000     -10.033979      -273.0385
  24   2.0000     -10.025103      -272.7969
  25   2.0000      -1.184027       -32.2190
  26   2.0000      -1.160267       -31.5725
  27   2.0000      -1.108645       -30.1678
  28   2.0000      -1.070054       -29.1176
  29   2.0000      -1.038556       -28.2606
  30   2.0000      -1.032614       -28.0988
  31   2.0000      -0.986986       -26.8572
  32   2.0000      -0.980607       -26.6837
  33   2.0000      -0.923917       -25.1411
  34   2.0000      -0.900640       -24.5076
  35   2.0000      -0.837166       -22.7805
  36   2.0000      -0.815299       -22.1854
  37   2.0000      -0.789327       -21.4787
  38   2.0000      -0.762183       -20.7401
  39   2.0000      -0.717199       -19.5160
  40   2.0000      -0.717157       -19.5148
  41   2.0000      -0.709697       -19.3118
  42   2.0000      -0.674570       -18.3560
  43   2.0000      -0.671548       -18.2738
  44   2.0000      -0.667938       -18.1755
  45   2.0000      -0.608381       -16.5549
  46   2.0000      -0.606971       -16.5165
  47   2.0000      -0.594934       -16.1890
  48   2.0000      -0.582774       -15.8581
  49   2.0000      -0.572212       -15.5707
  50   2.0000      -0.565559       -15.3897
  51   2.0000      -0.540645       -14.7117
  52   2.0000      -0.535392       -14.5687
  53   2.0000      -0.531702       -14.4684
  54   2.0000      -0.519310       -14.1311
  55   2.0000      -0.506851       -13.7921
  56   2.0000      -0.499206       -13.5841
  57   2.0000      -0.475521       -12.9396
  58   2.0000      -0.468851       -12.7581
  59   2.0000      -0.463138       -12.6026
  60   2.0000      -0.444809       -12.1039
  61   2.0000      -0.440946       -11.9988
  62   2.0000      -0.435665       -11.8550
  63   2.0000      -0.423826       -11.5329
  64   2.0000      -0.422538       -11.4978
  65   2.0000      -0.416775       -11.3410
  66   2.0000      -0.409046       -11.1307
  67   2.0000      -0.405506       -11.0344
  68   2.0000      -0.402268       -10.9463
  69   2.0000      -0.395539       -10.7632
  70   2.0000      -0.391050       -10.6410
  71   2.0000      -0.389981       -10.6119
  72   2.0000      -0.383935       -10.4474
  73   2.0000      -0.374629       -10.1942
  74   2.0000      -0.371832       -10.1180
  75   2.0000      -0.366592        -9.9755
  76   2.0000      -0.364877        -9.9288
  77   2.0000      -0.360568        -9.8116
  78   2.0000      -0.358885        -9.7657
  79   2.0000      -0.349192        -9.5020
  80   2.0000      -0.346874        -9.4389
  81   2.0000      -0.345043        -9.3891
  82   2.0000      -0.331089        -9.0094
  83   2.0000      -0.318962        -8.6794
  84   2.0000      -0.295431        -8.0391
  85   2.0000      -0.287793        -7.8312
  86   2.0000      -0.272228        -7.4077
  87   2.0000      -0.268024        -7.2933
  88   2.0000      -0.266360        -7.2480
  89   2.0000      -0.260320        -7.0837
  90   2.0000      -0.254844        -6.9347
  91   2.0000      -0.221339        -6.0229
  92   0.0000      -0.115258        -3.1363
  93   0.0000      -0.095000        -2.5851
  94   0.0000      -0.068733        -1.8703
  95   0.0000      -0.045149        -1.2286
  96   0.0000      -0.024410        -0.6642

MULLIKEN ATOMIC CHARGES
-----------------------
   0 C :   -0.305289
   1 O :   -0.122780
   2 C :    0.495762
   3 C :   -0.510422
   4 O :   -0.016782
   5 C :    0.033271
   6 N :   -0.136900
   7 C :    0.125128
   8 C :    0.092365
   9 C :   -0.519056
  10 C :   -0.610609
  11 N :   -0.200599
  12 C :   -0.103031
  13 O :   -0.416110
  14 C :    0.425829
  15 N :   -0.165134
  16 N :   -0.280714
  17 C :    0.401659
  18 C :   -0.631866
  19 O :   -0.055845
  20 N :   -0.027526
  21 C :    0.101751
  22 O :   -0.436516
  23 C :    0.146616
  24 O :   -0.383138
  25 H :    0.207720
  26 H :    0.204865
  27 H :    0.201247
  28 H :    0.208668
  29 H :    0.239736
  30 H :    0.234391
  31 H :    0.199456
  32 H :    0.194169
  33 H :    0.191052
  34 H :    0.200439
  35 H :    0.190625
  36 H :    0.188611
  37 H :    0.323838
  38 H :    0.203860
  39 H :    0.206100
  40 H :    0.201046
  41 H :    0.337171
  42 H :    0.366939
Sum of atomic charges:    1.0000000

LOEWDIN ATOMIC CHARGES
----------------------
   0 C :    0.000815
   1 O :   -0.483172
   2 C :    0.497099
   3 C :   -0.283289
   4 O :   -0.378165
   5 C :    0.402723
   6 N :   -0.515453
   7 C :    0.375396
   8 C :    0.104977
   9 C :   -0.332839
  10 C :   -0.338413
  11 N :   -0.573816
  12 C :    0.385774
  13 O :   -0.430974
  14 C :    0.413590
  15 N :   -0.329299
  16 N :   -0.355933
  17 C :    0.382639
  18 C :   -0.316235
  19 O :   -0.389574
  20 N :   -0.428036
  21 C :    0.371414
  22 O :   -0.453268
  23 C :    0.279132
  24 O :   -0.426341
  25 H :    0.200991
  26 H :    0.203440
  27 H :    0.200364
  28 H :    0.196186
  29 H :    0.220616
  30 H :    0.220223
  31 H :    0.180307
  32 H :    0.178166
  33 H :    0.176624
  34 H :    0.181641
  35 H :    0.173923
  36 H :    0.177087
  37 H :    0.303421
  38 H :    0.193413
  39 H :    0.191866
  40 H :    0.192225
  41 H :    0.316698
  42 H :    0.314058

  Mayer bond orders larger than 0.100000
B(  0-C ,  1-O ) :   0.8016 B(  0-C , 25-H ) :   0.9368 B(  0-C , 26-H ) :   0.9472
B(  0-C , 27-H ) :   0.9398 B(  1-O ,  2-C ) :   1.3717 B(  2-C ,  3-C ) :   1.0063
B(  2-C ,  4-O ) :   1.2203 B(  3-C , 28-H ) :   0.9394 B(  3-C , 29-H ) :   0.9026
B(  3-C , 30-H ) :   0.9038 B(  4-O ,  5-C ) :   1.0191 B(  5-C ,  6-N ) :   1.2090
B(  5-C , 23-C ) :   1.4390 B(  5-C , 24-O ) :   0.1460 B(  6-N ,  7-C ) :   1.5642
B(  7-C ,  8-C ) :   0.8123 B(  7-C , 13-O ) :   0.1382 B(  7-C , 20-N ) :   1.1004
B(  8-C ,  9-C ) :   0.9580 B(  8-C , 10-C ) :   0.9063 B(  8-C , 11-N ) :   0.7544
B(  9-C , 31-H ) :   0.9630 B(  9-C , 32-H ) :   0.9590 B(  9-C , 33-H ) :   0.9467
B( 10-C , 34-H ) :   0.9583 B( 10-C , 35-H ) :   0.9703 B( 10-C , 36-H ) :   0.9529
B( 11-N , 12-C ) :   1.1642 B( 11-N , 37-H ) :   0.8902 B( 12-C , 13-O ) :   1.8403
B( 12-C , 14-C ) :   0.8015 B( 12-C , 16-N ) :   0.1079 B( 13-O , 14-C ) :  -0.1015
B( 14-C , 15-N ) :   1.7260 B( 14-C , 17-C ) :   0.1246 B( 14-C , 19-O ) :   1.0748
B( 15-N , 16-N ) :   1.2700 B( 16-N , 17-C ) :   1.6124 B( 17-C , 18-C ) :   0.8255
B( 17-C , 19-O ) :   1.0664 B( 18-C , 38-H ) :   0.9386 B( 18-C , 39-H ) :   0.9887
B( 18-C , 40-H ) :   0.9454 B( 20-N , 21-C ) :   1.0191 B( 20-N , 41-H ) :   0.8770
B( 21-C , 22-O ) :   2.0117 B( 21-C , 23-C ) :   0.9356 B( 23-C , 24-O ) :   0.9797
B( 24-O , 42-H ) :   0.8252

Dispersion correction           -0.019038969
FINAL SINGLE POINT ENERGY     -1269.072033069834

DIPOLE MOMENT
-------------
                                X             Y             Z
Electronic contribution:      0.13237     -13.49902       2.40129
Nuclear contribution   :     -4.25744      17.92796      -1.02889
                        -----------------------------------------
Total Dipole Moment    :     -4.12508       4.42895       1.37240
                        -----------------------------------------
Magnitude (a.u.)       :      6.20607
Magnitude (Debye)      :     15.77458

Rotational constants in cm-1:     0.014828     0.003544     0.003319
Rotational constants in MHz :   444.545969   106.238448    99.506059

                             ****ORCA TERMINATED NORMALLY****
TOTAL RUN TIME: 0 days 0 hours 2 minutes 26 seconds 152 msec
