   * xtb version 6.5.1 (579679a) compiled by 'ehlert@majestix' on 2022-07-11
          program call               : /lustre/hpc/kemi/ree/PhD/git/ReactivityQM/dep/xtb-6.5.1/bin/xtb --gfn 1 /lustre/hpc/kemi/ree/PhD/git/ReactivityQM/calculations/R02/reac01prodN08/conf13/R02_reac01prodN08_conf13_gfn1.xyz --opt --vfukui --chrg 1 --uhf 0 --alpb DMSO

   ID    Z sym.   atoms
    1    6 C      1, 3, 4, 6, 8-11, 13, 15, 18, 19, 22, 24
    2    8 O      2, 5, 14, 20, 23, 25
    3    7 N      7, 12, 16, 17, 21
    4    1 H      26-43

      * Solvation model:               ALPB
        Solvent                        DMSO
        Solvent mass                       7.8130E+01 g/mol
          :  Hamiltonian                  GFN1-xTB          :
 * total energy  :   -83.0193650 Eh     change        0.2149108E-09 Eh
 * total energy  :   -83.0351215 Eh     change       -0.1575655E-01 Eh
 * total energy  :   -83.0454238 Eh     change       -0.1030226E-01 Eh
 * total energy  :   -83.0496370 Eh     change       -0.4213175E-02 Eh
 * total energy  :   -83.0532123 Eh     change       -0.3575355E-02 Eh
 * total energy  :   -83.0561896 Eh     change       -0.2977238E-02 Eh
 * total energy  :   -83.0599949 Eh     change       -0.3805298E-02 Eh
 * total energy  :   -83.0649671 Eh     change       -0.4972280E-02 Eh
 * total energy  :   -83.0687839 Eh     change       -0.3816801E-02 Eh
 * total energy  :   -83.0725938 Eh     change       -0.3809897E-02 Eh
 * total energy  :   -83.1729923 Eh     change       -0.1292024E-04 Eh
 * total energy  :   -83.1730143 Eh     change       -0.2202758E-04 Eh
 * total energy  :   -83.1730305 Eh     change       -0.1610571E-04 Eh
 * total energy  :   -83.1730428 Eh     change       -0.1232013E-04 Eh
 * total energy  :   -83.1730639 Eh     change       -0.2115090E-04 Eh
 * total energy  :   -83.1730628 Eh     change        0.1170399E-05 Eh
 * total energy  :   -83.1730753 Eh     change       -0.1250890E-04 Eh
 * total energy  :   -83.1730838 Eh     change       -0.8515757E-05 Eh
 * total energy  :   -83.1730882 Eh     change       -0.4422915E-05 Eh
   *** GEOMETRY OPTIMIZATION CONVERGED AFTER 94 ITERATIONS ***

 final structure:
================
43
 xtb: 6.5.1 (579679a)
C           -6.21275592033771       -1.07145636476443        0.01139176538067
O           -5.52589043387292        0.04131074201698       -0.59906946258784
C           -4.28168382023448        0.24441511595486       -0.38989007061336
C           -3.66883184281363        1.41203054579884       -1.05023763319476
O           -3.67212011729575       -0.58618645803537        0.37961875248841
C           -2.34237841211733       -0.59481696293018        0.78706284796003
N           -1.50884889470494        0.35626903938694        0.30368256003899
C           -0.26691009909895        0.33213980180194        0.68675499358115
C            0.70908227998770        1.38054460899148        0.20487505999303
C            0.95231237823525        2.38987690322672        1.33180066928011
C            0.18981021635858        2.07530474417183       -1.05627137354346
N            1.97502699243736        0.71091306926418       -0.08465516409316
C            2.00299757414122       -0.37055872105393       -0.90117270790965
O            1.00337228618077       -0.94758498235446       -1.29621676120060
C            3.37521458378338       -0.80981350212643       -1.23054934828454
N            3.74280424493139       -1.84090025602009       -1.92556611740142
N            5.10339237697365       -1.83141048289764       -1.95276477831060
C            5.48507397260100       -0.79388903682054       -1.27332324749013
C            6.86598761830930       -0.33994397141980       -1.00287004961533
O            4.43933811800299       -0.10486933740630       -0.78924746086341
N            0.19536766767915       -0.58444860361893        1.57348485611988
C           -0.57158877736231       -1.59843420029189        2.11259951986157
O           -0.12879977832164       -2.41863816588869        2.89433353732580
C           -1.95527064239793       -1.57673318753738        1.65446573774370
O           -2.78777122280521       -2.51766744932315        2.11407382611476
H           -5.81920501569873       -2.00142272475579       -0.39972488574980
H           -7.26326523917564       -0.94441675548422       -0.23929873497188
H           -6.05741012859366       -1.04436742490300        1.08973806852512
H           -4.42186108220699        1.95415485500441       -1.61755955962408
H           -2.86399789066137        1.07613643332565       -1.70492875635662
H           -3.21503466624762        2.05658669332347       -0.29771053491196
H            0.01592225187484        2.87717984379497        1.59780724381457
H            1.66289763995046        3.14414994690126        0.99908363272378
H            1.35318051951946        1.88579963408687        2.20902256998112
H           -0.03553938841015        1.33631746451906       -1.82411425878738
H            0.94472875121016        2.76439331416042       -1.42918985451226
H           -0.71544363209954        2.63087934589668       -0.82039771762964
H            2.82833370829793        1.20182101651789        0.12494213104502
H            7.06252438003950       -0.37340128249243        0.06887728894330
H            7.57370848218442       -0.98027052826835       -1.52443097076040
H            6.98705007634787        0.69127194715198       -1.33310175842016
H            1.16411177050631       -0.54486758088534        1.86058742284006
H           -2.31763488509138       -3.10000408599685        2.73808972308492

          :  Hamiltonian                  GFN1-xTB          :
         :: total energy             -83.173088202872 Eh    ::
         :: gradient norm              0.000347257658 Eh/a0 ::
         :: HOMO-LUMO gap              2.295887786243 eV    ::
         :: SCC energy               -83.975256491173 Eh    ::
         :: -> Gsolv                  -0.112244245799 Eh    ::
         :: repulsion energy           0.828775107846 Eh    ::

    * Orbital Energies and Occupations

         #    Occupation            Energy/Eh            Energy/eV
      -------------------------------------------------------------
         1        2.0000           -0.9302929             -25.3146
       ...           ...                  ...                  ...
        55        2.0000           -0.5307576             -14.4426
        56        2.0000           -0.5220918             -14.2068
        57        2.0000           -0.5140866             -13.9890
        58        2.0000           -0.5102032             -13.8833
        59        2.0000           -0.5096358             -13.8679
        60        2.0000           -0.4896717             -13.3246
        61        2.0000           -0.4867631             -13.2455
        62        2.0000           -0.4855570             -13.2127
        63        2.0000           -0.4764185             -12.9640
        64        2.0000           -0.4684214             -12.7464
        65        2.0000           -0.4579507             -12.4615
        66        2.0000           -0.4564673             -12.4211
        67        2.0000           -0.4504115             -12.2563 (HOMO)
        68                         -0.3660392              -9.9604 (LUMO)
        69                         -0.3205432              -8.7224
        70                         -0.3180548              -8.6547
        71                         -0.2990293              -8.1370
        72                         -0.2603214              -7.0837
        73                         -0.2059804              -5.6050
        74                         -0.1950101              -5.3065
        75                         -0.1782335              -4.8500
        76                         -0.1646532              -4.4804
        77                         -0.1426374              -3.8814
        78                         -0.1420875              -3.8664
       ...                                ...                  ...
       136                          0.7134000              19.4126
      -------------------------------------------------------------
                  HL-Gap            0.0843723 Eh            2.2959 eV

Wiberg/Mayer (AO) data.
largest (>0.10) Wiberg bond orders for each atom

     #   Z sym  total        # sym  WBO       # sym  WBO       # sym  WBO
 ---------------------------------------------------------------------------
     1   6 C    3.815 --    27 H    0.981    28 H    0.974    26 H    0.971
                             2 O    0.843
     2   8 O    2.324 --     3 C    1.301     1 C    0.843
     3   6 C    3.773 --     2 O    1.301     5 O    1.246     4 C    1.037
     4   6 C    3.965 --     3 C    1.037    29 H    0.974    31 H    0.936
                            30 H    0.934
     5   8 O    2.362 --     3 C    1.246     6 C    0.905
     6   6 C    3.838 --    24 C    1.475     7 N    1.205     5 O    0.905
     7   7 N    3.030 --     8 C    1.522     6 C    1.205
     8   6 C    3.920 --     7 N    1.522    21 N    1.208     9 C    0.980
     9   6 C    3.938 --    11 C    0.989     8 C    0.980    10 C    0.978
                            12 N    0.932
    10   6 C    3.986 --    32 H    0.983    34 H    0.983    33 H    0.980
                             9 C    0.978
    11   6 C    3.987 --     9 C    0.989    36 H    0.983    37 H    0.983
                            35 H    0.981
    12   7 N    3.329 --    13 C    1.235     9 C    0.932    38 H    0.886
                            14 O    0.169
    13   6 C    3.913 --    14 O    1.589    12 N    1.235    15 C    1.002
    14   8 O    1.895 --    13 C    1.589    12 N    0.169
    15   6 C    3.876 --    16 N    1.616    20 O    1.047    13 C    1.002
    16   7 N    3.003 --    15 C    1.616    17 N    1.204
    17   7 N    2.982 --    18 C    1.604    16 N    1.204
    18   6 C    3.866 --    17 N    1.604    20 O    1.075    19 C    1.033
    19   6 C    3.985 --    18 C    1.033    40 H    0.982    41 H    0.963
                            39 H    0.960
    20   8 O    2.318 --    18 C    1.075    15 C    1.047
    21   7 N    3.479 --     8 C    1.208    22 C    1.115    42 H    0.873
                            23 O    0.130
    22   6 C    3.913 --    23 O    1.600    21 N    1.115    24 C    1.069
    23   8 O    1.914 --    22 C    1.600    21 N    0.130
    24   6 C    3.927 --     6 C    1.475    25 O    1.106    22 C    1.069
    25   8 O    2.078 --    24 C    1.106    43 H    0.800
    26   1 H    0.996 --     1 C    0.971
    27   1 H    1.001 --     1 C    0.981
    28   1 H    0.997 --     1 C    0.974
    29   1 H    0.989 --     4 C    0.974
    30   1 H    1.001 --     4 C    0.934
    31   1 H    1.002 --     4 C    0.936
    32   1 H    0.998 --    10 C    0.983
    33   1 H    0.994 --    10 C    0.980
    34   1 H    0.997 --    10 C    0.983
    35   1 H    1.006 --    11 C    0.981
    36   1 H    0.998 --    11 C    0.983
    37   1 H    1.004 --    11 C    0.983
    38   1 H    0.926 --    12 N    0.886
    39   1 H    0.996 --    19 C    0.960
    40   1 H    0.998 --    19 C    0.982
    41   1 H    0.996 --    19 C    0.963
    42   1 H    0.921 --    21 N    0.873
    43   1 H    0.831 --    25 O    0.800
 ---------------------------------------------------------------------------

           -------------------------------------------------
          | TOTAL ENERGY              -83.173088202872 Eh   |
          | GRADIENT NORM               0.000347257658 Eh/α |
          | HOMO-LUMO GAP               2.295887786243 eV   |
           -------------------------------------------------

 * finished run on 2023/06/20 at 15:28:02.997
