   * xtb version 6.5.1 (579679a) compiled by 'ehlert@majestix' on 2022-07-11
          program call               : /lustre/hpc/kemi/ree/PhD/git/ReactivityQM/dep/xtb-6.5.1/bin/xtb --gfn 1 /lustre/hpc/kemi/ree/PhD/git/ReactivityQM/calculations/R02/reac01prodN17/conf10/R02_reac01prodN17_conf10_gfn1.xyz --opt --vfukui --chrg 1 --uhf 0 --alpb DMSO

   ID    Z sym.   atoms
    1    6 C      1, 3, 5, 7-10, 12, 13, 15, 18, 19, 22, 24
    2    8 O      2, 4, 14, 20, 23, 25
    3    7 N      6, 11, 16, 17, 21
    4    1 H      26-43

      * Solvation model:               ALPB
        Solvent                        DMSO
        Solvent mass                       7.8130E+01 g/mol
          :  Hamiltonian                  GFN1-xTB          :
 * total energy  :   -83.1289414 Eh     change       -0.2368949E-10 Eh
 * total energy  :   -83.1414386 Eh     change       -0.1249723E-01 Eh
 * total energy  :   -83.1457849 Eh     change       -0.4346314E-02 Eh
 * total energy  :   -83.1468016 Eh     change       -0.1016739E-02 Eh
 * total energy  :   -83.1475457 Eh     change       -0.7440634E-03 Eh
 * total energy  :   -83.1479169 Eh     change       -0.3711774E-03 Eh
 * total energy  :   -83.1482082 Eh     change       -0.2913276E-03 Eh
 * total energy  :   -83.1484500 Eh     change       -0.2417891E-03 Eh
 * total energy  :   -83.1486418 Eh     change       -0.1917972E-03 Eh
 * total energy  :   -83.1487938 Eh     change       -0.1519834E-03 Eh
 * total energy  :   -83.1509162 Eh     change       -0.1455340E-04 Eh
 * total energy  :   -83.1509352 Eh     change       -0.1899256E-04 Eh
 * total energy  :   -83.1509593 Eh     change       -0.2418143E-04 Eh
 * total energy  :   -83.1509847 Eh     change       -0.2532805E-04 Eh
 * total energy  :   -83.1510017 Eh     change       -0.1702938E-04 Eh
 * total energy  :   -83.1510135 Eh     change       -0.1176420E-04 Eh
 * total energy  :   -83.1510236 Eh     change       -0.1012823E-04 Eh
 * total energy  :   -83.1510337 Eh     change       -0.1015363E-04 Eh
 * total energy  :   -83.1510375 Eh     change       -0.3789561E-05 Eh
   *** GEOMETRY OPTIMIZATION CONVERGED AFTER 44 ITERATIONS ***

 final structure:
================
43
 xtb: 6.5.1 (579679a)
C           -6.06057231952264        0.48716710348522        2.82375944362679
O           -5.20723572189921        0.49056814257399        1.67323868768154
C           -3.91700337970433        0.26366759751008        1.88974584562329
O           -3.44836354934438        0.05338238658457        2.98421501687069
C           -3.09314256623579        0.30491798045110        0.64192281068321
N           -1.74466769333628        0.16510473804993        0.87497128958929
C           -0.90504447990942        0.21031092624541       -0.09838923277384
C            0.57014183707174        0.17225045100896        0.23887848763907
C            1.23727923701424        1.49267308513814       -0.14479407185262
C            0.75888299095361       -0.10202733774012        1.72977906099367
N            1.28795193784468       -0.97040211826100       -0.49446722035515
C            0.47907441190041       -2.21487743755816       -0.60874715940107
C            1.78563197170973       -0.60131938506824       -1.87899571321387
O            1.02126584890025       -0.58264272418785       -2.79330270092226
C            3.19666189719976       -0.34053231979655       -1.89284224873772
N            3.95436711285303       -0.02509966077742       -2.91296224933244
N            5.19316630443959        0.13925315865881       -2.44508977728826
C            5.15516050883767       -0.07822934177029       -1.15246787913546
C            6.26889684233749       -0.01232111585598       -0.19197209485936
O            3.92009517566846       -0.38514182544201       -0.74891188637249
N           -1.29943975062854        0.39145547885800       -1.39348386364291
C           -2.62196195736073        0.51228449972344       -1.75812658722990
O           -2.97686551734011        0.64560107807449       -2.91633917352445
C           -3.55887161627318        0.47777488628060       -0.63305168154554
O           -4.84357092372294        0.62084112396130       -0.95525711404551
H           -7.06860995642299        0.68160611637640        2.46282061226818
H           -5.74835761503881        1.26740029406874        3.52197903914265
H           -6.01375700595352       -0.48413610669738        3.32157024085197
H            2.29752314905355        1.45659909847661        0.09576959377958
H            0.77484214618932        2.29472349903171        0.42984198449719
H            1.11319332088889        1.70759138366151       -1.20425050915557
H            1.81939943308767       -0.13813147864245        1.97052183622765
H            0.28940067864736       -1.04177023502711        2.01435307790854
H            0.29222827228116        0.70170498953524        2.29768793251897
H            2.11603852064078       -1.18293305249533        0.06612925793013
H            1.13978278386529       -3.00069174355740       -0.96499794947798
H            0.08830311091898       -2.46117483848404        0.37374880701057
H           -0.32484346793310       -2.04155110102110       -1.31839281690329
H            6.37702627411388       -0.97366845442246        0.31113025469885
H            6.04943822795250        0.73565980084702        0.57055996427411
H            7.19159574490755        0.24449125163665       -0.70756579511402
H           -0.62079084939597        0.40105286228405       -2.14320061036656
H           -4.92424736929015        0.71856634426325       -1.92258390856694

          :  Hamiltonian                  GFN1-xTB          :
         :: total energy             -83.151037528521 Eh    ::
         :: gradient norm              0.000229389388 Eh/a0 ::
         :: HOMO-LUMO gap              1.558342593569 eV    ::
         :: SCC energy               -83.946748638619 Eh    ::
         :: -> Gsolv                  -0.128433141328 Eh    ::
         :: repulsion energy           0.824209236620 Eh    ::

    * Orbital Energies and Occupations

         #    Occupation            Energy/Eh            Energy/eV
      -------------------------------------------------------------
         1        2.0000           -0.9103636             -24.7723
       ...           ...                  ...                  ...
        55        2.0000           -0.5384134             -14.6510
        56        2.0000           -0.5340835             -14.5332
        57        2.0000           -0.5267428             -14.3334
        58        2.0000           -0.5207606             -14.1706
        59        2.0000           -0.5187911             -14.1170
        60        2.0000           -0.5040568             -13.7161
        61        2.0000           -0.5005315             -13.6202
        62        2.0000           -0.4969211             -13.5219
        63        2.0000           -0.4951230             -13.4730
        64        2.0000           -0.4917952             -13.3824
        65        2.0000           -0.4767990             -12.9744
        66        2.0000           -0.4648635             -12.6496
        67        2.0000           -0.4475634             -12.1788 (HOMO)
        68                         -0.3902953             -10.6205 (LUMO)
        69                         -0.3367199              -9.1626
        70                         -0.3058955              -8.3238
        71                         -0.2959844              -8.0541
        72                         -0.2623648              -7.1393
        73                         -0.2509654              -6.8291
        74                         -0.1738425              -4.7305
        75                         -0.1727622              -4.7011
        76                         -0.1597763              -4.3477
        77                         -0.1574659              -4.2849
        78                         -0.1489646              -4.0535
       ...                                ...                  ...
       136                          0.7273932              19.7934
      -------------------------------------------------------------
                  HL-Gap            0.0572680 Eh            1.5583 eV

Wiberg/Mayer (AO) data.
largest (>0.10) Wiberg bond orders for each atom

     #   Z sym  total        # sym  WBO       # sym  WBO       # sym  WBO
 ---------------------------------------------------------------------------
     1   6 C    3.867 --    26 H    0.986    28 H    0.979    27 H    0.979
                             2 O    0.892
     2   8 O    2.209 --     3 C    1.124     1 C    0.892     4 O    0.137
     3   6 C    3.855 --     4 O    1.661     2 O    1.124     5 C    0.993
     4   8 O    1.924 --     3 C    1.661     2 O    0.137
     5   6 C    3.959 --    24 C    1.505     6 N    1.170     3 C    0.993
     6   7 N    3.035 --     7 C    1.604     5 C    1.170
     7   6 C    3.943 --     6 N    1.604    21 N    1.164     8 C    0.983
     8   6 C    3.884 --    10 C    1.001     9 C    0.991     7 C    0.983
                            11 N    0.833
     9   6 C    3.981 --     8 C    0.991    29 H    0.980    31 H    0.978
                            30 H    0.975
    10   6 C    3.980 --     8 C    1.001    32 H    0.980    33 H    0.977
                            34 H    0.973
    11   7 N    3.589 --    12 C    0.898    35 H    0.877    13 C    0.853
                             8 C    0.833
    12   6 C    3.880 --    38 H    0.980    36 H    0.980    37 H    0.978
                            11 N    0.898
    13   6 C    3.878 --    14 O    1.768    15 C    1.103    11 N    0.853
    14   8 O    2.068 --    13 C    1.768
    15   6 C    3.883 --    16 N    1.518    13 C    1.103    20 O    1.030
    16   7 N    3.021 --    15 C    1.518    17 N    1.295
    17   7 N    2.994 --    18 C    1.511    16 N    1.295
    18   6 C    3.846 --    17 N    1.511    20 O    1.098    19 C    1.045
    19   6 C    3.975 --    18 C    1.045    41 H    0.979    39 H    0.950
                            40 H    0.950
    20   8 O    2.336 --    18 C    1.098    15 C    1.030
    21   7 N    3.464 --     7 C    1.164    22 C    1.130    42 H    0.863
                            23 O    0.134
    22   6 C    3.908 --    23 O    1.594    21 N    1.130    24 C    1.053
    23   8 O    1.916 --    22 C    1.594    21 N    0.134
    24   6 C    3.920 --     5 C    1.505    25 O    1.123    22 C    1.053
    25   8 O    2.101 --    24 C    1.123    43 H    0.801
    26   1 H    1.010 --     1 C    0.986
    27   1 H    1.006 --     1 C    0.979
    28   1 H    1.006 --     1 C    0.979
    29   1 H    0.996 --     9 C    0.980
    30   1 H    0.994 --     9 C    0.975
    31   1 H    0.995 --     9 C    0.978
    32   1 H    0.994 --    10 C    0.980
    33   1 H    1.001 --    10 C    0.977
    34   1 H    1.002 --    10 C    0.973
    35   1 H    0.929 --    11 N    0.877
    36   1 H    0.987 --    12 C    0.980
    37   1 H    0.992 --    12 C    0.978
    38   1 H    0.998 --    12 C    0.980
    39   1 H    0.989 --    19 C    0.950
    40   1 H    0.990 --    19 C    0.950
    41   1 H    0.993 --    19 C    0.979
    42   1 H    0.927 --    21 N    0.863
    43   1 H    0.840 --    25 O    0.801
 ---------------------------------------------------------------------------

           -------------------------------------------------
          | TOTAL ENERGY              -83.151037528521 Eh   |
          | GRADIENT NORM               0.000229389388 Eh/α |
          | HOMO-LUMO GAP               1.558342593569 eV   |
           -------------------------------------------------

 * finished run on 2023/06/20 at 15:43:27.767
