                         Program Version 5.0.1 -  RELEASE  -
|  1> # ORCA input file
|  2> ! SP r2SCAN-3c CPCM
|  3>
|  4> %maxcore 1875.0
|  5> %pal nprocs 4 end
|  6> %cpcm smd true SMDsolvent "DMSO" end
|  7>
|  8> *xyz 1 1
|  9> C      -5.140093    2.140126   -2.589271
| 10> O      -4.107173    1.545785   -1.792271
| 11> C      -4.387310    0.380868   -1.231845
| 12> O      -5.455066   -0.189688   -1.367134
| 13> C      -3.283007   -0.178924   -0.416009
| 14> N      -2.127815    0.539104   -0.328760
| 15> C      -1.131613    0.106473    0.377042
| 16> C       0.072098    1.032655    0.422099
| 17> C      -0.024160    2.060516   -0.711640
| 18> C       0.159754    1.752934    1.770304
| 19> N       1.331830    0.279927    0.224047
| 20> C       1.457458   -0.578896   -0.770896
| 21> O       0.614097   -0.988759   -1.521189
| 22> C       2.941497   -1.179790   -0.902954
| 23> C       2.834868   -2.684384   -0.659231
| 24> N       3.416344   -0.813608   -2.177376
| 25> N       4.424380   -0.053371   -2.059362
| 26> C       4.681160    0.098120   -0.727765
| 27> C       5.756422    0.901657   -0.157645
| 28> O       3.830763   -0.555262   -0.011631
| 29> N      -1.198496   -1.064860    1.078357
| 30> C      -0.134266   -1.607829    1.920891
| 31> C      -2.316651   -1.903456    1.030211
| 32> O      -2.318235   -2.961292    1.636973
| 33> C      -3.421807   -1.386785    0.224638
| 34> O      -4.514606   -2.142312    0.171745
| 35> H      -5.407146    1.472518   -3.411082
| 36> H      -6.021525    2.329401   -1.973169
| 37> H      -4.735816    3.074063   -2.972640
| 38> H      -0.122441    1.554420   -1.670933
| 39> H      -0.894449    2.695629   -0.557071
| 40> H       0.873850    2.674189   -0.717424
| 41> H       1.011420    2.430408    1.766172
| 42> H       0.274185    1.052826    2.593971
| 43> H      -0.750160    2.331538    1.924752
| 44> H       2.131998    0.563372    0.760981
| 45> H       2.512406   -2.855346    0.364951
| 46> H       3.811013   -3.137978   -0.816294
| 47> H       2.107973   -3.097661   -1.356274
| 48> H       5.612113    1.946501   -0.444600
| 49> H       5.775779    0.811052    0.925498
| 50> H       6.710388    0.587848   -0.588190
| 51> H       0.241877   -2.522543    1.461596
| 52> H       0.672413   -0.898953    2.038069
| 53> H      -0.560243   -1.850705    2.894780
| 54> H      -5.204007   -1.709531   -0.385450
| 55> **                         ****END OF INPUT****

CARTESIAN COORDINATES (ANGSTROEM)
---------------------------------
  C     -5.140093    2.140126   -2.589271
  O     -4.107173    1.545785   -1.792271
  C     -4.387310    0.380868   -1.231845
  O     -5.455066   -0.189688   -1.367134
  C     -3.283007   -0.178924   -0.416009
  N     -2.127815    0.539104   -0.328760
  C     -1.131613    0.106473    0.377042
  C      0.072098    1.032655    0.422099
  C     -0.024160    2.060516   -0.711640
  C      0.159754    1.752934    1.770304
  N      1.331830    0.279927    0.224047
  C      1.457458   -0.578896   -0.770896
  O      0.614097   -0.988759   -1.521189
  C      2.941497   -1.179790   -0.902954
  C      2.834868   -2.684384   -0.659231
  N      3.416344   -0.813608   -2.177376
  N      4.424380   -0.053371   -2.059362
  C      4.681160    0.098120   -0.727765
  C      5.756422    0.901657   -0.157645
  O      3.830763   -0.555262   -0.011631
  N     -1.198496   -1.064860    1.078357
  C     -0.134266   -1.607829    1.920891
  C     -2.316651   -1.903456    1.030211
  O     -2.318235   -2.961292    1.636973
  C     -3.421807   -1.386785    0.224638
  O     -4.514606   -2.142312    0.171745
  H     -5.407146    1.472518   -3.411082
  H     -6.021525    2.329401   -1.973169
  H     -4.735816    3.074063   -2.972640
  H     -0.122441    1.554420   -1.670933
  H     -0.894449    2.695629   -0.557071
  H      0.873850    2.674189   -0.717424
  H      1.011420    2.430408    1.766172
  H      0.274185    1.052826    2.593971
  H     -0.750160    2.331538    1.924752
  H      2.131998    0.563372    0.760981
  H      2.512406   -2.855346    0.364951
  H      3.811013   -3.137978   -0.816294
  H      2.107973   -3.097661   -1.356274
  H      5.612113    1.946501   -0.444600
  H      5.775779    0.811052    0.925498
  H      6.710388    0.587848   -0.588190
  H      0.241877   -2.522543    1.461596
  H      0.672413   -0.898953    2.038069
  H     -0.560243   -1.850705    2.894780
  H     -5.204007   -1.709531   -0.385450

 Total Charge           Charge          ....    1
 Multiplicity           Mult            ....    1
 Number of Electrons    NEL             ....  192
 Basis Dimension        Dim             ....  649

ORBITAL ENERGIES
----------------

  NO   OCC          E(Eh)            E(eV)
   0   2.0000     -19.113881      -520.1151
   1   2.0000     -19.013603      -517.3864
   2   2.0000     -19.001239      -517.0500
   3   2.0000     -18.980865      -516.4956
   4   2.0000     -18.959815      -515.9228
   5   2.0000     -18.935607      -515.2641
   6   2.0000     -14.282723      -388.6527
   7   2.0000     -14.268661      -388.2700
   8   2.0000     -14.244177      -387.6038
   9   2.0000     -14.232547      -387.2873
  10   2.0000     -14.168883      -385.5549
  11   2.0000     -10.227762      -278.3116
  12   2.0000     -10.196640      -277.4647
  13   2.0000     -10.191546      -277.3261
  14   2.0000     -10.177257      -276.9372
  15   2.0000     -10.150698      -276.2145
  16   2.0000     -10.133354      -275.7426
  17   2.0000     -10.128761      -275.6176
  18   2.0000     -10.119170      -275.3566
  19   2.0000     -10.095510      -274.7128
  20   2.0000     -10.082295      -274.3532
  21   2.0000     -10.073671      -274.1185
  22   2.0000     -10.067082      -273.9392
  23   2.0000     -10.066754      -273.9303
  24   2.0000     -10.035695      -273.0852
  25   2.0000     -10.025256      -272.8011
  26   2.0000      -1.211548       -32.9679
  27   2.0000      -1.093069       -29.7439
  28   2.0000      -1.071412       -29.1546
  29   2.0000      -1.057922       -28.7875
  30   2.0000      -1.056601       -28.7516
  31   2.0000      -1.027033       -27.9470
  32   2.0000      -1.001440       -27.2506
  33   2.0000      -0.974209       -26.5096
  34   2.0000      -0.946015       -25.7424
  35   2.0000      -0.893990       -24.3267
  36   2.0000      -0.877846       -23.8874
  37   2.0000      -0.800435       -21.7809
  38   2.0000      -0.769453       -20.9379
  39   2.0000      -0.751563       -20.4511
  40   2.0000      -0.727020       -19.7832
  41   2.0000      -0.722882       -19.6706
  42   2.0000      -0.694223       -18.8908
  43   2.0000      -0.675969       -18.3941
  44   2.0000      -0.672766       -18.3069
  45   2.0000      -0.658394       -17.9158
  46   2.0000      -0.649712       -17.6796
  47   2.0000      -0.639007       -17.3883
  48   2.0000      -0.624694       -16.9988
  49   2.0000      -0.587654       -15.9909
  50   2.0000      -0.568177       -15.4609
  51   2.0000      -0.562051       -15.2942
  52   2.0000      -0.544503       -14.8167
  53   2.0000      -0.528627       -14.3847
  54   2.0000      -0.524189       -14.2639
  55   2.0000      -0.501943       -13.6586
  56   2.0000      -0.498665       -13.5694
  57   2.0000      -0.481930       -13.1140
  58   2.0000      -0.473483       -12.8841
  59   2.0000      -0.461582       -12.5603
  60   2.0000      -0.458594       -12.4790
  61   2.0000      -0.452142       -12.3034
  62   2.0000      -0.451471       -12.2851
  63   2.0000      -0.444967       -12.1082
  64   2.0000      -0.441005       -12.0004
  65   2.0000      -0.433724       -11.8022
  66   2.0000      -0.423200       -11.5159
  67   2.0000      -0.418315       -11.3829
  68   2.0000      -0.413032       -11.2392
  69   2.0000      -0.412331       -11.2201
  70   2.0000      -0.406927       -11.0730
  71   2.0000      -0.398586       -10.8461
  72   2.0000      -0.395451       -10.7608
  73   2.0000      -0.391540       -10.6543
  74   2.0000      -0.389797       -10.6069
  75   2.0000      -0.382006       -10.3949
  76   2.0000      -0.379651       -10.3308
  77   2.0000      -0.376857       -10.2548
  78   2.0000      -0.373643       -10.1674
  79   2.0000      -0.369292       -10.0489
  80   2.0000      -0.365392        -9.9428
  81   2.0000      -0.359928        -9.7942
  82   2.0000      -0.353373        -9.6158
  83   2.0000      -0.346648        -9.4328
  84   2.0000      -0.344574        -9.3763
  85   2.0000      -0.333941        -9.0870
  86   2.0000      -0.330962        -9.0059
  87   2.0000      -0.304314        -8.2808
  88   2.0000      -0.291333        -7.9276
  89   2.0000      -0.285164        -7.7597
  90   2.0000      -0.283597        -7.7171
  91   2.0000      -0.273535        -7.4433
  92   2.0000      -0.272679        -7.4200
  93   2.0000      -0.249572        -6.7912
  94   2.0000      -0.245270        -6.6741
  95   2.0000      -0.214412        -5.8344
  96   0.0000      -0.198394        -5.3986
  97   0.0000      -0.097796        -2.6612
  98   0.0000      -0.078505        -2.1362
  99   0.0000      -0.047613        -1.2956
 100   0.0000      -0.040902        -1.1130

MULLIKEN ATOMIC CHARGES
-----------------------
   0 C :   -0.310518
   1 O :   -0.184648
   2 C :    0.210204
   3 O :   -0.479028
   4 C :    0.115508
   5 N :   -0.077591
   6 C :    0.068640
   7 C :   -0.037723
   8 C :   -0.582533
   9 C :   -0.488496
  10 N :   -0.117484
  11 C :    0.335751
  12 O :   -0.382658
  13 C :    0.023218
  14 C :   -0.467693
  15 N :    0.002540
  16 N :   -0.074438
  17 C :    0.419637
  18 C :   -0.586201
  19 O :   -0.043055
  20 N :    0.281814
  21 C :   -0.461587
  22 C :    0.140441
  23 O :   -0.424146
  24 C :    0.061942
  25 O :   -0.353335
  26 H :    0.180740
  27 H :    0.180695
  28 H :    0.180913
  29 H :    0.197707
  30 H :    0.196165
  31 H :    0.186367
  32 H :    0.196087
  33 H :    0.190535
  34 H :    0.204232
  35 H :    0.339086
  36 H :    0.220527
  37 H :    0.206832
  38 H :    0.230393
  39 H :    0.246704
  40 H :    0.221825
  41 H :    0.242496
  42 H :    0.211145
  43 H :    0.207587
  44 H :    0.195463
  45 H :    0.375939
Sum of atomic charges:    1.0000000

LOEWDIN ATOMIC CHARGES
----------------------
   0 C :   -0.030775
   1 O :   -0.554766
   2 C :    0.408896
   3 O :   -0.461031
   4 C :    0.199744
   5 N :   -0.560391
   6 C :    0.368671
   7 C :    0.116937
   8 C :   -0.327017
   9 C :   -0.332527
  10 N :   -0.562057
  11 C :    0.404061
  12 O :   -0.360004
  13 C :    0.327537
  14 C :   -0.260184
  15 N :   -0.208403
  16 N :   -0.214555
  17 C :    0.488461
  18 C :   -0.283837
  19 O :   -0.375124
  20 N :   -0.629279
  21 C :   -0.069036
  22 C :    0.383719
  23 O :   -0.445457
  24 C :    0.290777
  25 O :   -0.433009
  26 H :    0.185040
  27 H :    0.184866
  28 H :    0.188631
  29 H :    0.181069
  30 H :    0.181722
  31 H :    0.170825
  32 H :    0.178868
  33 H :    0.175355
  34 H :    0.183576
  35 H :    0.308491
  36 H :    0.197301
  37 H :    0.192345
  38 H :    0.204729
  39 H :    0.227533
  40 H :    0.202742
  41 H :    0.225343
  42 H :    0.202937
  43 H :    0.205689
  44 H :    0.205165
  45 H :    0.316422

  Mayer bond orders larger than 0.100000
B(  0-C ,  1-O ) :   0.8216 B(  0-C , 26-H ) :   0.9541 B(  0-C , 27-H ) :   0.9539
B(  0-C , 28-H ) :   0.9605 B(  1-O ,  2-C ) :   1.2061 B(  2-C ,  3-O ) :   1.7269
B(  2-C ,  4-C ) :   1.0637 B(  4-C ,  5-N ) :   1.0345 B(  4-C , 24-C ) :   1.2731
B(  5-N ,  6-C ) :   1.6570 B(  5-N ,  7-C ) :  -0.1015 B(  6-C ,  7-C ) :   0.8087
B(  6-C , 20-N ) :   1.2292 B(  6-C , 24-C ) :   0.1210 B(  7-C ,  8-C ) :   0.9516
B(  7-C ,  9-C ) :   1.0027 B(  7-C , 10-N ) :   0.7299 B(  8-C , 29-H ) :   0.9529
B(  8-C , 30-H ) :   0.9597 B(  8-C , 31-H ) :   0.9671 B(  9-C , 32-H ) :   0.9620
B(  9-C , 33-H ) :   0.9231 B(  9-C , 34-H ) :   0.9631 B( 10-N , 11-C ) :   1.2510
B( 10-N , 35-H ) :   0.8811 B( 11-C , 12-O ) :   1.7439 B( 11-C , 13-C ) :   0.8604
B( 13-C , 14-C ) :   0.9850 B( 13-C , 15-N ) :   0.9777 B( 13-C , 19-O ) :   0.7775
B( 14-C , 36-H ) :   0.9349 B( 14-C , 37-H ) :   0.9274 B( 14-C , 38-H ) :   0.9232
B( 15-N , 16-N ) :   1.6473 B( 16-N , 17-C ) :   1.1213 B( 17-C , 18-C ) :   0.9664
B( 17-C , 19-O ) :   1.3073 B( 18-C , 39-H ) :   0.8912 B( 18-C , 40-H ) :   0.9690
B( 18-C , 41-H ) :   0.8985 B( 20-N , 21-C ) :   0.8356 B( 20-N , 22-C ) :   1.0618
B( 21-C , 42-H ) :   0.9323 B( 21-C , 43-H ) :   0.9303 B( 21-C , 44-H ) :   0.9321
B( 22-C , 23-O ) :   1.8897 B( 22-C , 24-C ) :   1.0017 B( 24-C , 25-O ) :   1.1513
B( 25-O , 45-H ) :   0.7669

Dispersion correction           -0.021676010
FINAL SINGLE POINT ENERGY     -1308.338445911385

DIPOLE MOMENT
-------------
                                X             Y             Z
Electronic contribution:     -4.89250      -9.55035      -4.51269
Nuclear contribution   :     13.81141      12.33297       6.02759
                        -----------------------------------------
Total Dipole Moment    :      8.91891       2.78263       1.51490
                        -----------------------------------------
Magnitude (a.u.)       :      9.46493
Magnitude (Debye)      :     24.05794

Rotational constants in cm-1:     0.012968     0.003860     0.003486
Rotational constants in MHz :   388.768743   115.720519   104.515188

                             ****ORCA TERMINATED NORMALLY****
TOTAL RUN TIME: 0 days 0 hours 2 minutes 5 seconds 862 msec
