   * xtb version 6.5.1 (579679a) compiled by 'ehlert@majestix' on 2022-07-11
          program call               : /lustre/hpc/kemi/ree/PhD/git/ReactivityQM/dep/xtb-6.5.1/bin/xtb --gfn 1 /lustre/hpc/kemi/ree/PhD/git/ReactivityQM/calculations/R03/reac02prodN12/conf20/R03_reac02prodN12_conf20_gfn1.xyz --opt --vfukui --chrg 1 --uhf 0 --alpb DMSO

   ID    Z sym.   atoms
    1    6 C      1, 3, 5, 7-10, 12, 14, 15, 18, 19, 22, 23, 25
    2    8 O      2, 4, 13, 20, 24, 26
    3    7 N      6, 11, 16, 17, 21
    4    1 H      27-46

      * Solvation model:               ALPB
        Solvent                        DMSO
        Solvent mass                       7.8130E+01 g/mol
          :  Hamiltonian                  GFN1-xTB          :
 * total energy  :   -86.2929330 Eh     change       -0.9921877E-09 Eh
 * total energy  :   -86.3081071 Eh     change       -0.1517403E-01 Eh
 * total energy  :   -86.3142747 Eh     change       -0.6167615E-02 Eh
 * total energy  :   -86.3158540 Eh     change       -0.1579320E-02 Eh
 * total energy  :   -86.3170737 Eh     change       -0.1219649E-02 Eh
 * total energy  :   -86.3177683 Eh     change       -0.6945874E-03 Eh
 * total energy  :   -86.3184435 Eh     change       -0.6752104E-03 Eh
 * total energy  :   -86.3190481 Eh     change       -0.6046860E-03 Eh
 * total energy  :   -86.3195107 Eh     change       -0.4625780E-03 Eh
 * total energy  :   -86.3197756 Eh     change       -0.2649231E-03 Eh
 * total energy  :   -86.3229779 Eh     change       -0.8730779E-05 Eh
 * total energy  :   -86.3229905 Eh     change       -0.1261706E-04 Eh
 * total energy  :   -86.3230054 Eh     change       -0.1488699E-04 Eh
 * total energy  :   -86.3230157 Eh     change       -0.1034020E-04 Eh
 * total energy  :   -86.3230240 Eh     change       -0.8254332E-05 Eh
 * total energy  :   -86.3230377 Eh     change       -0.1375058E-04 Eh
 * total energy  :   -86.3230450 Eh     change       -0.7253936E-05 Eh
 * total energy  :   -86.3230523 Eh     change       -0.7323699E-05 Eh
 * total energy  :   -86.3230570 Eh     change       -0.4674092E-05 Eh
   *** GEOMETRY OPTIMIZATION CONVERGED AFTER 135 ITERATIONS ***

 final structure:
================
46
 xtb: 6.5.1 (579679a)
C           -5.14009336625082        2.14012558200634       -2.58927133157958
O           -4.10717309309738        1.54578467462470       -1.79227145650000
C           -4.38730986583574        0.38086777894941       -1.23184456539752
O           -5.45506619561739       -0.18968763713959       -1.36713365733304
C           -3.28300671421672       -0.17892417171696       -0.41600894870967
N           -2.12781532888297        0.53910441268753       -0.32875970061247
C           -1.13161286173877        0.10647259836425        0.37704161645833
C            0.07209787829489        1.03265514805717        0.42209918668641
C           -0.02415994441350        2.06051615670926       -0.71163993322275
C            0.15975449775686        1.75293408091602        1.77030369444873
N            1.33182998084032        0.27992692847147        0.22404702902161
C            1.45745793031254       -0.57889556931223       -0.77089630902876
O            0.61409745570732       -0.98875910825850       -1.52118922143183
C            2.94149743343627       -1.17979012800630       -0.90295377176155
C            2.83486782661625       -2.68438425758866       -0.65923071650781
N            3.41634412205318       -0.81360752167205       -2.17737626168874
N            4.42438013616324       -0.05337134851151       -2.05936224158517
C            4.68115967527868        0.09812033788247       -0.72776450503818
C            5.75642222612581        0.90165735413493       -0.15764490156207
O            3.83076255955550       -0.55526213873787       -0.01163144341446
N           -1.19849562641291       -1.06486038874670        1.07835744263562
C           -0.13426610648085       -1.60782912466445        1.92089140888091
C           -2.31665060189491       -1.90345565844998        1.03021123428050
O           -2.31823528536643       -2.96129204533523        1.63697319579377
C           -3.42180721772862       -1.38678492494999        0.22463781712960
O           -4.51460641585252       -2.14231166480996        0.17174534390518
H           -5.40714557214074        1.47251818761537       -3.41108201439038
H           -6.02152520515958        2.32940134032438       -1.97316872006893
H           -4.73581570854782        3.07406312613200       -2.97264023543263
H           -0.12244107289639        1.55441971317729       -1.67093304186187
H           -0.89444880975227        2.69562936685480       -0.55707129840198
H            0.87384966720236        2.67418932503527       -0.71742364727443
H            1.01142028162709        2.43040823782945        1.76617162880797
H            0.27418507435676        1.05282624552722        2.59397104270312
H           -0.75015980320762        2.33153847247092        1.92475166573132
H            2.13199843316250        0.56337205506530        0.76098100111445
H            2.51240564919682       -2.85534622116975        0.36495134581022
H            3.81101347779205       -3.13797798402016       -0.81629370707117
H            2.10797257394249       -3.09766118078118       -1.35627354267872
H            5.61211321991040        1.94650094952430       -0.44459994429753
H            5.77577866032024        0.81105183284144        0.92549768340514
H            6.71038792761264        0.58784825944857       -0.58818951177074
H            0.24187688289647       -2.52254285900536        1.46159590764397
H            0.67241290854710       -0.89895315725746        2.03806882647653
H           -0.56024313634475       -1.85070465555990        2.89478007168150
H           -5.20400654685542       -1.70953141896731       -0.38544951401675

          :  Hamiltonian                  GFN1-xTB          :
         :: total energy             -86.323056995462 Eh    ::
         :: gradient norm              0.000525080523 Eh/a0 ::
         :: HOMO-LUMO gap              0.281849639583 eV    ::
         :: SCC energy               -87.149997049286 Eh    ::
         :: -> Gsolv                  -0.124759411086 Eh    ::
         :: repulsion energy           0.857740229603 Eh    ::

    * Orbital Energies and Occupations

         #    Occupation            Energy/Eh            Energy/eV
      -------------------------------------------------------------
         1        2.0000           -0.9353100             -25.4511
       ...           ...                  ...                  ...
        58        2.0000           -0.5352121             -14.5639
        59        2.0000           -0.5271408             -14.3442
        60        2.0000           -0.5220444             -14.2056
        61        2.0000           -0.5202931             -14.1579
        62        2.0000           -0.5174504             -14.0805
        63        2.0000           -0.5060112             -13.7693
        64        2.0000           -0.5042411             -13.7211
        65        2.0000           -0.4977271             -13.5438
        66        2.0000           -0.4952928             -13.4776
        67        2.0000           -0.4847983             -13.1920
        68        2.0000           -0.4695417             -12.7769
        69        2.0000           -0.4551194             -12.3844
        70        1.9915           -0.4378236             -11.9138 (HOMO)
        71        0.0085           -0.4274658             -11.6319 (LUMO)
        72                         -0.3341610              -9.0930
        73                         -0.3301634              -8.9842
        74                         -0.3029314              -8.2432
        75                         -0.2964325              -8.0663
        76                         -0.2508342              -6.8255
        77                         -0.1762605              -4.7963
        78                         -0.1688630              -4.5950
        79                         -0.1682285              -4.5777
        80                         -0.1533593              -4.1731
        81                         -0.1418742              -3.8606
       ...                                ...                  ...
       144                          0.7113153              19.3559
      -------------------------------------------------------------
                  HL-Gap            0.0103578 Eh            0.2818 eV

Wiberg/Mayer (AO) data.
largest (>0.10) Wiberg bond orders for each atom

     #   Z sym  total        # sym  WBO       # sym  WBO       # sym  WBO
 ---------------------------------------------------------------------------
     1   6 C    3.863 --    29 H    0.986    27 H    0.979    28 H    0.979
                             2 O    0.888
     2   8 O    2.219 --     3 C    1.141     1 C    0.888     4 O    0.132
     3   6 C    3.849 --     4 O    1.610     2 O    1.141     5 C    1.014
     4   8 O    1.945 --     3 C    1.610     2 O    0.132
     5   6 C    3.953 --    25 C    1.460     6 N    1.200     3 C    1.014
     6   7 N    3.017 --     7 C    1.552     5 C    1.200
     7   6 C    3.929 --     6 N    1.552    21 N    1.185     8 C    0.979
     8   6 C    3.911 --     9 C    0.990    10 C    0.983     7 C    0.979
                            11 N    0.884
     9   6 C    3.986 --     8 C    0.990    32 H    0.985    30 H    0.982
                            31 H    0.980
    10   6 C    3.980 --     8 C    0.983    33 H    0.980    35 H    0.979
                            34 H    0.978
    11   7 N    3.381 --    12 C    1.347     8 C    0.884    36 H    0.880
                            13 O    0.178
    12   6 C    3.909 --    13 O    1.659    11 N    1.347    14 C    0.753
    13   8 O    2.038 --    12 C    1.659    11 N    0.178
    14   6 C    3.840 --    16 N    1.100    15 C    0.918    20 O    0.908
                            12 C    0.753
    15   6 C    3.947 --    37 H    0.978    39 H    0.975    38 H    0.974
                            14 C    0.918
    16   7 N    2.971 --    17 N    1.621    14 C    1.100
    17   7 N    3.010 --    16 N    1.621    18 C    1.224
    18   6 C    3.788 --    20 O    1.261    17 N    1.224    19 C    1.079
    19   6 C    3.963 --    18 C    1.079    41 H    0.972    42 H    0.926
                            40 H    0.918
    20   8 O    2.361 --    18 C    1.261    14 C    0.908
    21   7 N    3.503 --     7 C    1.185    23 C    1.100    22 C    0.931
                            24 O    0.134
    22   6 C    3.922 --    44 H    0.980    45 H    0.973    43 H    0.973
                            21 N    0.931
    23   6 C    3.907 --    24 O    1.598    21 N    1.100    25 C    1.064
    24   8 O    1.904 --    23 C    1.598    21 N    0.134
    25   6 C    3.904 --     5 C    1.460    26 O    1.137    23 C    1.064
    26   8 O    2.095 --    25 C    1.137    46 H    0.773
    27   1 H    1.005 --     1 C    0.979
    28   1 H    1.005 --     1 C    0.979
    29   1 H    1.010 --     1 C    0.986
    30   1 H    1.007 --     9 C    0.982
    31   1 H    1.009 --     9 C    0.980
    32   1 H    1.000 --     9 C    0.985
    33   1 H    0.994 --    10 C    0.980
    34   1 H    0.997 --    10 C    0.978
    35   1 H    0.996 --    10 C    0.979
    36   1 H    0.924 --    11 N    0.880
    37   1 H    0.995 --    15 C    0.978
    38   1 H    0.990 --    15 C    0.974
    39   1 H    0.996 --    15 C    0.975
    40   1 H    0.977 --    19 C    0.918
    41   1 H    0.985 --    19 C    0.972
    42   1 H    0.978 --    19 C    0.926
    43   1 H    1.004 --    22 C    0.973
    44   1 H    1.006 --    22 C    0.980
    45   1 H    1.002 --    22 C    0.973
    46   1 H    0.848 --    26 O    0.773
 ---------------------------------------------------------------------------

           -------------------------------------------------
          | TOTAL ENERGY              -86.323056995462 Eh   |
          | GRADIENT NORM               0.000525080523 Eh/α |
          | HOMO-LUMO GAP               0.281849639583 eV   |
           -------------------------------------------------

 * finished run on 2023/06/20 at 15:48:01.790
