                         Program Version 5.0.1 -  RELEASE  -
|  1> # ORCA input file
|  2> ! SP r2SCAN-3c CPCM
|  3>
|  4> %maxcore 1875.0
|  5> %pal nprocs 4 end
|  6> %cpcm smd true SMDsolvent "DMSO" end
|  7>
|  8> *xyz 1 1
|  9> C      -0.459875    1.797145   -1.107458
| 10> C      -0.199032    0.271909   -0.881826
| 11> C      -1.473476   -0.453677   -1.074205
| 12> C      -2.049622   -1.105413   -0.036794
| 13> F      -3.219812   -1.712989   -0.199852
| 14> C      -1.452588   -1.176946    1.238897
| 15> C      -0.208311   -0.616217    1.447454
| 16> C       0.453944    0.073447    0.433752
| 17> C       1.861836    0.508235    0.628259
| 18> N       2.535959   -0.752523    0.340198
| 19> H      -0.901586    1.935848   -2.091599
| 20> H      -1.139958    2.167706   -0.344260
| 21> H       0.480893    2.338809   -1.054234
| 22> H       0.494121   -0.009232   -1.686100
| 23> H      -1.945564   -0.408671   -2.047648
| 24> H      -1.977668   -1.686030    2.038768
| 25> H       0.261009   -0.708404    2.420148
| 26> H       2.192657    1.267765   -0.078526
| 27> H       2.082603    0.812205    1.651343
| 28> H       2.366045   -1.069985   -0.601417
| 29> H       2.298427   -1.472981    1.005100
| 30> **                         ****END OF INPUT****

CARTESIAN COORDINATES (ANGSTROEM)
---------------------------------
  C     -0.459875    1.797145   -1.107458
  C     -0.199032    0.271909   -0.881826
  C     -1.473476   -0.453677   -1.074205
  C     -2.049622   -1.105413   -0.036794
  F     -3.219812   -1.712989   -0.199852
  C     -1.452588   -1.176946    1.238897
  C     -0.208311   -0.616217    1.447454
  C      0.453944    0.073447    0.433752
  C      1.861836    0.508235    0.628259
  N      2.535959   -0.752523    0.340198
  H     -0.901586    1.935848   -2.091599
  H     -1.139958    2.167706   -0.344260
  H      0.480893    2.338809   -1.054234
  H      0.494121   -0.009232   -1.686100
  H     -1.945564   -0.408671   -2.047648
  H     -1.977668   -1.686030    2.038768
  H      0.261009   -0.708404    2.420148
  H      2.192657    1.267765   -0.078526
  H      2.082603    0.812205    1.651343
  H      2.366045   -1.069985   -0.601417
  H      2.298427   -1.472981    1.005100

 Total Charge           Charge          ....    1
 Multiplicity           Mult            ....    1
 Number of Electrons    NEL             ....   74
 Basis Dimension        Dim             ....  255

ORBITAL ENERGIES
----------------

  NO   OCC          E(Eh)            E(eV)
   0   2.0000     -24.521386      -667.2608
   1   2.0000     -14.180765      -385.8782
   2   2.0000     -10.147166      -276.1184
   3   2.0000     -10.113192      -275.1940
   4   2.0000     -10.098012      -274.7809
   5   2.0000     -10.085414      -274.4381
   6   2.0000     -10.082182      -274.3501
   7   2.0000     -10.081351      -274.3275
   8   2.0000     -10.073256      -274.1072
   9   2.0000     -10.048482      -273.4331
  10   2.0000      -1.217710       -33.1356
  11   2.0000      -0.901900       -24.5419
  12   2.0000      -0.858478       -23.3604
  13   2.0000      -0.780979       -21.2515
  14   2.0000      -0.759732       -20.6734
  15   2.0000      -0.686757       -18.6876
  16   2.0000      -0.654562       -17.8115
  17   2.0000      -0.613700       -16.6996
  18   2.0000      -0.589658       -16.0454
  19   2.0000      -0.538969       -14.6661
  20   2.0000      -0.512055       -13.9337
  21   2.0000      -0.484076       -13.1724
  22   2.0000      -0.475454       -12.9378
  23   2.0000      -0.463811       -12.6209
  24   2.0000      -0.448849       -12.2138
  25   2.0000      -0.438205       -11.9242
  26   2.0000      -0.427976       -11.6458
  27   2.0000      -0.402886       -10.9631
  28   2.0000      -0.396670       -10.7939
  29   2.0000      -0.389519       -10.5994
  30   2.0000      -0.364475        -9.9179
  31   2.0000      -0.359567        -9.7843
  32   2.0000      -0.349571        -9.5123
  33   2.0000      -0.328302        -8.9336
  34   2.0000      -0.326663        -8.8890
  35   2.0000      -0.273859        -7.4521
  36   2.0000      -0.232062        -6.3147
  37   0.0000      -0.157131        -4.2758
  38   0.0000      -0.057166        -1.5556
  39   0.0000       0.040205         1.0940
  40   0.0000       0.058716         1.5977
  41   0.0000       0.078167         2.1270

MULLIKEN ATOMIC CHARGES
-----------------------
   0 C :   -0.470252
   1 C :   -0.036615
   2 C :   -0.179054
   3 C :    0.304807
   4 F :   -0.209341
   5 C :   -0.100245
   6 C :   -0.182589
   7 C :    0.165675
   8 C :   -0.256529
   9 N :   -0.591860
  10 H :    0.192834
  11 H :    0.193320
  12 H :    0.184024
  13 H :    0.249595
  14 H :    0.225452
  15 H :    0.227114
  16 H :    0.210999
  17 H :    0.194363
  18 H :    0.202736
  19 H :    0.335282
  20 H :    0.340285
Sum of atomic charges:    1.0000000

LOEWDIN ATOMIC CHARGES
----------------------
   0 C :   -0.332579
   1 C :   -0.176350
   2 C :   -0.042515
   3 C :    0.196922
   4 F :   -0.270585
   5 C :   -0.001262
   6 C :   -0.128445
   7 C :    0.076662
   8 C :   -0.025592
   9 N :   -0.613211
  10 H :    0.175630
  11 H :    0.173729
  12 H :    0.173608
  13 H :    0.236460
  14 H :    0.210165
  15 H :    0.212021
  16 H :    0.203017
  17 H :    0.203163
  18 H :    0.205037
  19 H :    0.261282
  20 H :    0.262842

  Mayer bond orders larger than 0.100000
B(  0-C ,  1-C ) :   0.8036 B(  0-C , 10-H ) :   0.9559 B(  0-C , 11-H ) :   0.9656
B(  0-C , 12-H ) :   0.9479 B(  1-C ,  2-C ) :   1.0024 B(  1-C ,  7-C ) :   1.0061
B(  1-C , 13-H ) :   0.9228 B(  2-C ,  3-C ) :   1.6097 B(  2-C , 14-H ) :   0.8923
B(  3-C ,  4-F ) :   0.8880 B(  3-C ,  5-C ) :   1.2381 B(  5-C ,  6-C ) :   1.4256
B(  5-C , 15-H ) :   0.9083 B(  6-C ,  7-C ) :   1.3552 B(  6-C , 16-H ) :   0.9351
B(  7-C ,  8-C ) :   0.9309 B(  8-C ,  9-N ) :   0.9224 B(  8-C , 17-H ) :   0.9570
B(  8-C , 18-H ) :   0.9717 B(  9-N , 19-H ) :   0.8816 B(  9-N , 20-H ) :   0.8803

Dispersion correction           -0.007104535
FINAL SINGLE POINT ENERGY      -465.764622045348

DIPOLE MOMENT
-------------
                                X             Y             Z
Electronic contribution:    -10.00038      -7.35901       1.10548
Nuclear contribution   :     11.22344       7.79384      -1.08619
                        -----------------------------------------
Total Dipole Moment    :      1.22307       0.43483       0.01929
                        -----------------------------------------
Magnitude (a.u.)       :      1.29821
Magnitude (Debye)      :      3.29978

Rotational constants in cm-1:     0.074628     0.031827     0.025599
Rotational constants in MHz :  2237.287668   954.155599   767.444223

                             ****ORCA TERMINATED NORMALLY****
TOTAL RUN TIME: 0 days 0 hours 0 minutes 20 seconds 99 msec
