   * xtb version 6.5.1 (579679a) compiled by 'ehlert@majestix' on 2022-07-11
          program call               : /lustre/hpc/kemi/ree/PhD/git/ReactivityQM/dep/xtb-6.5.1/bin/xtb --gfn 1 /lustre/hpc/kemi/ree/PhD/git/ReactivityQM/calculations/R03/reac01prodN03/conf10/R03_reac01prodN03_conf10_gfn1.xyz --opt --vfukui --chrg 1 --uhf 0 --alpb DMSO

   ID    Z sym.   atoms
    1    6 C      1-4, 6-9
    2    9 F      5
    3    7 N      10
    4    1 H      11-21

      * Solvation model:               ALPB
        Solvent                        DMSO
        Solvent mass                       7.8130E+01 g/mol
          :  Hamiltonian                  GFN1-xTB          :
 * total energy  :   -30.7615217 Eh     change       -0.3986145E-11 Eh
 * total energy  :   -30.7674959 Eh     change       -0.5974155E-02 Eh
 * total energy  :   -30.7696942 Eh     change       -0.2198313E-02 Eh
 * total energy  :   -30.7701469 Eh     change       -0.4527293E-03 Eh
 * total energy  :   -30.7704995 Eh     change       -0.3525820E-03 Eh
 * total energy  :   -30.7706513 Eh     change       -0.1518575E-03 Eh
 * total energy  :   -30.7707567 Eh     change       -0.1054039E-03 Eh
 * total energy  :   -30.7708350 Eh     change       -0.7823317E-04 Eh
 * total energy  :   -30.7708783 Eh     change       -0.4328219E-04 Eh
 * total energy  :   -30.7709065 Eh     change       -0.2819973E-04 Eh
 * total energy  :   -30.7709409 Eh     change       -0.3439141E-04 Eh
 * total energy  :   -30.7709724 Eh     change       -0.3150463E-04 Eh
 * total energy  :   -30.7710025 Eh     change       -0.3015434E-04 Eh
 * total energy  :   -30.7710244 Eh     change       -0.2192356E-04 Eh
 * total energy  :   -30.7710423 Eh     change       -0.1785463E-04 Eh
 * total energy  :   -30.7710487 Eh     change       -0.6379794E-05 Eh
 * total energy  :   -30.7710515 Eh     change       -0.2826886E-05 Eh
   *** GEOMETRY OPTIMIZATION CONVERGED AFTER 17 ITERATIONS ***

 final structure:
================
21
 xtb: 6.5.1 (579679a)
C           -0.45987534513602        1.79714524673303       -1.10745764628429
C           -0.19903183112058        0.27190926584527       -0.88182577583652
C           -1.47347633938835       -0.45367722623882       -1.07420532764766
C           -2.04962165850548       -1.10541299244624       -0.03679385227270
F           -3.21981242388789       -1.71298898873255       -0.19985176821512
C           -1.45258807164395       -1.17694614867700        1.23889683933672
C           -0.20831136395726       -0.61621670341070        1.44745364916113
C            0.45394445056122        0.07344738575605        0.43375191891158
C            1.86183630292066        0.50823500427571        0.62825910383158
N            2.53595947802288       -0.75252262670869        0.34019763675824
H           -0.90158611380364        1.93584754982467       -2.09159868337415
H           -1.13995797024975        2.16770631359157       -0.34426046660436
H            0.48089276991381        2.33880897240367       -1.05423372998641
H            0.49412056816451       -0.00923225858795       -1.68610012331883
H           -1.94556432540630       -0.40867060401807       -2.04764800682743
H           -1.97766793991033       -1.68602975235999        2.03876784336923
H            0.26100889451431       -0.70840433255809        2.42014762493813
H            2.19265722956644        1.26776487037567       -0.07852551847658
H            2.08260302605771        0.81220494970590        1.65134283239467
H            2.36604515576398       -1.06998538531619       -0.60141653721566
H            2.29842650752413       -1.47298053945729        1.00509998735825

          :  Hamiltonian                  GFN1-xTB          :
         :: total energy             -30.771051498900 Eh    ::
         :: gradient norm              0.000521199849 Eh/a0 ::
         :: HOMO-LUMO gap              1.338494891747 eV    ::
         :: SCC energy               -31.164365000120 Eh    ::
         :: -> Gsolv                  -0.088459619044 Eh    ::
         :: repulsion energy           0.403856851924 Eh    ::

    * Orbital Energies and Occupations

         #    Occupation            Energy/Eh            Energy/eV
      -------------------------------------------------------------
         1        2.0000           -0.9073290             -24.6897
       ...           ...                  ...                  ...
        15        2.0000           -0.6038448             -16.4315
        16        2.0000           -0.5906269             -16.0718
        17        2.0000           -0.5834022             -15.8752
        18        2.0000           -0.5758101             -15.6686
        19        2.0000           -0.5678961             -15.4532
        20        2.0000           -0.5611023             -15.2684
        21        2.0000           -0.5474653             -14.8973
        22        2.0000           -0.5390019             -14.6670
        23        2.0000           -0.5370013             -14.6126
        24        2.0000           -0.5350836             -14.5604
        25        2.0000           -0.5170446             -14.0695
        26        2.0000           -0.4976113             -13.5407
        27        2.0000           -0.4585048             -12.4766 (HOMO)
        28                         -0.4093160             -11.1381 (LUMO)
        29                         -0.3188238              -8.6756
        30                         -0.2367368              -6.4419
        31                         -0.1578819              -4.2962
        32                         -0.1536665              -4.1815
        33                         -0.1460959              -3.9755
        34                         -0.1398028              -3.8042
        35                         -0.1321716              -3.5966
        36                         -0.1280233              -3.4837
        37                         -0.1059444              -2.8829
        38                         -0.0941222              -2.5612
       ...                                ...                  ...
        62                          0.5462023              14.8629
      -------------------------------------------------------------
                  HL-Gap            0.0491888 Eh            1.3385 eV

Wiberg/Mayer (AO) data.
largest (>0.10) Wiberg bond orders for each atom

     #   Z sym  total        # sym  WBO       # sym  WBO       # sym  WBO
 ---------------------------------------------------------------------------
     1   6 C    3.967 --    12 H    0.986    11 H    0.981    13 H    0.979
                             2 C    0.884
     2   6 C    3.993 --     8 C    1.073     3 C    1.070    14 H    0.895
                             1 C    0.884
     3   6 C    3.976 --     4 C    1.582     2 C    1.070    15 H    0.960
     4   6 C    3.882 --     3 C    1.582     6 C    1.251     5 F    0.960
     5   9 F    1.100 --     4 C    0.960
     6   6 C    3.963 --     7 C    1.480     4 C    1.251    16 H    0.961
     7   6 C    3.987 --     6 C    1.480     8 C    1.407    17 H    0.961
     8   6 C    3.919 --     7 C    1.407     2 C    1.073     9 C    1.023
                            10 N    0.182
     9   6 C    3.958 --     8 C    1.023    18 H    0.973    19 H    0.970
                            10 N    0.942
    10   7 N    3.166 --     9 C    0.942    20 H    0.923    21 H    0.921
                             8 C    0.182
    11   1 H    0.994 --     1 C    0.981
    12   1 H    0.995 --     1 C    0.986
    13   1 H    0.996 --     1 C    0.979
    14   1 H    0.990 --     2 C    0.895
    15   1 H    0.987 --     3 C    0.960
    16   1 H    0.988 --     6 C    0.961
    17   1 H    0.989 --     7 C    0.961
    18   1 H    1.002 --     9 C    0.973
    19   1 H    0.999 --     9 C    0.970
    20   1 H    0.940 --    10 N    0.923
    21   1 H    0.940 --    10 N    0.921
 ---------------------------------------------------------------------------

           -------------------------------------------------
          | TOTAL ENERGY              -30.771051498900 Eh   |
          | GRADIENT NORM               0.000521199849 Eh/α |
          | HOMO-LUMO GAP               1.338494891747 eV   |
           -------------------------------------------------

 * finished run on 2023/06/20 at 15:14:11.245
