   * xtb version 6.5.1 (579679a) compiled by 'ehlert@majestix' on 2022-07-11
          program call               : /lustre/hpc/kemi/ree/PhD/git/ReactivityQM/dep/xtb-6.5.1/bin/xtb --gfn 1 /lustre/hpc/kemi/ree/PhD/git/ReactivityQM/calculations/R01/reac01prodE04/conf03/R01_reac01prodE04_conf03_gfn1.xyz --opt --vfukui --chrg -1 --uhf 0 --alpb DMSO

   ID    Z sym.   atoms
    1    6 C      1, 3, 5, 7, 8, 11
    2    8 O      2, 4, 6
    3    7 N      9, 10
    4    1 H      12-20

      * Solvation model:               ALPB
        Solvent                        DMSO
        Solvent mass                       7.8130E+01 g/mol
          :  Hamiltonian                  GFN1-xTB          :
 * total energy  :   -38.2919169 Eh     change       -0.6870948E-11 Eh
 * total energy  :   -38.3047685 Eh     change       -0.1285161E-01 Eh
 * total energy  :   -38.3070151 Eh     change       -0.2246642E-02 Eh
 * total energy  :   -38.3074606 Eh     change       -0.4454418E-03 Eh
 * total energy  :   -38.3087971 Eh     change       -0.1336546E-02 Eh
 * total energy  :   -38.3104990 Eh     change       -0.1701857E-02 Eh
 * total energy  :   -38.3119932 Eh     change       -0.1494258E-02 Eh
 * total energy  :   -38.3152822 Eh     change       -0.3288939E-02 Eh
 * total energy  :   -38.3182329 Eh     change       -0.2950779E-02 Eh
 * total energy  :   -38.3187154 Eh     change       -0.4824617E-03 Eh
 * total energy  :   -38.3247272 Eh     change       -0.1888838E-04 Eh
 * total energy  :   -38.3247458 Eh     change       -0.1857477E-04 Eh
 * total energy  :   -38.3247609 Eh     change       -0.1513889E-04 Eh
 * total energy  :   -38.3247762 Eh     change       -0.1528733E-04 Eh
 * total energy  :   -38.3247739 Eh     change        0.2316910E-05 Eh
 * total energy  :   -38.3247888 Eh     change       -0.1490548E-04 Eh
 * total energy  :   -38.3247947 Eh     change       -0.5857612E-05 Eh
 * total energy  :   -38.3247999 Eh     change       -0.5242168E-05 Eh
 * total energy  :   -38.3248031 Eh     change       -0.3134989E-05 Eh
   *** GEOMETRY OPTIMIZATION CONVERGED AFTER 61 ITERATIONS ***

 final structure:
================
20
 xtb: 6.5.1 (579679a)
C            3.36091312620400       -1.48792402635313        0.23275785209778
O            1.96209168661313       -1.32653011631319        0.14426842327960
C            1.54385915696614       -0.00407215594725       -0.18683617736734
O            2.42183925122605        0.87343394040335       -0.40752718146312
C            0.19758991886018        0.20104502053123       -0.03339169303141
O           -0.76301917465523       -0.85639447558791        0.03076000598160
C           -1.88297814225940       -0.32275030021436       -0.46486347325464
C           -3.09531597611513       -1.18529521059756       -0.55949089961058
N           -1.84085143699603        0.90148582998634       -0.83015283189447
N           -0.49858532921834        1.36927606703778       -0.58069917583986
C           -0.59417688558712        2.46461229927955        0.39924578912646
H            3.85457351133290       -1.27454515971622       -0.72548409878025
H            3.79647416103695       -0.83047784619437        0.99757696559038
H            3.55263190595623       -2.52760380063797        0.50672338009323
H           -3.29334016244729       -1.65433802218007        0.40379278416661
H           -3.95230816950341       -0.58352046198662       -0.85367810090746
H           -2.94087667802701       -1.97435680759986       -1.29675003932733
H            0.41394328482109        2.83725361585015        0.57694761849545
H           -1.21045271424091        3.25732098680293       -0.02337054496061
H           -1.03201033396673        2.12338162343714        1.34290939760619

          :  Hamiltonian                  GFN1-xTB          :
         :: total energy             -38.324803055528 Eh    ::
         :: gradient norm              0.000935773510 Eh/a0 ::
         :: HOMO-LUMO gap              2.410468362096 eV    ::
         :: SCC energy               -38.638975596519 Eh    ::
         :: -> Gsolv                  -0.102830968042 Eh    ::
         :: repulsion energy           0.322471137281 Eh    ::

    * Orbital Energies and Occupations

         #    Occupation            Energy/Eh            Energy/eV
      -------------------------------------------------------------
         1        2.0000           -0.7809278             -21.2501
       ...           ...                  ...                  ...
        19        2.0000           -0.5087957             -13.8450
        20        2.0000           -0.5053101             -13.7502
        21        2.0000           -0.4876948             -13.2709
        22        2.0000           -0.4826563             -13.1337
        23        2.0000           -0.4753015             -12.9336
        24        2.0000           -0.4631716             -12.6035
        25        2.0000           -0.4528841             -12.3236
        26        2.0000           -0.4241024             -11.5404
        27        2.0000           -0.4221196             -11.4865
        28        2.0000           -0.4149935             -11.2925
        29        2.0000           -0.3879550             -10.5568
        30        2.0000           -0.3852401             -10.4829
        31        2.0000           -0.2975614              -8.0971 (HOMO)
        32                         -0.2089783              -5.6866 (LUMO)
        33                         -0.1391737              -3.7871
        34                         -0.1236620              -3.3650
        35                         -0.1050780              -2.8593
        36                         -0.0931643              -2.5351
        37                         -0.0572827              -1.5587
        38                         -0.0563607              -1.5337
        39                         -0.0440497              -1.1987
        40                         -0.0418359              -1.1384
        41                         -0.0415029              -1.1294
        42                         -0.0385885              -1.0500
       ...                                ...                  ...
        62                          0.6809824              18.5305
      -------------------------------------------------------------
                  HL-Gap            0.0885831 Eh            2.4105 eV

Wiberg/Mayer (AO) data.
largest (>0.10) Wiberg bond orders for each atom

     #   Z sym  total        # sym  WBO       # sym  WBO       # sym  WBO
 ---------------------------------------------------------------------------
     1   6 C    3.923 --    14 H    0.987    12 H    0.981    13 H    0.980
                             2 O    0.957
     2   8 O    2.035 --     1 C    0.957     3 C    0.899
     3   6 C    3.882 --     5 C    1.491     4 O    1.375     2 O    0.899
     4   8 O    1.705 --     3 C    1.375     5 C    0.174
     5   6 C    3.637 --     3 C    1.491    10 N    0.950     6 O    0.875
                             4 O    0.174
     6   8 O    2.185 --     7 C    1.094     5 C    0.875     9 N    0.135
     7   6 C    3.908 --     9 N    1.709     6 O    1.094     8 C    1.014
     8   6 C    3.995 --     7 C    1.014    16 H    0.987    15 H    0.975
                            17 H    0.971
     9   7 N    2.946 --     7 C    1.709    10 N    0.985     6 O    0.135
    10   7 N    3.058 --     9 N    0.985    11 C    0.970     5 C    0.950
    11   6 C    3.981 --    19 H    0.989    18 H    0.988    20 H    0.984
                            10 N    0.970
    12   1 H    1.024 --     1 C    0.981
    13   1 H    1.023 --     1 C    0.980
    14   1 H    1.021 --     1 C    0.987
    15   1 H    1.003 --     8 C    0.975
    16   1 H    1.006 --     8 C    0.987
    17   1 H    1.004 --     8 C    0.971
    18   1 H    1.029 --    11 C    0.988
    19   1 H    1.025 --    11 C    0.989
    20   1 H    1.021 --    11 C    0.984
 ---------------------------------------------------------------------------

           -------------------------------------------------
          | TOTAL ENERGY              -38.324803055528 Eh   |
          | GRADIENT NORM               0.000935773510 Eh/α |
          | HOMO-LUMO GAP               2.410468362096 eV   |
           -------------------------------------------------

 * finished run on 2023/06/20 at 14:53:42.013
