   * xtb version 6.5.1 (579679a) compiled by 'ehlert@majestix' on 2022-07-11
          program call               : /lustre/hpc/kemi/ree/PhD/git/ReactivityQM/dep/xtb-6.5.1/bin/xtb --gfn 1 /lustre/hpc/kemi/ree/PhD/git/ReactivityQM/calculations/R01/reac02prodE05/conf17/R01_reac02prodE05_conf17_gfn1.xyz --opt --vfukui --chrg -1 --uhf 0 --alpb DMSO

   ID    Z sym.   atoms
    1    6 C      1, 3, 5, 6, 8, 11-15
    2    8 O      2, 4, 7, 9
    3    7 N      10, 16, 17
    4    1 H      18-33

      * Solvation model:               ALPB
        Solvent                        DMSO
        Solvent mass                       7.8130E+01 g/mol
          :  Hamiltonian                  GFN1-xTB          :
 * total energy  :   -58.5484741 Eh     change       -0.1231371E-10 Eh
 * total energy  :   -58.5557349 Eh     change       -0.7260730E-02 Eh
 * total energy  :   -58.5577646 Eh     change       -0.2029773E-02 Eh
 * total energy  :   -58.5580975 Eh     change       -0.3328253E-03 Eh
 * total energy  :   -58.5584192 Eh     change       -0.3217392E-03 Eh
 * total energy  :   -58.5585547 Eh     change       -0.1354543E-03 Eh
 * total energy  :   -58.5586669 Eh     change       -0.1122893E-03 Eh
 * total energy  :   -58.5587458 Eh     change       -0.7887917E-04 Eh
 * total energy  :   -58.5588044 Eh     change       -0.5858477E-04 Eh
 * total energy  :   -58.5588602 Eh     change       -0.5582055E-04 Eh
 * total energy  :   -58.5589020 Eh     change       -0.4174711E-04 Eh
 * total energy  :   -58.5589283 Eh     change       -0.2633227E-04 Eh
 * total energy  :   -58.5589447 Eh     change       -0.1635694E-04 Eh
 * total energy  :   -58.5589572 Eh     change       -0.1257541E-04 Eh
 * total energy  :   -58.5589684 Eh     change       -0.1116564E-04 Eh
 * total energy  :   -58.5589739 Eh     change       -0.5499587E-05 Eh
 * total energy  :   -58.5589798 Eh     change       -0.5862988E-05 Eh
 * total energy  :   -58.5589849 Eh     change       -0.5172656E-05 Eh
 * total energy  :   -58.5589886 Eh     change       -0.3669943E-05 Eh
   *** GEOMETRY OPTIMIZATION CONVERGED AFTER 19 ITERATIONS ***

 final structure:
================
33
 xtb: 6.5.1 (579679a)
C            4.91015821224444        1.10483684287041        0.26043774710618
O            3.76629688859474        0.33843773087074       -0.09743985592046
C            2.57569494936684        0.81898661106389        0.30588561228377
O            2.50159216782531        1.85915423018406        0.93452205297068
C            1.40354699143714       -0.01552060505694       -0.08131648059321
C            1.48769947700510       -1.11919969918159       -0.93447143992617
O            2.69532895637749       -1.62963933354561       -1.42428045490161
C            0.30636530503645       -1.72400775772165       -1.43689844140419
O            0.29740774013501       -2.66046730374231       -2.26189593258616
N           -0.88647863722838       -1.12984563800664       -1.03285049942088
C           -0.92292833110976       -0.38914920446087        0.22932152226207
C           -1.03830397680321       -1.38858448347494        1.40657233384542
C           -2.12810288041500        0.60960614174936        0.19030135589636
C           -1.94184925309423        1.54633539339422       -1.01416779436201
C           -3.48841439212581       -0.08518361969367        0.09197051328199
N           -2.11842120795611        1.43029243235617        1.40357274619146
N            0.26152915530971        0.41839103717824        0.43799349793336
H            5.02319414406453        1.13942846960468        1.34796982012734
H            5.77437726800012        0.61535369422974       -0.18609483713392
H            4.82361916661604        2.12764915784865       -0.11881997822388
H            2.44852588985449       -2.35751535188065       -2.01851379798810
H           -1.69256203305161       -1.71813776462537       -1.18816327854093
H           -1.14932034058995       -0.84531754723175        2.34281787493066
H           -1.89013054791567       -2.05199630650701        1.27195193334074
H           -0.13219655973906       -1.99217739849647        1.45720654368505
H           -1.97252871353103        0.97829475714850       -1.94413979548196
H           -0.97744748970069        2.05219111850906       -0.94245655882744
H           -2.73263620610191        2.29630435664071       -1.02750204851560
H           -3.55691878311391       -0.68411146240997       -0.81518888735420
H           -4.27947537111038        0.66524082298735        0.06729629071755
H           -3.66268529142276       -0.73161183334729        0.95082734160988
H           -1.14669185242007        1.59717678455392        1.66540316199725
H           -2.55824444443929        0.92478572819601        2.16014773300247

          :  Hamiltonian                  GFN1-xTB          :
         :: total energy             -58.558988613426 Eh    ::
         :: gradient norm              0.000880718825 Eh/a0 ::
         :: HOMO-LUMO gap              1.377129485515 eV    ::
         :: SCC energy               -59.093594498627 Eh    ::
         :: -> Gsolv                  -0.098666593110 Eh    ::
         :: repulsion energy           0.554574296228 Eh    ::

    * Orbital Energies and Occupations

         #    Occupation            Energy/Eh            Energy/eV
      -------------------------------------------------------------
         1        2.0000           -0.8074958             -21.9731
       ...           ...                  ...                  ...
        36        2.0000           -0.4782325             -13.0134
        37        2.0000           -0.4740728             -12.9002
        38        2.0000           -0.4727065             -12.8630
        39        2.0000           -0.4640947             -12.6287
        40        2.0000           -0.4570027             -12.4357
        41        2.0000           -0.4473187             -12.1722
        42        2.0000           -0.4374507             -11.9036
        43        2.0000           -0.4235084             -11.5243
        44        2.0000           -0.4007564             -10.9051
        45        2.0000           -0.3950141             -10.7489
        46        2.0000           -0.3771054             -10.2616
        47        2.0000           -0.3727993             -10.1444
        48        2.0000           -0.3148736              -8.5681 (HOMO)
        49                         -0.2642650              -7.1910 (LUMO)
        50                         -0.1862657              -5.0685
        51                         -0.1261511              -3.4327
        52                         -0.1130740              -3.0769
        53                         -0.1094117              -2.9772
        54                         -0.1003621              -2.7310
        55                         -0.0918661              -2.4998
        56                         -0.0791739              -2.1544
        57                         -0.0639102              -1.7391
        58                         -0.0637176              -1.7338
        59                         -0.0627694              -1.7080
       ...                                ...                  ...
       100                          0.7386461              20.0996
      -------------------------------------------------------------
                  HL-Gap            0.0506086 Eh            1.3771 eV

Wiberg/Mayer (AO) data.
largest (>0.10) Wiberg bond orders for each atom

     #   Z sym  total        # sym  WBO       # sym  WBO       # sym  WBO
 ---------------------------------------------------------------------------
     1   6 C    3.894 --    19 H    0.987    18 H    0.980    20 H    0.980
                             2 O    0.918
     2   8 O    2.184 --     3 C    1.081     1 C    0.918     4 O    0.122
     3   6 C    3.820 --     4 O    1.634     2 O    1.081     5 C    1.009
     4   8 O    1.888 --     3 C    1.634     2 O    0.122
     5   6 C    3.971 --    17 N    1.423     6 C    1.325     3 C    1.009
     6   6 C    3.865 --     5 C    1.325     8 C    1.206     7 O    0.973
                            17 N    0.178
     7   8 O    1.946 --     6 C    0.973    21 H    0.850
     8   6 C    3.919 --     9 O    1.461     6 C    1.206    10 N    1.093
     9   8 O    1.793 --     8 C    1.461    10 N    0.100
    10   7 N    3.202 --     8 C    1.093    11 C    0.934    22 H    0.920
                             9 O    0.100
    11   6 C    3.939 --    17 N    1.001    12 C    0.972    13 C    0.945
                            10 N    0.934
    12   6 C    3.996 --    25 H    0.985    24 H    0.984    23 H    0.984
                            11 C    0.972
    13   6 C    3.964 --    15 C    1.003    14 C    0.997    16 N    0.984
                            11 C    0.945
    14   6 C    3.997 --    13 C    0.997    28 H    0.988    26 H    0.986
                            27 H    0.982
    15   6 C    3.996 --    13 C    1.003    30 H    0.985    29 H    0.984
                            31 H    0.983
    16   7 N    2.956 --    13 C    0.984    33 H    0.953    32 H    0.938
    17   7 N    2.946 --     5 C    1.423    11 C    1.001     6 C    0.178
    18   1 H    1.012 --     1 C    0.980
    19   1 H    1.015 --     1 C    0.987
    20   1 H    1.013 --     1 C    0.980
    21   1 H    0.892 --     7 O    0.850
    22   1 H    0.968 --    10 N    0.920
    23   1 H    1.011 --    12 C    0.984
    24   1 H    1.006 --    12 C    0.984
    25   1 H    1.008 --    12 C    0.985
    26   1 H    1.017 --    14 C    0.986
    27   1 H    1.021 --    14 C    0.982
    28   1 H    1.013 --    14 C    0.988
    29   1 H    1.005 --    15 C    0.984
    30   1 H    1.006 --    15 C    0.985
    31   1 H    1.006 --    15 C    0.983
    32   1 H    0.991 --    16 N    0.938
    33   1 H    0.971 --    16 N    0.953
 ---------------------------------------------------------------------------

           -------------------------------------------------
          | TOTAL ENERGY              -58.558988613426 Eh   |
          | GRADIENT NORM               0.000880718825 Eh/α |
          | HOMO-LUMO GAP               1.377129485515 eV   |
           -------------------------------------------------

 * finished run on 2023/06/20 at 15:00:23.519
