   * xtb version 6.5.1 (579679a) compiled by 'ehlert@majestix' on 2022-07-11
          program call               : /lustre/hpc/kemi/ree/PhD/git/ReactivityQM/dep/xtb-6.5.1/bin/xtb --gfn 1 /lustre/hpc/kemi/ree/PhD/git/ReactivityQM/calculations/R02deprot/reac01prodE07/conf19/R02deprot_reac01prodE07_conf19_gfn1.xyz --opt --vfukui --chrg -2 --uhf 0 --alpb DMSO

   ID    Z sym.   atoms
    1    6 C      1, 3, 5, 7-10, 12, 14, 15, 18, 19, 22, 24
    2    8 O      2, 4, 13, 20, 23, 25
    3    7 N      6, 11, 16, 17, 21
    4    1 H      26-42

      * Solvation model:               ALPB
        Solvent                        DMSO
        Solvent mass                       7.8130E+01 g/mol
          :  Hamiltonian                  GFN1-xTB          :
 * total energy  :   -83.5641417 Eh     change       -0.4504841E-11 Eh
 * total energy  :   -83.5786970 Eh     change       -0.1455531E-01 Eh
 * total energy  :   -83.5850143 Eh     change       -0.6317253E-02 Eh
 * total energy  :   -83.5865463 Eh     change       -0.1532022E-02 Eh
 * total energy  :   -83.5877139 Eh     change       -0.1167662E-02 Eh
 * total energy  :   -83.5882268 Eh     change       -0.5128441E-03 Eh
 * total energy  :   -83.5885610 Eh     change       -0.3342005E-03 Eh
 * total energy  :   -83.5887765 Eh     change       -0.2155174E-03 Eh
 * total energy  :   -83.5889309 Eh     change       -0.1543934E-03 Eh
 * total energy  :   -83.5890705 Eh     change       -0.1396482E-03 Eh
 * total energy  :   -83.5975057 Eh     change       -0.9514901E-05 Eh
 * total energy  :   -83.5975150 Eh     change       -0.9275142E-05 Eh
 * total energy  :   -83.5975236 Eh     change       -0.8626651E-05 Eh
 * total energy  :   -83.5975309 Eh     change       -0.7286004E-05 Eh
 * total energy  :   -83.5975387 Eh     change       -0.7769239E-05 Eh
 * total energy  :   -83.5975475 Eh     change       -0.8782885E-05 Eh
 * total energy  :   -83.5975558 Eh     change       -0.8381928E-05 Eh
 * total energy  :   -83.5975623 Eh     change       -0.6410757E-05 Eh
 * total energy  :   -83.5975670 Eh     change       -0.4744613E-05 Eh
   *** GEOMETRY OPTIMIZATION CONVERGED AFTER 82 ITERATIONS ***

 final structure:
================
42
 xtb: 6.5.1 (579679a)
C            6.67245479319202       -0.42826471282289        1.29407567745350
O            5.52693612976255        0.26329810345771        0.79970892170062
C            4.42462457410772       -0.50160277078614        0.58154271486422
O            4.44442155995849       -1.69777183271429        0.80346888678338
C            3.25944137129577        0.24768582431594        0.07934601469160
N            2.14877499487100       -0.53381424762502       -0.09012165118367
C            1.04993044273845        0.05125708292258       -0.52217522906591
C           -0.19022276992174       -0.81458834413588       -0.71969544770646
C            0.11547132861995       -2.27811596759116       -0.38861821011146
C           -0.64366871686632       -0.67762731236282       -2.18579336353682
N           -1.22826034994733       -0.30348303553297        0.20516082779836
C           -2.54315241141822       -0.89112852980521        0.00981850987642
O           -2.76096437395439       -2.08691517211280        0.73132833117755
C           -3.09836465931201       -1.91488081019447        2.09989908839275
C           -3.62778242340701       -0.10290694278196       -0.29948034731999
N           -4.94236176591036       -0.42610157113387       -0.22548904860370
N           -5.62646021364651        0.64034473185918       -0.77806215018678
C           -4.76352979555217        1.51760432257211       -1.15022680152644
C           -5.03458005157900        2.83379189070457       -1.78978671818928
O           -3.46612695113937        1.14093016492761       -0.89589131905121
N            0.90087874844597        1.34264533289992       -0.81090025998664
C            1.95298785758813        2.19209657322833       -0.68678496936785
O            1.86328649585180        3.40506224362086       -0.95828741958507
C            3.21207742067762        1.59439991912401       -0.21026002036603
O            4.25519283879815        2.46170758909540       -0.09364610609111
H            7.00250643114679       -1.18113056174235        0.57321384834007
H            6.44093903529711       -0.91871435108680        2.24372779976751
H            7.45341524841077        0.31462708158074        1.43944567520345
H           -0.75824709633510       -2.90393382363152       -0.57027643336912
H            0.40120882843066       -2.36920803561412        0.66022717871114
H            0.94018773861571       -2.63741087166946       -1.00488062558315
H           -0.82026207160324        0.37322328046368       -2.41936500878868
H           -1.56632268164325       -1.23716179276392       -2.34715940111592
H            0.12592292170415       -1.06237486958287       -2.85502584605733
H           -1.29903345750122        0.70513288853400        0.04307505021067
H           -4.05670361195487       -1.38632793518450        2.20959918405606
H           -3.18920920322034       -2.90785664585978        2.54808632865007
H           -2.32180969700959       -1.35158906735790        2.63725330161473
H           -6.11032987342817        2.97515468614688       -1.87225242525256
H           -4.61431781851923        3.64759263782595       -1.19629248563048
H           -4.59445383138726        2.88251568292117       -2.78743969607070
H            5.06550406576256        2.02384116789861        0.20327164444801

          :  Hamiltonian                  GFN1-xTB          :
         :: total energy             -83.597566998245 Eh    ::
         :: gradient norm              0.000337432372 Eh/a0 ::
         :: HOMO-LUMO gap              0.224837546347 eV    ::
         :: SCC energy               -84.320630846086 Eh    ::
         :: -> Gsolv                  -0.271584135475 Eh    ::
         :: repulsion energy           0.748592397130 Eh    ::

    * Orbital Energies and Occupations

         #    Occupation            Energy/Eh            Energy/eV
      -------------------------------------------------------------
         1        2.0000           -0.8113162             -22.0770
       ...           ...                  ...                  ...
        56        2.0000           -0.4382663             -11.9258
        57        2.0000           -0.4146393             -11.2829
        58        2.0000           -0.4134561             -11.2507
        59        2.0000           -0.4078566             -11.0983
        60        2.0000           -0.4002007             -10.8900
        61        2.0000           -0.3935064             -10.7079
        62        2.0000           -0.3837507             -10.4424
        63        2.0000           -0.3797325             -10.3330
        64        2.0000           -0.3651675              -9.9367
        65        2.0000           -0.3584760              -9.7546
        66        2.0000           -0.3533181              -9.6143
        67        2.0000           -0.3522126              -9.5842
        68        1.9745           -0.2757396              -7.5033 (HOMO)
        69        0.0255           -0.2674770              -7.2784 (LUMO)
        70                         -0.2076838              -5.6514
        71                         -0.1801480              -4.9021
        72                         -0.1769654              -4.8155
        73                         -0.1371737              -3.7327
        74                         -0.1239419              -3.3726
        75                         -0.1124763              -3.0606
        76                         -0.1029276              -2.8008
        77                         -0.0907311              -2.4689
        78                         -0.0864195              -2.3516
        79                         -0.0825584              -2.2465
       ...                                ...                  ...
       134                          0.7404670              20.1491
      -------------------------------------------------------------
                  HL-Gap            0.0082626 Eh            0.2248 eV

Wiberg/Mayer (AO) data.
largest (>0.10) Wiberg bond orders for each atom

     #   Z sym  total        # sym  WBO       # sym  WBO       # sym  WBO
 ---------------------------------------------------------------------------
     1   6 C    3.884 --    28 H    0.987    26 H    0.981    27 H    0.981
                             2 O    0.907
     2   8 O    2.172 --     3 C    1.042     1 C    0.907     4 O    0.115
     3   6 C    3.816 --     4 O    1.631     5 C    1.047     2 O    1.042
     4   8 O    1.889 --     3 C    1.631     2 O    0.115
     5   6 C    3.958 --    24 C    1.459     6 N    1.206     3 C    1.047
     6   7 N    2.986 --     7 C    1.452     5 C    1.206
     7   6 C    3.949 --     6 N    1.452    21 N    1.366     8 C    0.973
     8   6 C    3.970 --     9 C    1.001    10 C    0.980     7 C    0.973
                            11 N    0.952
     9   6 C    3.997 --     8 C    1.001    31 H    0.987    30 H    0.985
                            29 H    0.985
    10   6 C    3.996 --    34 H    0.988    32 H    0.984    33 H    0.983
                             8 C    0.980
    11   7 N    3.018 --    12 C    0.962     8 C    0.952    35 H    0.942
    12   6 C    3.661 --    15 C    1.455    11 N    0.962    13 O    0.917
                            16 N    0.141
    13   8 O    1.996 --    14 C    0.951    12 C    0.917
    14   6 C    3.939 --    37 H    0.986    38 H    0.982    36 H    0.981
                            13 O    0.951
    15   6 C    3.860 --    12 C    1.455    16 N    1.295    20 O    0.961
    16   7 N    2.798 --    15 C    1.295    17 N    1.152    12 C    0.141
                            18 C    0.114
    17   7 N    2.985 --    18 C    1.673    16 N    1.152
    18   6 C    3.882 --    17 N    1.673    19 C    1.018    20 O    0.998
                            16 N    0.114
    19   6 C    3.996 --    18 C    1.018    39 H    0.987    40 H    0.976
                            41 H    0.975
    20   8 O    2.185 --    18 C    0.998    15 C    0.961
    21   7 N    2.981 --     7 C    1.366    22 C    1.243    23 O    0.125
    22   6 C    3.931 --    23 O    1.481    21 N    1.243    24 C    1.076
    23   8 O    1.766 --    22 C    1.481    21 N    0.125
    24   6 C    3.885 --     5 C    1.459    22 C    1.076    25 O    1.048
    25   8 O    2.034 --    24 C    1.048    42 H    0.829
    26   1 H    1.011 --     1 C    0.981
    27   1 H    1.012 --     1 C    0.981
    28   1 H    1.013 --     1 C    0.987
    29   1 H    1.019 --     9 C    0.985
    30   1 H    1.022 --     9 C    0.985
    31   1 H    1.018 --     9 C    0.987
    32   1 H    1.021 --    10 C    0.984
    33   1 H    1.023 --    10 C    0.983
    34   1 H    1.008 --    10 C    0.988
    35   1 H    0.995 --    11 N    0.942
    36   1 H    1.028 --    14 C    0.981
    37   1 H    1.023 --    14 C    0.986
    38   1 H    1.022 --    14 C    0.982
    39   1 H    1.008 --    19 C    0.987
    40   1 H    1.007 --    19 C    0.976
    41   1 H    1.007 --    19 C    0.975
    42   1 H    0.881 --    25 O    0.829
 ---------------------------------------------------------------------------

           -------------------------------------------------
          | TOTAL ENERGY              -83.597566998245 Eh   |
          | GRADIENT NORM               0.000337432372 Eh/α |
          | HOMO-LUMO GAP               0.224837546347 eV   |
           -------------------------------------------------

 * finished run on 2023/06/20 at 17:49:22.374
