   * xtb version 6.5.1 (579679a) compiled by 'ehlert@majestix' on 2022-07-11
          program call               : /lustre/hpc/kemi/ree/PhD/git/ReactivityQM/dep/xtb-6.5.1/bin/xtb --gfn 1 /lustre/hpc/kemi/ree/PhD/git/ReactivityQM/calculations/R03/reac02prodE01/conf12/R03_reac02prodE01_conf12_gfn1.xyz --opt --vfukui --chrg -1 --uhf 0 --alpb DMSO

   ID    Z sym.   atoms
    1    6 C      1, 3, 5, 7-10, 12, 13, 15, 18, 19, 22, 23, 25
    2    8 O      2, 4, 14, 20, 24, 26
    3    7 N      6, 11, 16, 17, 21
    4    1 H      27-46

      * Solvation model:               ALPB
        Solvent                        DMSO
        Solvent mass                       7.8130E+01 g/mol
          :  Hamiltonian                  GFN1-xTB          :
 * total energy  :   -87.0245094 Eh     change       -0.5229595E-11 Eh
 * total energy  :   -87.0391934 Eh     change       -0.1468400E-01 Eh
 * total energy  :   -87.0444288 Eh     change       -0.5235334E-02 Eh
 * total energy  :   -87.0455162 Eh     change       -0.1087432E-02 Eh
 * total energy  :   -87.0459787 Eh     change       -0.4624940E-03 Eh
 * total energy  :   -87.0461919 Eh     change       -0.2132375E-03 Eh
 * total energy  :   -87.0463522 Eh     change       -0.1602363E-03 Eh
 * total energy  :   -87.0464703 Eh     change       -0.1181859E-03 Eh
 * total energy  :   -87.0465587 Eh     change       -0.8832301E-04 Eh
 * total energy  :   -87.0466216 Eh     change       -0.6291529E-04 Eh
 * total energy  :   -87.0467591 Eh     change       -0.2521436E-04 Eh
 * total energy  :   -87.0467795 Eh     change       -0.2042688E-04 Eh
 * total energy  :   -87.0468022 Eh     change       -0.2269533E-04 Eh
 * total energy  :   -87.0468152 Eh     change       -0.1302928E-04 Eh
 * total energy  :   -87.0468481 Eh     change       -0.3291734E-04 Eh
 * total energy  :   -87.0468583 Eh     change       -0.1016683E-04 Eh
 * total energy  :   -87.0468748 Eh     change       -0.1654466E-04 Eh
 * total energy  :   -87.0468819 Eh     change       -0.7038410E-05 Eh
 * total energy  :   -87.0468865 Eh     change       -0.4579003E-05 Eh
   *** GEOMETRY OPTIMIZATION CONVERGED AFTER 22 ITERATIONS ***

 final structure:
================
46
 xtb: 6.5.1 (579679a)
C           -6.61766868322557       -2.21345798425436        0.21273258938408
O           -5.60328752846008       -1.26504352199913       -0.14220900425667
C           -4.42468228479161       -1.39968826217296        0.48970460265813
O           -4.22388383323328       -2.26573138086961        1.30813347403031
C           -3.41911082580161       -0.38259455739071        0.08190947270910
N           -2.21332061917374       -0.53684164666114        0.70018231131089
C           -1.22644344047629        0.27811445190391        0.48634362638718
C            0.06614436820156       -0.01420817068980        1.26149880115350
C            0.01823853134001        0.84049900615449        2.53942874656169
C            0.05547772720700       -1.50850261547863        1.64542449912466
N            1.20653141692290        0.29491713447771        0.40238730634226
C            2.61013942570500        0.31174113470695        1.07502122748225
C            3.02380571241135        1.81966629256090        1.11551773456056
O            2.72122309987041       -0.31737229770398        2.20576028607544
C            3.49440720156106       -0.35154525677947       -0.03010603332106
N            3.19844041269006       -1.37984649818686       -0.76149278245550
N            4.33173776985653       -1.70160428125930       -1.48442621135685
C            5.23505449280758       -0.84910108700025       -1.13508706900294
C            6.63183242491131       -0.75511385947047       -1.62577188791773
O            4.77827943846466        0.02991075331254       -0.22067808691964
N           -1.36723140043700        1.35120647874355       -0.35788887729741
C           -0.30926624828209        2.34208328301695       -0.57154744849031
C           -2.52379013117789        1.56728821563183       -1.09419828943245
O           -2.60905872237778        2.49520016016084       -1.89249181573675
C           -3.60910496120162        0.62688823329942       -0.82491138456299
O           -4.73222245000597        0.86917330656040       -1.52283094554404
H           -6.88276612059147       -2.09835791307482        1.26604773138422
H           -7.47738928668281       -2.00288660912660       -0.41821528433026
H           -6.25681846872614       -3.22943119407788        0.03742368969655
H           -0.89971098519321        0.61813561058740        3.08360684263962
H            0.03048141679695        1.90382845979907        2.30666262661289
H            0.87071720262454        0.60895292594830        3.17687095377934
H           -0.78817406162456       -1.72716634035224        2.29912852048557
H           -0.02757896013530       -2.12406201820279        0.74971045577559
H            0.98074383843890       -1.75704599096871        2.16339221864975
H            1.23400815168344       -0.42233694262684       -0.32423710471931
H            4.05772427233199        1.89140350047806        1.45008017553080
H            2.92654102474569        2.27481327846853        0.13170475796882
H            2.38812579372632        2.34652509700026        1.82386515045051
H            7.32992163530427       -0.80696977504756       -0.79071992290409
H            6.78712346319936        0.19501991895918       -2.13649245316260
H            6.83189709210014       -1.57039004504167       -2.31654721844314
H            0.21371596478177        2.53901798690196        0.35827917784480
H            0.39962062229223        1.97319940504760       -1.31225741569371
H           -0.76868496472826        3.26192655664968       -0.93253147921608
H           -5.44173952365218        0.23978705806860       -1.31479026383044

          :  Hamiltonian                  GFN1-xTB          :
         :: total energy             -87.046886457171 Eh    ::
         :: gradient norm              0.000481175186 Eh/a0 ::
         :: HOMO-LUMO gap              0.955847591783 eV    ::
         :: SCC energy               -87.837258067006 Eh    ::
         :: -> Gsolv                  -0.116128864084 Eh    ::
         :: repulsion energy           0.820161442211 Eh    ::

    * Orbital Energies and Occupations

         #    Occupation            Energy/Eh            Energy/eV
      -------------------------------------------------------------
         1        2.0000           -0.8387592             -22.8238
       ...           ...                  ...                  ...
        59        2.0000           -0.4634685             -12.6116
        60        2.0000           -0.4617599             -12.5651
        61        2.0000           -0.4562814             -12.4160
        62        2.0000           -0.4485124             -12.2046
        63        2.0000           -0.4427699             -12.0484
        64        2.0000           -0.4389550             -11.9446
        65        2.0000           -0.4290065             -11.6739
        66        2.0000           -0.4171084             -11.3501
        67        2.0000           -0.4131733             -11.2430
        68        2.0000           -0.4125577             -11.2263
        69        2.0000           -0.3792868             -10.3209
        70        2.0000           -0.3511457              -9.5552
        71        2.0000           -0.3479137              -9.4672 (HOMO)
        72                         -0.3127870              -8.5114 (LUMO)
        73                         -0.2647838              -7.2051
        74                         -0.2311880              -6.2909
        75                         -0.2282551              -6.2111
        76                         -0.2132164              -5.8019
        77                         -0.1457096              -3.9650
        78                         -0.1354912              -3.6869
        79                         -0.1297662              -3.5311
        80                         -0.1229655              -3.3461
        81                         -0.1059849              -2.8840
        82                         -0.0910431              -2.4774
       ...                                ...                  ...
       144                          0.7361005              20.0303
      -------------------------------------------------------------
                  HL-Gap            0.0351268 Eh            0.9558 eV

Wiberg/Mayer (AO) data.
largest (>0.10) Wiberg bond orders for each atom

     #   Z sym  total        # sym  WBO       # sym  WBO       # sym  WBO
 ---------------------------------------------------------------------------
     1   6 C    3.866 --    28 H    0.986    29 H    0.980    27 H    0.980
                             2 O    0.889
     2   8 O    2.198 --     3 C    1.080     1 C    0.889     4 O    0.127
     3   6 C    3.842 --     4 O    1.669     2 O    1.080     5 C    1.009
     4   8 O    1.929 --     3 C    1.669     2 O    0.127
     5   6 C    3.966 --    25 C    1.486     6 N    1.196     3 C    1.009
     6   7 N    3.026 --     7 C    1.552     5 C    1.196
     7   6 C    3.907 --     6 N    1.552    21 N    1.173     8 C    0.965
     8   6 C    3.963 --    10 C    0.985    11 N    0.983     9 C    0.977
                             7 C    0.965
     9   6 C    3.993 --    30 H    0.987    31 H    0.980     8 C    0.977
                            32 H    0.972
    10   6 C    3.994 --    34 H    0.986    33 H    0.985     8 C    0.985
                            35 H    0.975
    11   7 N    2.997 --     8 C    0.983    36 H    0.942    12 C    0.830
    12   6 C    3.934 --    14 O    1.218    13 C    0.943    15 C    0.887
                            11 N    0.830
    13   6 C    3.992 --    38 H    0.990    37 H    0.985    39 H    0.984
                            12 C    0.943
    14   8 O    1.575 --    12 C    1.218
    15   6 C    3.810 --    16 N    1.651    20 O    1.049    12 C    0.887
    16   7 N    2.981 --    15 C    1.651    17 N    1.147
    17   7 N    2.976 --    18 C    1.657    16 N    1.147
    18   6 C    3.886 --    17 N    1.657    20 O    1.061    19 C    1.024
    19   6 C    3.993 --    18 C    1.024    42 H    0.985    40 H    0.971
                            41 H    0.969
    20   8 O    2.296 --    18 C    1.061    15 C    1.049
    21   7 N    3.514 --     7 C    1.173    23 C    1.131    22 C    0.929
                            24 O    0.137
    22   6 C    3.924 --    43 H    0.977    45 H    0.977    44 H    0.975
                            21 N    0.929
    23   6 C    3.918 --    24 O    1.560    21 N    1.131    25 C    1.077
    24   8 O    1.876 --    23 C    1.560    21 N    0.137
    25   6 C    3.917 --     5 C    1.486    26 O    1.090    23 C    1.077
    26   8 O    2.071 --    25 C    1.090    46 H    0.808
    27   1 H    1.007 --     1 C    0.980
    28   1 H    1.010 --     1 C    0.986
    29   1 H    1.008 --     1 C    0.980
    30   1 H    1.008 --     9 C    0.987
    31   1 H    1.009 --     9 C    0.980
    32   1 H    1.028 --     9 C    0.972
    33   1 H    1.018 --    10 C    0.985
    34   1 H    1.011 --    10 C    0.986
    35   1 H    1.033 --    10 C    0.975
    36   1 H    0.992 --    11 N    0.942
    37   1 H    1.016 --    13 C    0.985
    38   1 H    1.014 --    13 C    0.990
    39   1 H    1.016 --    13 C    0.984
    40   1 H    1.001 --    19 C    0.971
    41   1 H    1.002 --    19 C    0.969
    42   1 H    1.002 --    19 C    0.985
    43   1 H    1.028 --    22 C    0.977
    44   1 H    1.024 --    22 C    0.975
    45   1 H    1.012 --    22 C    0.977
    46   1 H    0.859 --    26 O    0.808
 ---------------------------------------------------------------------------

           -------------------------------------------------
          | TOTAL ENERGY              -87.046886457171 Eh   |
          | GRADIENT NORM               0.000481175186 Eh/α |
          | HOMO-LUMO GAP               0.955847591783 eV   |
           -------------------------------------------------

 * finished run on 2023/06/20 at 15:15:10.552
