   * xtb version 6.5.1 (579679a) compiled by 'ehlert@majestix' on 2022-07-11
          program call               : /lustre/hpc/kemi/ree/PhD/git/ReactivityQM/dep/xtb-6.5.1/bin/xtb --gfn 1 /lustre/hpc/kemi/ree/PhD/git/ReactivityQM/calculations/RaltegravirCLI/reac01prodE05/conf03/RaltegravirCLI_reac01prodE05_conf03_gfn1.xyz --opt --vfukui --chrg -1 --uhf 0 --alpb DMSO

   ID    Z sym.   atoms
    1    6 C      1, 2, 5-7
    2    7 N      3, 4
    3    8 O      8, 10
    4   17 Cl     9
    5    1 H      11-16

      * Solvation model:               ALPB
        Solvent                        DMSO
        Solvent mass                       7.8130E+01 g/mol
          :  Hamiltonian                  GFN1-xTB          :
 * total energy  :   -34.1239425 Eh     change       -0.1421085E-11 Eh
 * total energy  :   -34.1334730 Eh     change       -0.9530492E-02 Eh
 * total energy  :   -34.1379297 Eh     change       -0.4456635E-02 Eh
 * total energy  :   -34.1394000 Eh     change       -0.1470280E-02 Eh
 * total energy  :   -34.1406575 Eh     change       -0.1257541E-02 Eh
 * total energy  :   -34.1416195 Eh     change       -0.9619784E-03 Eh
 * total energy  :   -34.1428371 Eh     change       -0.1217616E-02 Eh
 * total energy  :   -34.1463839 Eh     change       -0.3546814E-02 Eh
 * total energy  :   -34.1492444 Eh     change       -0.2860492E-02 Eh
 * total energy  :   -34.1368931 Eh     change        0.1235129E-01 Eh
 * total energy  :   -34.1538827 Eh     change       -0.3939623E-03 Eh
 * total energy  :   -34.1541733 Eh     change       -0.2905509E-03 Eh
 * total energy  :   -34.1544020 Eh     change       -0.2287268E-03 Eh
 * total energy  :   -34.1545714 Eh     change       -0.1694343E-03 Eh
 * total energy  :   -34.1546565 Eh     change       -0.8501191E-04 Eh
 * total energy  :   -34.1546871 Eh     change       -0.3067455E-04 Eh
 * total energy  :   -34.1547024 Eh     change       -0.1524613E-04 Eh
 * total energy  :   -34.1547098 Eh     change       -0.7429236E-05 Eh
 * total energy  :   -34.1547140 Eh     change       -0.4169645E-05 Eh
   *** GEOMETRY OPTIMIZATION CONVERGED AFTER 22 ITERATIONS ***

 final structure:
================
16
 xtb: 6.5.1 (579679a)
C            2.52075679920606       -0.28210068731215        0.79279432061849
C            1.22344763369684       -0.12778606256599        0.08494483872417
N            1.07694454520570        0.03361533936536       -1.16696952097291
N           -0.31722215765328        0.12830725860982       -1.43430327277561
C           -0.96518157230164        0.02851619278327       -0.08488553671264
C           -2.12084242777106       -0.92785556393236        0.07329315129246
C           -1.03665560087060        1.29447511389069       -0.85720827834111
O           -2.00306038933834        1.82871586278976       -1.41133120387877
Cl           0.22538929706416        2.63331604210522       -0.09169945833826
O            0.08794183064278       -0.17632901846782        0.83419068507457
H            2.49502028488398       -1.16805988547866        1.42517947620733
H            3.32825590825517       -0.37066123398960        0.07051576430096
H            2.70081378641764        0.58324701702979        1.43068929565502
H           -2.85033854070383       -0.73722412610929       -0.71149205379529
H           -1.77306637597531       -1.95793408157385        0.00231298232266
H           -2.59220402075832       -0.78224216714421        1.04396981061894

          :  Hamiltonian                  GFN1-xTB          :
         :: total energy             -34.154713974689 Eh    ::
         :: gradient norm              0.000699298960 Eh/a0 ::
         :: HOMO-LUMO gap              3.363469014426 eV    ::
         :: SCC energy               -34.409050339752 Eh    ::
         :: -> Gsolv                  -0.097841374499 Eh    ::
         :: repulsion energy           0.262116392273 Eh    ::

    * Orbital Energies and Occupations

         #    Occupation            Energy/Eh            Energy/eV
      -------------------------------------------------------------
         1        2.0000           -0.8411499             -22.8889
       ...           ...                  ...                  ...
        16        2.0000           -0.5179047             -14.0929
        17        2.0000           -0.5131381             -13.9632
        18        2.0000           -0.5047048             -13.7337
        19        2.0000           -0.5001770             -13.6105
        20        2.0000           -0.4946042             -13.4589
        21        2.0000           -0.4721530             -12.8479
        22        2.0000           -0.4456162             -12.1258
        23        2.0000           -0.4401929             -11.9783
        24        2.0000           -0.4347903             -11.8312
        25        2.0000           -0.4293544             -11.6833
        26        2.0000           -0.4208700             -11.4525
        27        2.0000           -0.4068833             -11.0719
        28        2.0000           -0.3492376              -9.5032 (HOMO)
        29                         -0.2256324              -6.1398 (LUMO)
        30                         -0.1979957              -5.3877
        31                         -0.1265908              -3.4447
        32                         -0.1172298              -3.1900
        33                         -0.0828571              -2.2547
        34                         -0.0604683              -1.6454
        35                         -0.0587589              -1.5989
        36                         -0.0520883              -1.4174
        37                         -0.0490468              -1.3346
        38                          0.0056921               0.1549
        39                          0.0250507               0.6817
       ...                                ...                  ...
        57                          0.6567885              17.8721
      -------------------------------------------------------------
                  HL-Gap            0.1236052 Eh            3.3635 eV

Wiberg/Mayer (AO) data.
largest (>0.10) Wiberg bond orders for each atom

     #   Z sym  total        # sym  WBO       # sym  WBO       # sym  WBO
 ---------------------------------------------------------------------------
     1   6 C    3.993 --     2 C    1.020    12 H    0.985    11 H    0.973
                            13 H    0.967
     2   6 C    3.897 --     3 N    1.759    10 O    1.025     1 C    1.020
     3   7 N    2.973 --     2 C    1.759     4 N    1.003    10 O    0.112
     4   7 N    2.949 --     3 N    1.003     5 C    0.876     7 C    0.845
     5   6 C    3.813 --     6 C    0.996    10 O    0.914     7 C    0.895
                             4 N    0.876
     6   6 C    3.995 --     5 C    0.996    14 H    0.984    16 H    0.982
                            15 H    0.982
     7   6 C    3.870 --     8 O    1.479     5 C    0.895     4 N    0.845
                             9 Cl   0.568
     8   8 O    1.793 --     7 C    1.479     9 Cl   0.120
     9  17 Cl   0.756 --     7 C    0.568     8 O    0.120
    10   8 O    2.150 --     2 C    1.025     5 C    0.914     3 N    0.112
    11   1 H    1.002 --     1 C    0.973
    12   1 H    1.004 --     1 C    0.985
    13   1 H    1.003 --     1 C    0.967
    14   1 H    1.008 --     6 C    0.984
    15   1 H    1.008 --     6 C    0.982
    16   1 H    1.007 --     6 C    0.982
 ---------------------------------------------------------------------------

           -------------------------------------------------
          | TOTAL ENERGY              -34.154713974689 Eh   |
          | GRADIENT NORM               0.000699298960 Eh/α |
          | HOMO-LUMO GAP               3.363469014426 eV   |
           -------------------------------------------------

 * finished run on 2023/06/20 at 14:53:33.127
