   * xtb version 6.5.1 (579679a) compiled by 'ehlert@majestix' on 2022-07-11
          program call               : /lustre/hpc/kemi/ree/PhD/git/ReactivityQM/dep/xtb-6.5.1/bin/xtb --gfn 1 /lustre/hpc/kemi/ree/PhD/git/ReactivityQM/calculations/R02methylcation/reac01prodN10/conf06/R02methylcation_reac01prodN10_conf06_gfn1.xyz --opt --vfukui --chrg 0 --uhf 0 --alpb DMSO

   ID    Z sym.   atoms
    1    6 C      1, 3, 5, 6, 8, 11-15, 17, 19, 22, 23
    2    8 O      2, 4, 7, 9, 18, 24
    3    7 N      10, 16, 20, 21, 25
    4    1 H      26-42

      * Solvation model:               ALPB
        Solvent                        DMSO
        Solvent mass                       7.8130E+01 g/mol
          :  Hamiltonian                  GFN1-xTB          :
 * total energy  :   -82.9625168 Eh     change       -0.1539036E-10 Eh
 * total energy  :   -82.9743893 Eh     change       -0.1187250E-01 Eh
 * total energy  :   -82.9794911 Eh     change       -0.5101813E-02 Eh
 * total energy  :   -82.9805170 Eh     change       -0.1025846E-02 Eh
 * total energy  :   -82.9809997 Eh     change       -0.4827394E-03 Eh
 * total energy  :   -82.9812506 Eh     change       -0.2509119E-03 Eh
 * total energy  :   -82.9814255 Eh     change       -0.1748545E-03 Eh
 * total energy  :   -82.9815469 Eh     change       -0.1214287E-03 Eh
 * total energy  :   -82.9816603 Eh     change       -0.1133868E-03 Eh
 * total energy  :   -82.9817703 Eh     change       -0.1099799E-03 Eh
 * total energy  :   -82.9825462 Eh     change       -0.2844313E-04 Eh
 * total energy  :   -82.9825142 Eh     change        0.3201148E-04 Eh
 * total energy  :   -82.9825701 Eh     change       -0.5585753E-04 Eh
 * total energy  :   -82.9825805 Eh     change       -0.1044467E-04 Eh
 * total energy  :   -82.9825899 Eh     change       -0.9391452E-05 Eh
 * total energy  :   -82.9825990 Eh     change       -0.9113369E-05 Eh
 * total energy  :   -82.9826056 Eh     change       -0.6537712E-05 Eh
 * total energy  :   -82.9826097 Eh     change       -0.4176729E-05 Eh
 * total energy  :   -82.9826130 Eh     change       -0.3235443E-05 Eh
   *** GEOMETRY OPTIMIZATION CONVERGED AFTER 44 ITERATIONS ***

 final structure:
================
42
 xtb: 6.5.1 (579679a)
C            1.98456500459906        3.92258577498232       -0.75153409169903
O            1.90370637796717        2.49123962170971       -0.79221420548273
C            2.95297359688818        1.82131434104082       -0.34320887596296
O            3.95484219870118        2.32689349590317        0.09110238603317
C            2.73375971582225        0.32308338104216       -0.43105168826823
C            3.91733422997029       -0.57778082178815       -0.54122516666217
O            4.99750759068865       -0.21657723403267       -0.93055146002359
C            3.63478839756162       -2.03125587635065       -0.15353500445725
O            4.51469991757713       -2.82472108314888        0.11005446712881
N            2.32329992713909       -2.34791645711352       -0.11048533222962
C            1.21046117603424       -1.49370312949908       -0.47382163104080
C            0.81294907402703       -1.77327773414251       -1.93225248010079
C            0.03109810470143       -1.72458354533256        0.52670611305536
C           -0.58597336149954       -3.11551089939888        0.37444961660500
C            0.52864176615474       -1.49444211664558        1.95876023199156
N           -0.95998821057158       -0.70183939331916        0.19357023833745
C           -2.15592293653378       -0.58670141746872        0.81260180189046
O           -2.63549906801519       -1.38554902663505        1.59579930630523
C           -2.83928347378483        0.66374815653829        0.39192292965200
N           -2.35140874363529        1.57341516321413       -0.39751368493585
N           -3.29166166941514        2.55384488983519       -0.49489908052290
C           -4.29330192368264        2.18100668297484        0.24378807283470
C           -5.56633998987605        2.90127060613886        0.46593481947005
O           -4.06708913118263        0.99634646513454        0.82981814361631
N            1.53309727727325       -0.10268911478050       -0.40390986678993
H            1.13649084813690        4.29676611956820       -1.32050379814993
H            1.92965993993397        4.26538224060194        0.28373239690209
H            2.92329786802461        4.25691588454068       -1.19823830802996
H            2.11506437376776       -3.32399725217318        0.03503076618377
H            0.63289801845241       -2.83680507485720       -2.06535904162636
H           -0.08613687620621       -1.21591916297921       -2.18454169873679
H            1.62602453967190       -1.46547299225376       -2.58714362657095
H            0.18568768998644       -3.88066506367253        0.42354547800819
H           -1.29509678169021       -3.29214995243201        1.18152724282751
H           -1.11320002787898       -3.20056003524899       -0.57371695915076
H            1.28759941607763       -2.23211213150627        2.21199920643264
H           -0.30364004579576       -1.59107973663991        2.65405575681051
H            0.95496496332843       -0.49595517174032        2.04751712632619
H           -0.61660739798784        0.10940812922557       -0.30798000340795
H           -5.48561528314042        3.91390339721006        0.07832232546309
H           -6.37914280826953        2.38538436610030       -0.04583167847879
H           -5.79950328332283        2.92875670740217        1.52928225645436

          :  Hamiltonian                  GFN1-xTB          :
         :: total energy             -82.982612965249 Eh    ::
         :: gradient norm              0.000322998442 Eh/a0 ::
         :: HOMO-LUMO gap              1.739062141944 eV    ::
         :: SCC energy               -83.763362159375 Eh    ::
         :: -> Gsolv                  -0.054082484342 Eh    ::
         :: repulsion energy           0.808259474698 Eh    ::

    * Orbital Energies and Occupations

         #    Occupation            Energy/Eh            Energy/eV
      -------------------------------------------------------------
         1        2.0000           -0.8657270             -23.5576
       ...           ...                  ...                  ...
        55        2.0000           -0.5086508             -13.8411
        56        2.0000           -0.5080096             -13.8236
        57        2.0000           -0.5075188             -13.8103
        58        2.0000           -0.5026851             -13.6788
        59        2.0000           -0.4970496             -13.5254
        60        2.0000           -0.4848724             -13.1941
        61        2.0000           -0.4831104             -13.1461
        62        2.0000           -0.4717938             -12.8382
        63        2.0000           -0.4662544             -12.6874
        64        2.0000           -0.4613389             -12.5537
        65        2.0000           -0.4544870             -12.3672
        66        2.0000           -0.4488530             -12.2139
        67        2.0000           -0.4401082             -11.9760 (HOMO)
        68                         -0.3761988             -10.2369 (LUMO)
        69                         -0.3209066              -8.7323
        70                         -0.3133128              -8.5257
        71                         -0.2588857              -7.0446
        72                         -0.2537639              -6.9053
        73                         -0.2048933              -5.5754
        74                         -0.2015055              -5.4832
        75                         -0.1455376              -3.9603
        76                         -0.1440751              -3.9205
        77                         -0.1434342              -3.9030
        78                         -0.1389452              -3.7809
       ...                                ...                  ...
       134                          0.7668657              20.8675
      -------------------------------------------------------------
                  HL-Gap            0.0639094 Eh            1.7391 eV

Wiberg/Mayer (AO) data.
largest (>0.10) Wiberg bond orders for each atom

     #   Z sym  total        # sym  WBO       # sym  WBO       # sym  WBO
 ---------------------------------------------------------------------------
     1   6 C    3.860 --    26 H    0.985    28 H    0.979    27 H    0.978
                             2 O    0.885
     2   8 O    2.220 --     3 C    1.141     1 C    0.885     4 O    0.146
     3   6 C    3.853 --     4 O    1.692     2 O    1.141     5 C    0.945
     4   8 O    1.951 --     3 C    1.692     2 O    0.146
     5   6 C    3.953 --    25 N    1.791     6 C    0.992     3 C    0.945
     6   6 C    3.857 --     7 O    1.806     5 C    0.992     8 C    0.907
     7   8 O    2.013 --     6 C    1.806
     8   6 C    3.903 --     9 O    1.636    10 N    1.246     6 C    0.907
     9   8 O    1.930 --     8 C    1.636    10 N    0.185
    10   7 N    3.364 --     8 C    1.246    11 C    0.940    29 H    0.882
                             9 O    0.185
    11   6 C    3.914 --    25 N    1.001    12 C    0.947    10 N    0.940
                            13 C    0.927
    12   6 C    3.981 --    32 H    0.982    31 H    0.981    30 H    0.980
                            11 C    0.947
    13   6 C    3.928 --    14 C    1.000    15 C    0.991    16 N    0.934
                            11 C    0.927
    14   6 C    3.989 --    13 C    1.000    35 H    0.982    33 H    0.981
                            34 H    0.974
    15   6 C    3.990 --    13 C    0.991    38 H    0.984    36 H    0.984
                            37 H    0.981
    16   7 N    3.338 --    17 C    1.243    13 C    0.934    39 H    0.886
                            18 O    0.175
    17   6 C    3.916 --    18 O    1.600    16 N    1.243    19 C    0.989
    18   8 O    1.916 --    17 C    1.600    16 N    0.175
    19   6 C    3.875 --    20 N    1.609    24 O    1.064    17 C    0.989
    20   7 N    3.017 --    19 C    1.609    21 N    1.201
    21   7 N    2.980 --    22 C    1.603    20 N    1.201
    22   6 C    3.870 --    21 N    1.603    24 O    1.084    23 C    1.031
    23   6 C    3.986 --    22 C    1.031    40 H    0.982    42 H    0.968
                            41 H    0.959
    24   8 O    2.331 --    22 C    1.084    19 C    1.064
    25   7 N    3.064 --     5 C    1.791    11 C    1.001
    26   1 H    1.009 --     1 C    0.985
    27   1 H    1.004 --     1 C    0.978
    28   1 H    1.005 --     1 C    0.979
    29   1 H    0.930 --    10 N    0.882
    30   1 H    0.999 --    12 C    0.980
    31   1 H    0.999 --    12 C    0.981
    32   1 H    1.000 --    12 C    0.982
    33   1 H    0.998 --    14 C    0.981
    34   1 H    1.009 --    14 C    0.974
    35   1 H    1.001 --    14 C    0.982
    36   1 H    1.002 --    15 C    0.984
    37   1 H    1.004 --    15 C    0.981
    38   1 H    1.004 --    15 C    0.984
    39   1 H    0.970 --    16 N    0.886
    40   1 H    0.998 --    23 C    0.982
    41   1 H    0.997 --    23 C    0.959
    42   1 H    0.996 --    23 C    0.968
 ---------------------------------------------------------------------------

           -------------------------------------------------
          | TOTAL ENERGY              -82.982612965249 Eh   |
          | GRADIENT NORM               0.000322998442 Eh/α |
          | HOMO-LUMO GAP               1.739062141944 eV   |
           -------------------------------------------------

 * finished run on 2023/06/21 at 17:41:48.614
