   * xtb version 6.5.1 (579679a) compiled by 'ehlert@majestix' on 2022-07-11
          program call               : /lustre/hpc/kemi/ree/PhD/git/ReactivityQM/dep/xtb-6.5.1/bin/xtb --gfn 1 /lustre/hpc/kemi/ree/PhD/git/ReactivityQM/calculations/RaltegravirCLI/reac02prodE03/conf16/RaltegravirCLI_reac02prodE03_conf16_gfn1.xyz --opt --vfukui --chrg -1 --uhf 0 --alpb DMSO

   ID    Z sym.   atoms
    1    6 C      1, 3, 5, 7, 8, 11-15, 17, 18, 20-24
    2    7 N      2, 10, 19, 25
    3    8 O      4, 6, 9
    4    9 F      16
    5    1 H      26-47

      * Solvation model:               ALPB
        Solvent                        DMSO
        Solvent mass                       7.8130E+01 g/mol
          :  Hamiltonian                  GFN1-xTB          :
 * total energy  :   -80.1278122 Eh     change       -0.3617657E-09 Eh
 * total energy  :   -80.1390665 Eh     change       -0.1125428E-01 Eh
 * total energy  :   -80.1440058 Eh     change       -0.4939304E-02 Eh
 * total energy  :   -80.1459382 Eh     change       -0.1932452E-02 Eh
 * total energy  :   -80.1474553 Eh     change       -0.1517104E-02 Eh
 * total energy  :   -80.1489319 Eh     change       -0.1476598E-02 Eh
 * total energy  :   -80.1502829 Eh     change       -0.1351022E-02 Eh
 * total energy  :   -80.1519061 Eh     change       -0.1623167E-02 Eh
 * total energy  :   -80.1536743 Eh     change       -0.1768240E-02 Eh
 * total energy  :   -80.1550607 Eh     change       -0.1386402E-02 Eh
 * total energy  :   -80.1672941 Eh     change       -0.3011772E-04 Eh
 * total energy  :   -80.1673348 Eh     change       -0.4071465E-04 Eh
 * total energy  :   -80.1673496 Eh     change       -0.1480913E-04 Eh
 * total energy  :   -80.1673654 Eh     change       -0.1580384E-04 Eh
 * total energy  :   -80.1673726 Eh     change       -0.7153371E-05 Eh
 * total energy  :   -80.1673809 Eh     change       -0.8327288E-05 Eh
 * total energy  :   -80.1673898 Eh     change       -0.8873718E-05 Eh
 * total energy  :   -80.1673928 Eh     change       -0.2998741E-05 Eh
 * total energy  :   -80.1673959 Eh     change       -0.3123307E-05 Eh
   *** GEOMETRY OPTIMIZATION CONVERGED AFTER 68 ITERATIONS ***

 final structure:
================
47
 xtb: 6.5.1 (579679a)
C           -3.45436368923795        1.23224950297052        2.51557805252588
N           -2.21579099542726        0.98104086752533        1.78483269437369
C           -1.02803830489128        1.09642820708576        2.50358775363997
O           -0.99746287377640        1.57697214893651        3.68533926805712
C            0.07934412664526        0.48189259230660        1.87943915300799
O            1.14455891199746        0.18892566028035        2.71333640073767
C            0.01202621943316        0.05250889056196        0.54735635292970
C            0.78318695689367       -0.94795343020733       -0.12408875761129
O            0.54682948828512       -1.35427581113283       -1.27979494384294
N            1.83070722281034       -1.52300568306212        0.60571631424790
C            2.84789208096815       -2.25478087717252       -0.13772232074662
C            3.82631455085798       -1.30210359001176       -0.79288998750404
C            4.97258582125462       -0.89666296076291       -0.11192181944644
C            5.86132661500001        0.00209345045940       -0.68687579701113
C            5.57541100438815        0.48479245890413       -1.95045976751307
F            6.43406850741268        1.35406954354712       -2.51907006918882
C            4.44723354369007        0.10768153608378       -2.65627516336943
C            3.57052822053480       -0.79046220028784       -2.06435850245874
N           -1.00557173122632        0.72198519585575       -0.24608414337979
C           -0.66649451108230        2.13496446635621       -0.53227070564037
C           -2.23355494189098        0.58972413536551        0.47646866381578
C           -3.35860676494610       -0.19764083263913       -0.16375646823098
C           -2.82252064342754       -0.95526295847974       -1.39265329466971
C           -4.49473556703057        0.73740376368464       -0.62431429967172
N           -3.92987364622886       -1.15882216758475        0.79497921492137
H           -4.10149212435830        0.35413623573476        2.48433586014447
H           -3.97885299073444        2.08291596837667        2.07613954605207
H           -3.20656200233313        1.46558795228352        3.55279921806670
H            0.92642059858750        0.58702189532720        3.57654318336438
H            2.21406924341201       -0.96034005242887        1.35443304713395
H            3.37424274141853       -2.91293331027734        0.56020868221129
H            2.34938868798545       -2.86991443071594       -0.89421326471573
H            5.18377518712425       -1.29323248829037        0.87461119215956
H            6.75804878757288        0.31777399336631       -0.17021178129311
H            4.26505667757733        0.50814114103972       -3.64523884124450
H            2.67637261582809       -1.09811200098183       -2.59662101931730
H           -1.46989214040417        2.56443890839118       -1.13209589345575
H           -0.54425574011218        2.72766722395402        0.38358284789018
H            0.26398592321298        2.16070977927502       -1.10089991961398
H           -1.99618923654465       -1.60814793219371       -1.11071899737281
H           -3.61870159094120       -1.55967367129222       -1.82618027740890
H           -2.46217710051474       -0.25177999209644       -2.14315197562661
H           -4.97464303079397        1.21238526075424        0.22945245047952
H           -4.09290635031580        1.51306209921444       -1.27544847425696
H           -5.24878662740578        0.17379035500443       -1.17392755515221
H           -3.27383033812735       -1.91731239966365        0.93979899701842
H           -4.76806979114917       -1.55794544337710        0.39714514697299

          :  Hamiltonian                  GFN1-xTB          :
         :: total energy             -80.167395895014 Eh    ::
         :: gradient norm              0.000340493997 Eh/a0 ::
         :: HOMO-LUMO gap              0.920057440455 eV    ::
         :: SCC energy               -81.011986316778 Eh    ::
         :: -> Gsolv                  -0.101022448198 Eh    ::
         :: repulsion energy           0.876575601847 Eh    ::

    * Orbital Energies and Occupations

         #    Occupation            Energy/Eh            Energy/eV
      -------------------------------------------------------------
         1        2.0000           -0.8539183             -23.2363
       ...           ...                  ...                  ...
        56        2.0000           -0.4597747             -12.5111
        57        2.0000           -0.4589447             -12.4885
        58        2.0000           -0.4507642             -12.2659
        59        2.0000           -0.4389836             -11.9454
        60        2.0000           -0.4259462             -11.5906
        61        2.0000           -0.4125542             -11.2262
        62        2.0000           -0.4064926             -11.0612
        63        2.0000           -0.3936842             -10.7127
        64        2.0000           -0.3916476             -10.6573
        65        2.0000           -0.3847597             -10.4698
        66        2.0000           -0.3667338              -9.9793
        67        2.0000           -0.3615897              -9.8394
        68        2.0000           -0.2948097              -8.0222 (HOMO)
        69                         -0.2609982              -7.1021 (LUMO)
        70                         -0.2558478              -6.9620
        71                         -0.2519237              -6.8552
        72                         -0.1717354              -4.6732
        73                         -0.1328415              -3.6148
        74                         -0.1205941              -3.2815
        75                         -0.1158937              -3.1536
        76                         -0.1045567              -2.8451
        77                         -0.1027860              -2.7969
        78                         -0.0975488              -2.6544
        79                         -0.0936688              -2.5489
       ...                                ...                  ...
       144                          0.6787218              18.4690
      -------------------------------------------------------------
                  HL-Gap            0.0338115 Eh            0.9201 eV

Wiberg/Mayer (AO) data.
largest (>0.10) Wiberg bond orders for each atom

     #   Z sym  total        # sym  WBO       # sym  WBO       # sym  WBO
 ---------------------------------------------------------------------------
     1   6 C    3.953 --    27 H    0.982    28 H    0.977    26 H    0.974
                             2 N    0.949
     2   7 N    3.504 --    21 C    1.211     3 C    1.094     1 C    0.949
                             4 O    0.112
     3   6 C    3.918 --     4 O    1.323     5 C    1.249     2 N    1.094
                            21 C    0.121
     4   8 O    1.696 --     3 C    1.323     2 N    0.112
     5   6 C    3.887 --     7 C    1.340     3 C    1.249     6 O    0.994
                            21 C    0.129
     6   8 O    1.995 --     5 C    0.994    29 H    0.832
     7   6 C    3.904 --     5 C    1.340     8 C    1.200    19 N    0.954
                            21 C    0.136
     8   6 C    3.909 --     9 O    1.470     7 C    1.200    10 N    1.091
     9   8 O    1.810 --     8 C    1.470    10 N    0.102
    10   7 N    3.197 --     8 C    1.091    11 C    0.962    30 H    0.912
                             9 O    0.102
    11   6 C    3.969 --    12 C    0.994    31 H    0.978    32 H    0.973
                            10 N    0.962
    12   6 C    3.985 --    13 C    1.418    18 C    1.413    11 C    0.994
    13   6 C    3.994 --    14 C    1.441    12 C    1.418    33 H    0.972
                            17 C    0.109
    14   6 C    3.992 --    13 C    1.441    15 C    1.404    34 H    0.970
                            18 C    0.111
    15   6 C    3.855 --    14 C    1.404    17 C    1.401    16 F    0.915
    16   9 F    1.040 --    15 C    0.915
    17   6 C    3.992 --    18 C    1.445    15 C    1.401    35 H    0.971
                            13 C    0.109
    18   6 C    3.991 --    17 C    1.445    12 C    1.413    36 H    0.968
                            14 C    0.111
    19   7 N    3.045 --    21 C    0.987    20 C    0.960     7 C    0.954
    20   6 C    3.986 --    37 H    0.989    39 H    0.988    38 H    0.982
                            19 N    0.960
    21   6 C    3.853 --     2 N    1.211    22 C    0.993    19 N    0.987
                             7 C    0.136     5 C    0.129     3 C    0.121
    22   6 C    3.963 --    21 C    0.993    23 C    0.989    24 C    0.982
                            25 N    0.966
    23   6 C    3.995 --    22 C    0.989    41 H    0.987    42 H    0.984
                            40 H    0.981
    24   6 C    3.990 --    44 H    0.986    45 H    0.985    43 H    0.983
                            22 C    0.982
    25   7 N    2.984 --    22 C    0.966    47 H    0.950    46 H    0.950
    26   1 H    1.035 --     1 C    0.974
    27   1 H    1.011 --     1 C    0.982
    28   1 H    1.023 --     1 C    0.977
    29   1 H    0.886 --     6 O    0.832
    30   1 H    0.972 --    10 N    0.912
    31   1 H    1.010 --    11 C    0.978
    32   1 H    1.020 --    11 C    0.973
    33   1 H    1.001 --    13 C    0.972
    34   1 H    0.999 --    14 C    0.970
    35   1 H    1.000 --    17 C    0.971
    36   1 H    1.018 --    18 C    0.968
    37   1 H    1.024 --    20 C    0.989
    38   1 H    1.010 --    20 C    0.982
    39   1 H    1.020 --    20 C    0.988
    40   1 H    1.025 --    23 C    0.981
    41   1 H    1.007 --    23 C    0.987
    42   1 H    1.019 --    23 C    0.984
    43   1 H    1.012 --    24 C    0.983
    44   1 H    1.012 --    24 C    0.986
    45   1 H    1.003 --    24 C    0.985
    46   1 H    0.970 --    25 N    0.950
    47   1 H    0.965 --    25 N    0.950
 ---------------------------------------------------------------------------

           -------------------------------------------------
          | TOTAL ENERGY              -80.167395895014 Eh   |
          | GRADIENT NORM               0.000340493997 Eh/α |
          | HOMO-LUMO GAP               0.920057440455 eV   |
           -------------------------------------------------

 * finished run on 2023/06/20 at 14:59:38.728
