   * xtb version 6.5.1 (579679a) compiled by 'ehlert@majestix' on 2022-07-11
          program call               : /lustre/hpc/kemi/ree/PhD/git/ReactivityQM/dep/xtb-6.5.1/bin/xtb --gfn 1 /lustre/hpc/kemi/ree/PhD/git/ReactivityQM/calculations/R02deprot/reac01prodN08/conf01/R02deprot_reac01prodN08_conf01_gfn1.xyz --opt --vfukui --chrg 0 --uhf 0 --alpb DMSO

   ID    Z sym.   atoms
    1    6 C      1, 3, 5, 7-10, 12, 14, 17-19, 22, 24
    2    8 O      2, 4, 13, 20, 23, 25
    3    7 N      6, 11, 15, 16, 21
    4    1 H      26-42

      * Solvation model:               ALPB
        Solvent                        DMSO
        Solvent mass                       7.8130E+01 g/mol
          :  Hamiltonian                  GFN1-xTB          :
 * total energy  :   -82.9484366 Eh     change       -0.3168878E-09 Eh
 * total energy  :   -82.9655593 Eh     change       -0.1712264E-01 Eh
 * total energy  :   -82.9716046 Eh     change       -0.6045351E-02 Eh
 * total energy  :   -82.9725977 Eh     change       -0.9930718E-03 Eh
 * total energy  :   -82.9733212 Eh     change       -0.7234836E-03 Eh
 * total energy  :   -82.9736044 Eh     change       -0.2832441E-03 Eh
 * total energy  :   -82.9738785 Eh     change       -0.2741324E-03 Eh
 * total energy  :   -82.9740953 Eh     change       -0.2167896E-03 Eh
 * total energy  :   -82.9743151 Eh     change       -0.2197754E-03 Eh
 * total energy  :   -82.9745686 Eh     change       -0.2534479E-03 Eh
 * total energy  :   -82.9771274 Eh     change       -0.5486260E-04 Eh
 * total energy  :   -82.9771934 Eh     change       -0.6606564E-04 Eh
 * total energy  :   -82.9772273 Eh     change       -0.3382781E-04 Eh
 * total energy  :   -82.9772527 Eh     change       -0.2541584E-04 Eh
 * total energy  :   -82.9772616 Eh     change       -0.8950185E-05 Eh
 * total energy  :   -82.9772716 Eh     change       -0.9933898E-05 Eh
 * total energy  :   -82.9772773 Eh     change       -0.5753786E-05 Eh
 * total energy  :   -82.9772838 Eh     change       -0.6521972E-05 Eh
 * total energy  :   -82.9772888 Eh     change       -0.4999788E-05 Eh
   *** GEOMETRY OPTIMIZATION CONVERGED AFTER 85 ITERATIONS ***

 final structure:
================
42
 xtb: 6.5.1 (579679a)
C            3.03957943273604        2.90603326281016        2.65625913535545
O            3.27096804512662        2.04780304213339        1.54093070837149
C            2.20585196741477        1.38976407937933        1.06702737863818
O            1.09455281335284        1.51858645970305        1.55360161468364
C            2.50543054054920        0.50740968250091       -0.08132332433410
N            1.40531881935745       -0.15235979720386       -0.56009080989482
C            1.55064101576037       -0.97012716088844       -1.57828695857174
C            0.27535415104023       -1.66724185537183       -2.05280590603702
C            0.39550462722818       -3.18187156274227       -1.85630356980045
C           -0.01143614118488       -1.31895813713312       -3.51615925528008
N           -0.77259141353302       -1.12885151206647       -1.18709585262027
C           -2.06255255396002       -1.41378274242091       -1.14728143176531
O           -2.70192522587062       -2.17565117061254       -1.84947031730553
C           -2.71423973777148       -0.61758585555903       -0.03141998402069
N           -3.95139455672684       -0.56914889755974        0.36238089602022
N           -3.95002510741654        0.29264231330945        1.40425400607745
C           -5.19049399366273        0.59559816704207        2.08135278336877
C           -2.73131114287449        0.74377411414651        1.61745252094767
C           -2.21243352272409        1.68926733502148        2.61985190815535
O           -1.94177062956063        0.18442826273535        0.72863378346126
N            2.67049950560903       -1.25727644750843       -2.23015410101299
C            3.81208839223680       -0.64491582252342       -1.82205944211671
O            4.92694829992664       -0.82269275170982       -2.34500344870006
C            3.71322166165724        0.28710087726259       -0.68715543042066
O            4.87758725621440        0.86580638800684       -0.32939619971882
H            2.71792466082884        2.32149810997403        3.52172904594772
H            2.26714167091612        3.64031032595211        2.41569439367104
H            3.98138176700804        3.40758522096388        2.87167053860519
H            0.52914575367121       -3.40994055108966       -0.79963438387578
H            1.26208680476153       -3.54193634361361       -2.41024012129485
H           -0.49999320475406       -3.68545947651747       -2.21809754942674
H            0.84231649936191       -1.62034230983553       -4.12284229000735
H           -0.16040603964402       -0.24501228163201       -3.62103423572778
H           -0.90402275695552       -1.83776531677577       -3.86336194974095
H           -0.37024886660833       -0.46068217425996       -0.51665508425582
H           -5.70880123908948       -0.33940554006447        2.28572628768521
H           -5.79995560996893        1.22340224370814        1.43214896502300
H           -4.96246010918692        1.11875072158311        3.00525817689941
H           -2.42910998684175        1.32944126577257        3.62544274835095
H           -2.68886535356616        2.66208553013918        2.50080385255439
H           -1.13353008780035        1.78500183715093        2.48213683316284
H            5.55402259494061        0.51049046775952       -0.94648793103357

          :  Hamiltonian                  GFN1-xTB          :
         :: total energy             -82.977288839342 Eh    ::
         :: gradient norm              0.000662989792 Eh/a0 ::
         :: HOMO-LUMO gap              0.997727645816 eV    ::
         :: SCC energy               -83.756424802274 Eh    ::
         :: -> Gsolv                  -0.084018131900 Eh    ::
         :: repulsion energy           0.805050125112 Eh    ::

    * Orbital Energies and Occupations

         #    Occupation            Energy/Eh            Energy/eV
      -------------------------------------------------------------
         1        2.0000           -0.9277448             -25.2452
       ...           ...                  ...                  ...
        55        2.0000           -0.4988489             -13.5744
        56        2.0000           -0.4958590             -13.4930
        57        2.0000           -0.4858829             -13.2215
        58        2.0000           -0.4847952             -13.1919
        59        2.0000           -0.4833690             -13.1531
        60        2.0000           -0.4686082             -12.7515
        61        2.0000           -0.4597084             -12.5093
        62        2.0000           -0.4528144             -12.3217
        63        2.0000           -0.4461858             -12.1413
        64        2.0000           -0.4278119             -11.6414
        65        2.0000           -0.4133013             -11.2465
        66        2.0000           -0.3827597             -10.4154
        67        2.0000           -0.3795972             -10.3294 (HOMO)
        68                         -0.3429314              -9.3316 (LUMO)
        69                         -0.3343572              -9.0983
        70                         -0.2847710              -7.7490
        71                         -0.2377179              -6.4686
        72                         -0.2237860              -6.0895
        73                         -0.1982270              -5.3940
        74                         -0.1791670              -4.8754
        75                         -0.1644372              -4.4746
        76                         -0.1305323              -3.5520
        77                         -0.1178267              -3.2062
        78                         -0.1172867              -3.1915
       ...                                ...                  ...
       134                          0.7428253              20.2133
      -------------------------------------------------------------
                  HL-Gap            0.0366658 Eh            0.9977 eV

Wiberg/Mayer (AO) data.
largest (>0.10) Wiberg bond orders for each atom

     #   Z sym  total        # sym  WBO       # sym  WBO       # sym  WBO
 ---------------------------------------------------------------------------
     1   6 C    3.883 --    28 H    0.986    27 H    0.980    26 H    0.980
                             2 O    0.908
     2   8 O    2.192 --     3 C    1.097     1 C    0.908     4 O    0.123
     3   6 C    3.838 --     4 O    1.614     2 O    1.097     5 C    1.029
     4   8 O    1.902 --     3 C    1.614     2 O    0.123
     5   6 C    3.959 --    24 C    1.483     6 N    1.186     3 C    1.029
     6   7 N    3.058 --     7 C    1.460     5 C    1.186
     7   6 C    3.959 --     6 N    1.460    21 N    1.376     8 C    0.966
     8   6 C    3.918 --    10 C    0.984     9 C    0.983     7 C    0.966
                            11 N    0.912
     9   6 C    3.991 --    29 H    0.986    31 H    0.984    30 H    0.984
                             8 C    0.983
    10   6 C    3.991 --    33 H    0.986    34 H    0.984     8 C    0.984
                            32 H    0.983
    11   7 N    3.420 --    12 C    1.346     8 C    0.912    35 H    0.831
                            13 O    0.210
    12   6 C    3.931 --    13 O    1.572    11 N    1.346    14 C    0.939
    13   8 O    1.900 --    12 C    1.572    11 N    0.210
    14   6 C    3.827 --    15 N    1.619    20 O    1.053    12 C    0.939
    15   7 N    2.972 --    14 C    1.619    16 N    1.138
    16   7 N    3.626 --    18 C    1.425    15 N    1.138    17 C    0.915
    17   6 C    3.893 --    38 H    0.981    36 H    0.971    37 H    0.966
                            16 N    0.915
    18   6 C    3.840 --    16 N    1.425    20 O    1.151    19 C    1.037
    19   6 C    3.959 --    18 C    1.037    41 H    0.966    39 H    0.949
                            40 H    0.948
    20   8 O    2.384 --    18 C    1.151    14 C    1.053
    21   7 N    2.981 --     7 C    1.376    22 C    1.242    23 O    0.123
    22   6 C    3.928 --    23 O    1.484    21 N    1.242    24 C    1.064
    23   8 O    1.821 --    22 C    1.484    21 N    0.123
    24   6 C    3.907 --     5 C    1.483    25 O    1.080    22 C    1.064
    25   8 O    2.055 --    24 C    1.080    42 H    0.811
    26   1 H    1.009 --     1 C    0.980
    27   1 H    1.010 --     1 C    0.980
    28   1 H    1.012 --     1 C    0.986
    29   1 H    1.004 --     9 C    0.986
    30   1 H    1.010 --     9 C    0.984
    31   1 H    1.006 --     9 C    0.984
    32   1 H    1.011 --    10 C    0.983
    33   1 H    1.004 --    10 C    0.986
    34   1 H    1.006 --    10 C    0.984
    35   1 H    0.963 --    11 N    0.831
    36   1 H    0.992 --    17 C    0.971
    37   1 H    0.991 --    17 C    0.966
    38   1 H    0.991 --    17 C    0.981
    39   1 H    0.989 --    19 C    0.949
    40   1 H    0.988 --    19 C    0.948
    41   1 H    1.005 --    19 C    0.966
    42   1 H    0.872 --    25 O    0.811
 ---------------------------------------------------------------------------

           -------------------------------------------------
          | TOTAL ENERGY              -82.977288839342 Eh   |
          | GRADIENT NORM               0.000662989792 Eh/α |
          | HOMO-LUMO GAP               0.997727645816 eV   |
           -------------------------------------------------

 * finished run on 2023/06/20 at 18:15:37.237
