   * xtb version 6.5.1 (579679a) compiled by 'ehlert@majestix' on 2022-07-11
          program call               : /lustre/hpc/kemi/ree/PhD/git/ReactivityQM/dep/xtb-6.5.1/bin/xtb --gfn 1 /lustre/hpc/kemi/ree/PhD/git/ReactivityQM/calculations/R02deprot/reac01prodE09/conf12/R02deprot_reac01prodE09_conf12_gfn1.xyz --opt --vfukui --chrg -2 --uhf 0 --alpb DMSO

   ID    Z sym.   atoms
    1    6 C      1, 3, 5, 7-10, 12, 14, 16, 17, 20, 22, 24
    2    8 O      2, 4, 13, 15, 23, 25
    3    7 N      6, 11, 18, 19, 21
    4    1 H      26-42

      * Solvation model:               ALPB
        Solvent                        DMSO
        Solvent mass                       7.8130E+01 g/mol
          :  Hamiltonian                  GFN1-xTB          :
 * total energy  :   -83.5865296 Eh     change       -0.1048818E-08 Eh
 * total energy  :   -83.5988943 Eh     change       -0.1236469E-01 Eh
 * total energy  :   -83.6029696 Eh     change       -0.4075297E-02 Eh
 * total energy  :   -83.6039076 Eh     change       -0.9380506E-03 Eh
 * total energy  :   -83.6063273 Eh     change       -0.2419675E-02 Eh
 * total energy  :   -83.6080325 Eh     change       -0.1705149E-02 Eh
 * total energy  :   -83.6105889 Eh     change       -0.2556479E-02 Eh
 * total energy  :   -83.6131711 Eh     change       -0.2582194E-02 Eh
 * total energy  :   -83.6145026 Eh     change       -0.1331498E-02 Eh
 * total energy  :   -83.6154309 Eh     change       -0.9282375E-03 Eh
 * total energy  :   -83.6195799 Eh     change       -0.9273886E-04 Eh
 * total energy  :   -83.6196562 Eh     change       -0.7632935E-04 Eh
 * total energy  :   -83.6196921 Eh     change       -0.3594446E-04 Eh
 * total energy  :   -83.6197155 Eh     change       -0.2338336E-04 Eh
 * total energy  :   -83.6197341 Eh     change       -0.1859185E-04 Eh
 * total energy  :   -83.6197482 Eh     change       -0.1411224E-04 Eh
 * total energy  :   -83.6197559 Eh     change       -0.7625622E-05 Eh
 * total energy  :   -83.6197626 Eh     change       -0.6743925E-05 Eh
 * total energy  :   -83.6197658 Eh     change       -0.3217413E-05 Eh
   *** GEOMETRY OPTIMIZATION CONVERGED AFTER 41 ITERATIONS ***

 final structure:
================
42
 xtb: 6.5.1 (579679a)
C           -6.35753293391536        1.37875839672155       -0.50928181120899
O           -5.03111980999699        0.92571645379245       -0.26098652933548
C           -4.87558678947401       -0.40156021834677       -0.12812177354022
O           -5.82802195031895       -1.16673347579665       -0.22560553251179
C           -3.49437685044759       -0.82158084992550        0.13548411048642
N           -2.54463243611154        0.15643849950099        0.21474691600457
C           -1.30598525872650       -0.23230756063652        0.45026939821840
C           -0.24106172449752        0.85700037670844        0.59409854931125
C            0.03838393754968        0.99517029684414        2.10768265078929
C           -0.76483021462541        2.18065932567444        0.02259052114562
N            0.93766880500216        0.41697346375521       -0.14845166259693
C            2.18610990235072        1.10367913701032        0.06012095304192
O            2.19884518009077        2.31786076833548        0.43673841867841
C            3.29046580859575        0.43498229712256       -0.42586064036865
O            3.30480283252798       -0.98450171890711       -0.63617045813883
C            4.56517718524820       -1.35013314393605       -0.39471533353638
C            4.92534850673962       -2.79233233824479       -0.51484567100907
N            5.39784379462548       -0.43126704242221       -0.07918263858009
N            4.66665928842921        0.81468426046520       -0.07570556837419
C            5.27814006546631        1.67903948193950       -1.09819418246592
N           -0.88717554164666       -1.48346971305938        0.62503455833408
C           -1.76461971597169       -2.51987092829679        0.56370079625811
O           -1.40991148705763       -3.70289285719827        0.72289515429396
C           -3.16437701754506       -2.14974573471491        0.30070319026647
O           -4.06871919215370       -3.15904669762941        0.23631422901646
H           -7.01580662280675        1.10047045136504        0.31789362734965
H           -6.74467199238312        0.94103586078058       -1.43312337629511
H           -6.31225920705309        2.46241927865740       -0.60071235518138
H            0.75988873961165        1.78917383637487        2.29827854388131
H           -0.88926893781987        1.23192134081732        2.62994558405396
H            0.42861057141626        0.05427206996281        2.49839947798691
H           -0.96488191271973        2.06819533828376       -1.04387158568553
H           -1.69235798761118        2.45986568540538        0.52233509767079
H           -0.03470895300843        2.97693976537317        0.16288035222364
H            1.05388239285624       -0.59357067199355       -0.06122347374752
H            4.68083608997887       -3.15525098680414       -1.51250297765148
H            4.36724494952712       -3.38590404094830        0.20928551743673
H            5.99050941378471       -2.91801850921273       -0.33757577105892
H            4.74144670260608        2.62726012724316       -1.09185387047833
H            6.32195183573033        1.84705760007420       -0.83533044424816
H            5.22054937022129        1.23059131586937       -2.09564554519939
H           -4.96245883646778       -2.80197794000265        0.06546255476186

          :  Hamiltonian                  GFN1-xTB          :
         :: total energy             -83.619765819898 Eh    ::
         :: gradient norm              0.000759724900 Eh/a0 ::
         :: HOMO-LUMO gap              0.340315227018 eV    ::
         :: SCC energy               -84.351558800045 Eh    ::
         :: -> Gsolv                  -0.271125647370 Eh    ::
         :: repulsion energy           0.756945464684 Eh    ::

    * Orbital Energies and Occupations

         #    Occupation            Energy/Eh            Energy/eV
      -------------------------------------------------------------
         1        2.0000           -0.8122512             -22.1025
       ...           ...                  ...                  ...
        56        2.0000           -0.4423883             -12.0380
        57        2.0000           -0.4362770             -11.8717
        58        2.0000           -0.4156335             -11.3100
        59        2.0000           -0.4138942             -11.2626
        60        2.0000           -0.4061505             -11.0519
        61        2.0000           -0.4045501             -11.0084
        62        2.0000           -0.3847692             -10.4701
        63        2.0000           -0.3767269             -10.2513
        64        2.0000           -0.3673884              -9.9971
        65        2.0000           -0.3566854              -9.7059
        66        2.0000           -0.3556174              -9.6768
        67        2.0000           -0.3514015              -9.5621
        68        1.9972           -0.2836036              -7.7172 (HOMO)
        69        0.0028           -0.2710973              -7.3769 (LUMO)
        70                         -0.2103244              -5.7232
        71                         -0.2014600              -5.4820
        72                         -0.1796459              -4.8884
        73                         -0.1323201              -3.6006
        74                         -0.1250106              -3.4017
        75                         -0.1193310              -3.2472
        76                         -0.0927179              -2.5230
        77                         -0.0885743              -2.4102
        78                         -0.0855286              -2.3274
        79                         -0.0804464              -2.1891
       ...                                ...                  ...
       134                          0.7332374              19.9524
      -------------------------------------------------------------
                  HL-Gap            0.0125064 Eh            0.3403 eV

Wiberg/Mayer (AO) data.
largest (>0.10) Wiberg bond orders for each atom

     #   Z sym  total        # sym  WBO       # sym  WBO       # sym  WBO
 ---------------------------------------------------------------------------
     1   6 C    3.888 --    28 H    0.987    26 H    0.980    27 H    0.980
                             2 O    0.913
     2   8 O    2.187 --     3 C    1.089     1 C    0.913     4 O    0.116
     3   6 C    3.830 --     4 O    1.581     2 O    1.089     5 C    1.055
     4   8 O    1.910 --     3 C    1.581     2 O    0.116
     5   6 C    3.963 --    24 C    1.451     6 N    1.209     3 C    1.055
     6   7 N    2.988 --     7 C    1.448     5 C    1.209
     7   6 C    3.949 --     6 N    1.448    21 N    1.371     8 C    0.970
     8   6 C    3.965 --    10 C    0.998     9 C    0.973     7 C    0.970
                            11 N    0.966
     9   6 C    3.995 --    30 H    0.988    31 H    0.987    29 H    0.982
                             8 C    0.973
    10   6 C    3.997 --     8 C    0.998    33 H    0.987    32 H    0.987
                            34 H    0.981
    11   7 N    3.097 --    12 C    0.990     8 C    0.966    35 H    0.926
    12   6 C    3.925 --    14 C    1.466    13 O    1.350    11 N    0.990
    13   8 O    1.705 --    12 C    1.350    14 C    0.160
    14   6 C    3.600 --    12 C    1.466    19 N    0.944    15 O    0.863
                            13 O    0.160
    15   8 O    2.188 --    16 C    1.098    14 C    0.863    18 N    0.136
    16   6 C    3.909 --    18 N    1.703    15 O    1.098    17 C    1.013
    17   6 C    3.995 --    16 C    1.013    38 H    0.987    36 H    0.974
                            37 H    0.973
    18   7 N    2.943 --    16 C    1.703    19 N    0.983    15 O    0.136
    19   7 N    3.053 --    18 N    0.983    20 C    0.973    14 C    0.944
    20   6 C    3.984 --    40 H    0.989    39 H    0.987    41 H    0.983
                            19 N    0.973
    21   7 N    2.991 --     7 C    1.371    22 C    1.240    23 O    0.126
    22   6 C    3.932 --    23 O    1.484    21 N    1.240    24 C    1.074
    23   8 O    1.773 --    22 C    1.484    21 N    0.126
    24   6 C    3.900 --     5 C    1.451    22 C    1.074    25 O    1.065
    25   8 O    2.043 --    24 C    1.065    42 H    0.810
    26   1 H    1.011 --     1 C    0.980
    27   1 H    1.011 --     1 C    0.980
    28   1 H    1.014 --     1 C    0.987
    29   1 H    1.025 --     9 C    0.982
    30   1 H    1.009 --     9 C    0.988
    31   1 H    1.014 --     9 C    0.987
    32   1 H    1.018 --    10 C    0.987
    33   1 H    1.023 --    10 C    0.987
    34   1 H    1.033 --    10 C    0.981
    35   1 H    0.996 --    11 N    0.926
    36   1 H    1.004 --    17 C    0.974
    37   1 H    1.004 --    17 C    0.973
    38   1 H    1.007 --    17 C    0.987
    39   1 H    1.033 --    20 C    0.987
    40   1 H    1.027 --    20 C    0.989
    41   1 H    1.024 --    20 C    0.983
    42   1 H    0.880 --    25 O    0.810
 ---------------------------------------------------------------------------

           -------------------------------------------------
          | TOTAL ENERGY              -83.619765819898 Eh   |
          | GRADIENT NORM               0.000759724900 Eh/α |
          | HOMO-LUMO GAP               0.340315227018 eV   |
           -------------------------------------------------

 * finished run on 2023/06/20 at 17:53:10.501
