   * xtb version 6.5.1 (579679a) compiled by 'ehlert@majestix' on 2022-07-11
          program call               : /lustre/hpc/kemi/ree/PhD/git/ReactivityQM/dep/xtb-6.5.1/bin/xtb --gfn 1 /lustre/hpc/kemi/ree/PhD/git/ReactivityQM/calculations/R01/reac02prodE05/conf10/R01_reac02prodE05_conf10_gfn1.xyz --opt --vfukui --chrg -1 --uhf 0 --alpb DMSO

   ID    Z sym.   atoms
    1    6 C      1, 3, 5, 6, 8, 11-15
    2    8 O      2, 4, 7, 9
    3    7 N      10, 16, 17
    4    1 H      18-33

      * Solvation model:               ALPB
        Solvent                        DMSO
        Solvent mass                       7.8130E+01 g/mol
          :  Hamiltonian                  GFN1-xTB          :
 * total energy  :   -58.5437813 Eh     change       -0.3851142E-10 Eh
 * total energy  :   -58.5519902 Eh     change       -0.8208946E-02 Eh
 * total energy  :   -58.5545162 Eh     change       -0.2525944E-02 Eh
 * total energy  :   -58.5548839 Eh     change       -0.3677103E-03 Eh
 * total energy  :   -58.5551673 Eh     change       -0.2834026E-03 Eh
 * total energy  :   -58.5552875 Eh     change       -0.1202096E-03 Eh
 * total energy  :   -58.5554168 Eh     change       -0.1293174E-03 Eh
 * total energy  :   -58.5555401 Eh     change       -0.1233562E-03 Eh
 * total energy  :   -58.5556529 Eh     change       -0.1127349E-03 Eh
 * total energy  :   -58.5557495 Eh     change       -0.9657696E-04 Eh
 * total energy  :   -58.5562948 Eh     change       -0.1132070E-04 Eh
 * total energy  :   -58.5563056 Eh     change       -0.1084633E-04 Eh
 * total energy  :   -58.5563146 Eh     change       -0.8942196E-05 Eh
 * total energy  :   -58.5563219 Eh     change       -0.7330939E-05 Eh
 * total energy  :   -58.5563340 Eh     change       -0.1208493E-04 Eh
 * total energy  :   -58.5563390 Eh     change       -0.5010552E-05 Eh
 * total energy  :   -58.5563404 Eh     change       -0.1438070E-05 Eh
 * total energy  :   -58.5563487 Eh     change       -0.8218639E-05 Eh
 * total energy  :   -58.5563536 Eh     change       -0.4914610E-05 Eh
   *** GEOMETRY OPTIMIZATION CONVERGED AFTER 43 ITERATIONS ***

 final structure:
================
33
 xtb: 6.5.1 (579679a)
C            4.70805946179904        1.58046381816463       -0.25962123162794
O            3.64444583932634        0.68309130827586        0.05165055277249
C            2.45895678036307        0.94025484737269       -0.53523001742400
O            2.32293446359893        1.87308685579015       -1.30101903293548
C            1.37174727548222       -0.00398619525034       -0.13701507420529
C            1.62424777779033       -1.35081057598486        0.16417880505133
O            2.91403048741748       -1.90915549099524        0.13014925111736
C            0.53186970990455       -2.25464247575728        0.29806949290980
O            0.59518109475064       -3.48372569543540        0.47503539786646
N           -0.72946557120131       -1.66852508510343        0.11096846157667
C           -0.91880739391695       -0.24653834050443        0.38229848353141
C           -1.01929903055249       -0.01720884082582        1.90948818839765
C           -2.20027105362588        0.24515952707387       -0.37021831420519
C           -2.01257282024080       -0.02037648950779       -1.87280753573448
C           -3.48279524186348       -0.43543039056769        0.11453327766755
N           -2.34790139374546        1.69126182707136       -0.18589340607324
N            0.17689839953310        0.55830757359485       -0.12033454839525
H            4.45941576028028        2.59185059153907        0.07297375974943
H            4.89477236330308        1.59481330529142       -1.33716633994783
H            5.58974341592662        1.22329811129481        0.26792261020438
H            3.51628855382724       -1.40152887156964        0.68715823264422
H           -1.47447316469537       -2.24570342578123        0.47662791374457
H           -1.24028676418132        1.02859352444009        2.11307182004642
H           -1.79541315381388       -0.64159295875167        2.34751117383222
H           -0.06605205647414       -0.26893772929337        2.37386595253649
H           -1.91858297675482       -1.09061113432704       -2.06087426433480
H           -2.86694269160606        0.36604939394027       -2.42866020708706
H           -1.10827488103220        0.47968008515495       -2.22441896238224
H           -4.33663189781777       -0.04159078852985       -0.43796708005393
H           -3.43852792478162       -1.51201722537458       -0.04674787895605
H           -3.65046457307082       -0.24818556468938        1.17412979513788
H           -1.41619213172787        2.10481730847939       -0.16467005927656
H           -2.78563766220271        1.87984020076441        0.70561078385238

          :  Hamiltonian                  GFN1-xTB          :
         :: total energy             -58.556353565021 Eh    ::
         :: gradient norm              0.000674628444 Eh/a0 ::
         :: HOMO-LUMO gap              1.574012022638 eV    ::
         :: SCC energy               -59.091102003082 Eh    ::
         :: -> Gsolv                  -0.103772017769 Eh    ::
         :: repulsion energy           0.554827348472 Eh    ::

    * Orbital Energies and Occupations

         #    Occupation            Energy/Eh            Energy/eV
      -------------------------------------------------------------
         1        2.0000           -0.8126411             -22.1131
       ...           ...                  ...                  ...
        36        2.0000           -0.4774438             -12.9919
        37        2.0000           -0.4768533             -12.9758
        38        2.0000           -0.4650931             -12.6558
        39        2.0000           -0.4640625             -12.6278
        40        2.0000           -0.4569891             -12.4353
        41        2.0000           -0.4482976             -12.1988
        42        2.0000           -0.4386273             -11.9357
        43        2.0000           -0.4262405             -11.5986
        44        2.0000           -0.3981422             -10.8340
        45        2.0000           -0.3927776             -10.6880
        46        2.0000           -0.3753741             -10.2144
        47        2.0000           -0.3722906             -10.1305
        48        2.0000           -0.3190766              -8.6825 (HOMO)
        49                         -0.2612327              -7.1085 (LUMO)
        50                         -0.1927702              -5.2455
        51                         -0.1258645              -3.4249
        52                         -0.1176581              -3.2016
        53                         -0.1119281              -3.0457
        54                         -0.1035446              -2.8176
        55                         -0.0918492              -2.4993
        56                         -0.0787220              -2.1421
        57                         -0.0669375              -1.8215
        58                         -0.0634086              -1.7254
        59                         -0.0624324              -1.6989
       ...                                ...                  ...
       100                          0.7340781              19.9753
      -------------------------------------------------------------
                  HL-Gap            0.0578439 Eh            1.5740 eV

Wiberg/Mayer (AO) data.
largest (>0.10) Wiberg bond orders for each atom

     #   Z sym  total        # sym  WBO       # sym  WBO       # sym  WBO
 ---------------------------------------------------------------------------
     1   6 C    3.886 --    20 H    0.987    18 H    0.981    19 H    0.980
                             2 O    0.909
     2   8 O    2.188 --     3 C    1.076     1 C    0.909     4 O    0.123
     3   6 C    3.811 --     4 O    1.654     2 O    1.076     5 C    0.990
     4   8 O    1.901 --     3 C    1.654     2 O    0.123
     5   6 C    3.970 --    17 N    1.456     6 C    1.318     3 C    0.990
     6   6 C    3.846 --     5 C    1.318     8 C    1.207     7 O    0.957
                            17 N    0.178
     7   8 O    1.916 --     6 C    0.957    21 H    0.861
     8   6 C    3.915 --     9 O    1.487     6 C    1.207    10 N    1.073
     9   8 O    1.785 --     8 C    1.487    10 N    0.100
    10   7 N    3.186 --     8 C    1.073    11 C    0.940    22 H    0.923
                             9 O    0.100
    11   6 C    3.941 --    17 N    0.995    12 C    0.973    13 C    0.944
                            10 N    0.940
    12   6 C    3.996 --    25 H    0.985    24 H    0.984    23 H    0.984
                            11 C    0.973
    13   6 C    3.963 --    15 C    1.003    14 C    0.997    16 N    0.984
                            11 C    0.944
    14   6 C    3.997 --    13 C    0.997    27 H    0.988    26 H    0.986
                            28 H    0.982
    15   6 C    3.996 --    13 C    1.003    29 H    0.985    30 H    0.984
                            31 H    0.983
    16   7 N    2.956 --    13 C    0.984    33 H    0.952    32 H    0.939
    17   7 N    2.951 --     5 C    1.456    11 C    0.995     6 C    0.178
    18   1 H    1.011 --     1 C    0.981
    19   1 H    1.012 --     1 C    0.980
    20   1 H    1.013 --     1 C    0.987
    21   1 H    0.901 --     7 O    0.861
    22   1 H    0.972 --    10 N    0.923
    23   1 H    1.011 --    12 C    0.984
    24   1 H    1.007 --    12 C    0.984
    25   1 H    1.008 --    12 C    0.985
    26   1 H    1.017 --    14 C    0.986
    27   1 H    1.013 --    14 C    0.988
    28   1 H    1.021 --    14 C    0.982
    29   1 H    1.006 --    15 C    0.985
    30   1 H    1.005 --    15 C    0.984
    31   1 H    1.006 --    15 C    0.983
    32   1 H    0.990 --    16 N    0.939
    33   1 H    0.971 --    16 N    0.952
 ---------------------------------------------------------------------------

           -------------------------------------------------
          | TOTAL ENERGY              -58.556353565021 Eh   |
          | GRADIENT NORM               0.000674628444 Eh/α |
          | HOMO-LUMO GAP               1.574012022638 eV   |
           -------------------------------------------------

 * finished run on 2023/06/20 at 15:00:34.378
