   * xtb version 6.5.1 (579679a) compiled by 'ehlert@majestix' on 2022-07-11
          program call               : /lustre/hpc/kemi/ree/PhD/git/ReactivityQM/dep/xtb-6.5.1/bin/xtb --gfn 1 /lustre/hpc/kemi/ree/PhD/git/ReactivityQM/calculations/R02methylcation/reac01/conf14/R02methylcation_reac01_conf14_gfn1.xyz --opt --vfukui --chrg -1 --uhf 0 --alpb DMSO

   ID    Z sym.   atoms
    1    6 C      1, 3, 5, 7-10, 12, 14, 17, 18, 21, 23
    2    8 O      2, 4, 13, 19, 22, 24
    3    7 N      6, 11, 15, 16, 20
    4    1 H      25-38

      * Solvation model:               ALPB
        Solvent                        DMSO
        Solvent mass                       7.8130E+01 g/mol
          :  Hamiltonian                  GFN1-xTB          :
 * total energy  :   -79.6000328 Eh     change       -0.3439027E-10 Eh
 * total energy  :   -79.6133027 Eh     change       -0.1326989E-01 Eh
 * total energy  :   -79.6187608 Eh     change       -0.5458051E-02 Eh
 * total energy  :   -79.6197497 Eh     change       -0.9889580E-03 Eh
 * total energy  :   -79.6202332 Eh     change       -0.4834716E-03 Eh
 * total energy  :   -79.6203927 Eh     change       -0.1595254E-03 Eh
 * total energy  :   -79.6204969 Eh     change       -0.1042234E-03 Eh
 * total energy  :   -79.6205836 Eh     change       -0.8667195E-04 Eh
 * total energy  :   -79.6206722 Eh     change       -0.8856187E-04 Eh
 * total energy  :   -79.6207560 Eh     change       -0.8379024E-04 Eh
 * total energy  :   -79.6214332 Eh     change       -0.1950062E-04 Eh
 * total energy  :   -79.6214389 Eh     change       -0.5650896E-05 Eh
 * total energy  :   -79.6214525 Eh     change       -0.1366716E-04 Eh
 * total energy  :   -79.6214528 Eh     change       -0.2500951E-06 Eh
 * total energy  :   -79.6214606 Eh     change       -0.7797400E-05 Eh
 * total energy  :   -79.6214665 Eh     change       -0.5875546E-05 Eh
 * total energy  :   -79.6214713 Eh     change       -0.4861286E-05 Eh
 * total energy  :   -79.6214732 Eh     change       -0.1911966E-05 Eh
 * total energy  :   -79.6214774 Eh     change       -0.4141527E-05 Eh
   *** GEOMETRY OPTIMIZATION CONVERGED AFTER 43 ITERATIONS ***

 final structure:
================
38
 xtb: 6.5.1 (579679a)
C            6.06186708152579        1.83577257995745        1.49524997011152
O            5.08173035788144        1.52142217849529        0.51709221686076
C            4.02477335274281        0.78873180283265        0.95285118286928
O            3.95160349294019        0.43883461422770        2.12585990242295
C            3.03622616861477        0.48027219207482       -0.06838170024621
N            1.97979695673523       -0.26719883011345        0.41936817672350
C            1.01992590727335       -0.63022159195073       -0.34819361952469
C           -0.11411632657911       -1.47189531406028        0.21659951701952
C           -0.27378631675997       -2.78518808337518       -0.55861345508593
C            0.17748674101258       -1.77328775423237        1.68843061022857
N           -1.37643007081213       -0.70683803616958        0.18996692439660
C           -2.13752689357089       -0.47064940416391       -0.89128501149354
O           -1.86367389308205       -0.75551105020063       -2.04689230945216
C           -3.39821723721074        0.22250928999683       -0.51025305475830
N           -3.74066732984328        0.58988547893337        0.68793212199047
N           -4.96466706418793        1.18100061466150        0.58316125334984
C           -5.29037115529468        1.13517418150228       -0.67260594138829
C           -6.52943213006320        1.64101088373532       -1.30278736151819
O           -4.34172914516946        0.54412552375131       -1.41381921537812
N            0.99405768077872       -0.29632429102544       -1.68459979695664
C            1.96374340875558        0.44955204084095       -2.30003297458075
O            1.86233792655651        0.72229541887597       -3.49477000209705
C            3.11796626433561        0.88900539824823       -1.42510829313148
O            4.03119475488359        1.56123834690962       -1.93942084259262
H            5.61755631548909        2.39416654404563        2.32539828716667
H            6.81940086296021        2.44604164634292        1.00487822569314
H            6.52114596888563        0.92445293827817        1.89121554735462
H            0.63168003064512       -3.37937078471775       -0.44286396743371
H           -0.44149446247594       -2.60640178780032       -1.61839030770205
H           -1.11751623073677       -3.34671169910496       -0.16077555259974
H           -0.62941200520729       -2.36456325886605        2.11652498113982
H            1.10929903649005       -2.33121645357822        1.76807797150471
H            0.28304310167266       -0.84594486619169        2.25059512977054
H           -1.76065966817407       -0.44348505776582        1.08498081340514
H           -7.18488563874152        2.05389600872500       -0.54048645674504
H           -6.28960502772130        2.41276081850948       -2.03407042824560
H           -7.03914063736798        0.83042427645781       -1.82287795768950
H            0.20849582281404       -0.58776251407533       -2.25186758338553

          :  Hamiltonian                  GFN1-xTB          :
         :: total energy             -79.621477382422 Eh    ::
         :: gradient norm              0.000520803474 Eh/a0 ::
         :: HOMO-LUMO gap              1.579959297155 eV    ::
         :: SCC energy               -80.347001499254 Eh    ::
         :: -> Gsolv                  -0.124839151946 Eh    ::
         :: repulsion energy           0.748394308494 Eh    ::

    * Orbital Energies and Occupations

         #    Occupation            Energy/Eh            Energy/eV
      -------------------------------------------------------------
         1        2.0000           -0.8607504             -23.4222
       ...           ...                  ...                  ...
        52        2.0000           -0.4863233             -13.2335
        53        2.0000           -0.4794544             -13.0466
        54        2.0000           -0.4641942             -12.6314
        55        2.0000           -0.4609058             -12.5419
        56        2.0000           -0.4571574             -12.4399
        57        2.0000           -0.4529590             -12.3256
        58        2.0000           -0.4484337             -12.2025
        59        2.0000           -0.4431525             -12.0588
        60        2.0000           -0.4357899             -11.8584
        61        2.0000           -0.4348754             -11.8336
        62        2.0000           -0.4131090             -11.2413
        63        2.0000           -0.3763177             -10.2401
        64        2.0000           -0.3642000              -9.9104 (HOMO)
        65                         -0.3061376              -8.3304 (LUMO)
        66                         -0.2676494              -7.2831
        67                         -0.2543793              -6.9220
        68                         -0.2378391              -6.4719
        69                         -0.1948709              -5.3027
        70                         -0.1943583              -5.2888
        71                         -0.1410817              -3.8390
        72                         -0.1214032              -3.3035
        73                         -0.1196864              -3.2568
        74                         -0.1170861              -3.1861
        75                         -0.1067760              -2.9055
       ...                                ...                  ...
       124                          0.7565819              20.5876
      -------------------------------------------------------------
                  HL-Gap            0.0580624 Eh            1.5800 eV

Wiberg/Mayer (AO) data.
largest (>0.10) Wiberg bond orders for each atom

     #   Z sym  total        # sym  WBO       # sym  WBO       # sym  WBO
 ---------------------------------------------------------------------------
     1   6 C    3.899 --    26 H    0.987    27 H    0.980    25 H    0.980
                             2 O    0.926
     2   8 O    2.159 --     3 C    1.046     1 C    0.926     4 O    0.109
     3   6 C    3.850 --     4 O    1.574     5 C    1.116     2 O    1.046
     4   8 O    1.849 --     3 C    1.574     2 O    0.109
     5   6 C    3.914 --    23 C    1.271     6 N    1.153     3 C    1.116
                            24 O    0.128
     6   7 N    3.031 --     7 C    1.631     5 C    1.153
     7   6 C    3.934 --     6 N    1.631    20 N    1.103     8 C    0.968
     8   6 C    3.929 --    10 C    1.002     9 C    0.989     7 C    0.968
                            11 N    0.905
     9   6 C    3.990 --     8 C    0.989    28 H    0.985    30 H    0.985
                            29 H    0.979
    10   6 C    3.993 --     8 C    1.002    31 H    0.986    32 H    0.983
                            33 H    0.983
    11   7 N    3.357 --    12 C    1.278     8 C    0.905    34 H    0.897
                            13 O    0.181
    12   6 C    3.919 --    13 O    1.571    11 N    1.278    14 C    0.986
    13   8 O    1.913 --    12 C    1.571    11 N    0.181
    14   6 C    3.873 --    15 N    1.612    19 O    1.064    12 C    0.986
    15   7 N    3.015 --    14 C    1.612    16 N    1.197
    16   7 N    2.980 --    17 C    1.608    15 N    1.197
    17   6 C    3.872 --    16 N    1.608    19 O    1.082    18 C    1.031
    18   6 C    3.987 --    17 C    1.031    35 H    0.983    37 H    0.964
                            36 H    0.963
    19   8 O    2.330 --    17 C    1.082    14 C    1.064
    20   7 N    3.435 --    21 C    1.169     7 C    1.103    38 H    0.878
                            22 O    0.136
    21   6 C    3.882 --    22 O    1.574    20 N    1.169    23 C    0.968
    22   8 O    1.854 --    21 C    1.574    20 N    0.136
    23   6 C    3.943 --    24 O    1.519     5 C    1.271    21 C    0.968
    24   8 O    1.824 --    23 C    1.519     5 C    0.128
    25   1 H    1.014 --     1 C    0.980
    26   1 H    1.016 --     1 C    0.987
    27   1 H    1.014 --     1 C    0.980
    28   1 H    1.003 --     9 C    0.985
    29   1 H    1.011 --     9 C    0.979
    30   1 H    1.001 --     9 C    0.985
    31   1 H    1.001 --    10 C    0.986
    32   1 H    1.011 --    10 C    0.983
    33   1 H    1.011 --    10 C    0.983
    34   1 H    0.954 --    11 N    0.897
    35   1 H    0.999 --    18 C    0.983
    36   1 H    0.997 --    18 C    0.963
    37   1 H    0.997 --    18 C    0.964
    38   1 H    0.953 --    20 N    0.878
 ---------------------------------------------------------------------------

           -------------------------------------------------
          | TOTAL ENERGY              -79.621477382422 Eh   |
          | GRADIENT NORM               0.000520803474 Eh/α |
          | HOMO-LUMO GAP               1.579959297155 eV   |
           -------------------------------------------------

 * finished run on 2023/06/21 at 17:03:57.698
