   * xtb version 6.5.1 (579679a) compiled by 'ehlert@majestix' on 2022-07-11
          program call               : /lustre/hpc/kemi/ree/PhD/git/ReactivityQM/dep/xtb-6.5.1/bin/xtb --gfn 1 /lustre/hpc/kemi/ree/PhD/git/ReactivityQM/calculations/R02methylcation/reac01prodN12/conf03/R02methylcation_reac01prodN12_conf03_gfn1.xyz --opt --vfukui --chrg 0 --uhf 0 --alpb DMSO

   ID    Z sym.   atoms
    1    6 C      1, 3, 5, 7-10, 12, 14, 15, 18, 19, 22, 24
    2    8 O      2, 4, 13, 20, 23, 25
    3    7 N      6, 11, 16, 17, 21
    4    1 H      26-42

      * Solvation model:               ALPB
        Solvent                        DMSO
        Solvent mass                       7.8130E+01 g/mol
          :  Hamiltonian                  GFN1-xTB          :
 * total energy  :   -82.9339971 Eh     change       -0.4102247E-09 Eh
 * total energy  :   -82.9446866 Eh     change       -0.1068956E-01 Eh
 * total energy  :   -82.9487972 Eh     change       -0.4110550E-02 Eh
 * total energy  :   -82.9494596 Eh     change       -0.6624430E-03 Eh
 * total energy  :   -82.9499008 Eh     change       -0.4411625E-03 Eh
 * total energy  :   -82.9500818 Eh     change       -0.1810763E-03 Eh
 * total energy  :   -82.9502047 Eh     change       -0.1228534E-03 Eh
 * total energy  :   -82.9502914 Eh     change       -0.8665179E-04 Eh
 * total energy  :   -82.9503685 Eh     change       -0.7713113E-04 Eh
 * total energy  :   -82.9504374 Eh     change       -0.6892220E-04 Eh
 * total energy  :   -82.9536776 Eh     change       -0.1726658E-04 Eh
 * total energy  :   -82.9536896 Eh     change       -0.1199267E-04 Eh
 * total energy  :   -82.9537056 Eh     change       -0.1603697E-04 Eh
 * total energy  :   -82.9537131 Eh     change       -0.7424894E-05 Eh
 * total energy  :   -82.9537210 Eh     change       -0.7942332E-05 Eh
 * total energy  :   -82.9537280 Eh     change       -0.6959414E-05 Eh
 * total energy  :   -82.9537334 Eh     change       -0.5411750E-05 Eh
 * total energy  :   -82.9537384 Eh     change       -0.5051083E-05 Eh
 * total energy  :   -82.9537430 Eh     change       -0.4616888E-05 Eh
   *** GEOMETRY OPTIMIZATION CONVERGED AFTER 114 ITERATIONS ***

 final structure:
================
42
 xtb: 6.5.1 (579679a)
C            4.62685676696288        3.07924617277304       -1.34770512197621
O            4.26895164181371        1.75038502416309       -0.97263069790802
C            3.06390079627161        1.59979773189477       -0.41147723490527
O            2.30415675481653        2.53638652449758       -0.24419582005740
C            2.74612717677568        0.21171289949043       -0.01194677846137
N            1.55468716644137        0.10225443060132        0.62196547489767
C            1.12078511050974       -1.04878276209250        1.04330892381018
C           -0.19845927778374       -1.06487882779537        1.78110263308056
C           -0.10000492453127       -0.10791046461597        2.97357557458106
C           -0.65579797737636       -2.45478592847608        2.21788917987741
N           -1.22690190565974       -0.50502002011726        0.87535565803426
C           -1.28402015588831       -0.90814484762505       -0.38653175331431
O           -0.46573428149166       -1.59588486556965       -0.95137280007955
C           -2.54234242385283       -0.38202540208458       -1.18656760654726
C           -3.33058282539770       -1.59968792855922       -1.66387088847856
N           -2.05283165233692        0.43847955668862       -2.23799733200339
N           -2.48613736299879        1.64740677680165       -2.05756016740907
C           -3.25002380619998        1.66299979023272       -0.96852543067162
C           -3.93195218097219        2.83593479584080       -0.40421389198893
O           -3.33266597659477        0.47914606725144       -0.39610917829457
N            1.85707230967981       -2.18590866074484        0.90729731606532
C            3.08056356339043       -2.23963451414108        0.26862411627616
O            3.67088704810605       -3.30108383750255        0.17096421951329
C            3.59560955268345       -0.91807138363103       -0.26322307628313
O            4.67523235706503       -0.88896017988428       -0.85675002153397
H            3.91577142255578        3.47293265816796       -2.07864717331488
H            4.63275105717961        3.73064147187931       -0.47001839778966
H            5.62321686873982        3.02704853028300       -1.78284305185827
H            0.63419481738482       -0.48365723804791        3.68393164749999
H            0.20830271473057        0.87799543028696        2.62669476363407
H           -1.06495424904464       -0.03144363402947        3.46956839422233
H            0.04050244245235       -2.87089878931308        2.94347380191825
H           -0.73108647160193       -3.11990446639093        1.35895418865944
H           -1.63618540521272       -2.37853307775286        2.68346765999727
H           -2.01920514094549       -0.06048537755626        1.30577548750442
H           -2.66916646468958       -2.23871268124444       -2.24516558601129
H           -3.70706812953563       -2.14318993989025       -0.80130170808808
H           -4.16490716516265       -1.26683038561710       -2.27642586533394
H           -4.17608467056736        3.54275990643656       -1.19479365606854
H           -4.82881115159156        2.52664887853509        0.12811599800327
H           -3.26978609619778        3.33371627329246        0.30793335608616
H            1.50514212807279       -3.06105770641938        1.25834984473754

          :  Hamiltonian                  GFN1-xTB          :
         :: total energy             -82.953743048480 Eh    ::
         :: gradient norm              0.000438345211 Eh/a0 ::
         :: HOMO-LUMO gap              0.144672550808 eV    ::
         :: SCC energy               -83.724229170816 Eh    ::
         :: -> Gsolv                  -0.087457720462 Eh    ::
         :: repulsion energy           0.797479839344 Eh    ::

    * Orbital Energies and Occupations

         #    Occupation            Energy/Eh            Energy/eV
      -------------------------------------------------------------
         1        2.0000           -0.8881861             -24.1688
       ...           ...                  ...                  ...
        55        2.0000           -0.5143416             -13.9959
        56        2.0000           -0.5107198             -13.8974
        57        2.0000           -0.5082704             -13.8307
        58        2.0000           -0.4950525             -13.4711
        59        2.0000           -0.4887583             -13.2998
        60        2.0000           -0.4880993             -13.2819
        61        2.0000           -0.4774125             -12.9911
        62        2.0000           -0.4769603             -12.9788
        63        2.0000           -0.4704502             -12.8016
        64        2.0000           -0.4685550             -12.7500
        65        2.0000           -0.4528828             -12.3236
        66        2.0000           -0.4154218             -11.3042
        67        1.8851           -0.3997518             -10.8778 (HOMO)
        68        0.1149           -0.3944352             -10.7331 (LUMO)
        69                         -0.3024192              -8.2292
        70                         -0.2894071              -7.8752
        71                         -0.2775128              -7.5515
        72                         -0.2761084              -7.5133
        73                         -0.2288162              -6.2264
        74                         -0.1581693              -4.3040
        75                         -0.1482272              -4.0335
        76                         -0.1439566              -3.9173
        77                         -0.1400980              -3.8123
        78                         -0.1358729              -3.6973
       ...                                ...                  ...
       134                          0.7465145              20.3137
      -------------------------------------------------------------
                  HL-Gap            0.0053166 Eh            0.1447 eV

Wiberg/Mayer (AO) data.
largest (>0.10) Wiberg bond orders for each atom

     #   Z sym  total        # sym  WBO       # sym  WBO       # sym  WBO
 ---------------------------------------------------------------------------
     1   6 C    3.881 --    28 H    0.986    26 H    0.980    27 H    0.979
                             2 O    0.907
     2   8 O    2.187 --     3 C    1.097     1 C    0.907     4 O    0.127
     3   6 C    3.840 --     4 O    1.619     2 O    1.097     5 C    1.039
     4   8 O    1.877 --     3 C    1.619     2 O    0.127
     5   6 C    3.765 --     6 N    1.279    24 C    1.183     3 C    1.039
     6   7 N    3.004 --     7 C    1.490     5 C    1.279
     7   6 C    3.874 --     6 N    1.490    21 N    1.170     8 C    0.987
     8   6 C    3.925 --    10 C    0.997     7 C    0.987     9 C    0.980
                            11 N    0.893
     9   6 C    3.978 --    29 H    0.983    31 H    0.983    30 H    0.981
                             8 C    0.980
    10   6 C    3.990 --     8 C    0.997    34 H    0.981    32 H    0.981
                            33 H    0.981
    11   7 N    3.364 --    12 C    1.328     8 C    0.893    35 H    0.887
                            13 O    0.172
    12   6 C    3.888 --    13 O    1.628    11 N    1.328    14 C    0.807
    13   8 O    1.986 --    12 C    1.628    11 N    0.172
    14   6 C    3.851 --    16 N    1.065    15 C    0.937    20 O    0.907
                            12 C    0.807
    15   6 C    3.942 --    37 H    0.982    38 H    0.979    36 H    0.979
                            14 C    0.937
    16   7 N    2.752 --    17 N    1.457    14 C    1.065
    17   7 N    2.971 --    16 N    1.457    18 C    1.361
    18   6 C    3.694 --    17 N    1.361    20 O    1.157    19 C    1.052
    19   6 C    3.973 --    18 C    1.052    39 H    0.968    40 H    0.967
                            41 H    0.933
    20   8 O    2.243 --    18 C    1.157    14 C    0.907
    21   7 N    3.433 --     7 C    1.170    22 C    1.123    42 H    0.884
                            23 O    0.120
    22   6 C    3.850 --    23 O    1.632    21 N    1.123    24 C    0.954
    23   8 O    1.868 --    22 C    1.632    21 N    0.120
    24   6 C    3.881 --    25 O    1.593     5 C    1.183    22 C    0.954
    25   8 O    1.793 --    24 C    1.593
    26   1 H    1.009 --     1 C    0.980
    27   1 H    1.008 --     1 C    0.979
    28   1 H    1.012 --     1 C    0.986
    29   1 H    0.998 --     9 C    0.983
    30   1 H    1.009 --     9 C    0.981
    31   1 H    0.996 --     9 C    0.983
    32   1 H    0.996 --    10 C    0.981
    33   1 H    0.998 --    10 C    0.981
    34   1 H    0.998 --    10 C    0.981
    35   1 H    0.931 --    11 N    0.887
    36   1 H    1.000 --    15 C    0.979
    37   1 H    0.995 --    15 C    0.982
    38   1 H    0.994 --    15 C    0.979
    39   1 H    0.991 --    19 C    0.968
    40   1 H    0.988 --    19 C    0.967
    41   1 H    0.977 --    19 C    0.933
    42   1 H    0.935 --    21 N    0.884
 ---------------------------------------------------------------------------

           -------------------------------------------------
          | TOTAL ENERGY              -82.953743048480 Eh   |
          | GRADIENT NORM               0.000438345211 Eh/α |
          | HOMO-LUMO GAP               0.144672550808 eV   |
           -------------------------------------------------

 * finished run on 2023/06/21 at 17:44:44.515
