                         Program Version 5.0.1 -  RELEASE  -
|  1> # ORCA input file
|  2> ! SP r2SCAN-3c CPCM
|  3>
|  4> %maxcore 1875.0
|  5> %pal nprocs 4 end
|  6> %cpcm smd true SMDsolvent "DMSO" end
|  7>
|  8> *xyz 0 1
|  9> C       6.233328    0.043805   -0.555416
| 10> O       4.819426   -0.100542   -0.379331
| 11> C       4.422767   -0.989443    0.517429
| 12> O       5.193607   -1.666788    1.173725
| 13> C       2.948359   -1.090205    0.655586
| 14> N       2.178260   -0.302114   -0.118515
| 15> C       0.872095   -0.385978    0.004050
| 16> C       0.044940    0.486719   -0.916911
| 17> C       0.589546    1.920554   -0.896278
| 18> C       0.125776   -0.114327   -2.329993
| 19> N      -1.338159    0.467000   -0.441358
| 20> C      -2.337176    1.095809   -1.062339
| 21> O      -2.237568    1.783263   -2.065465
| 22> C      -3.727753    0.873414   -0.415675
| 23> C      -4.614295    0.082671   -1.377814
| 24> N      -4.330187    2.176848   -0.147234
| 25> N      -4.583215    2.286131    1.061125
| 26> C      -4.196282    1.118570    1.740195
| 27> C      -4.360796    0.909765    3.043659
| 28> O      -3.644896    0.251914    0.848519
| 29> N       0.236552   -1.218511    0.843649
| 30> C       0.961363   -2.008640    1.608453
| 31> O       0.350264   -2.853769    2.438296
| 32> C       2.381170   -1.982326    1.558931
| 33> O       3.080088   -2.796658    2.356846
| 34> H       6.665367   -0.902172   -0.888721
| 35> H       6.375420    0.814117   -1.310261
| 36> H       6.697208    0.341677    0.387364
| 37> H       0.478906    2.344940    0.100630
| 38> H       1.646518    1.903493   -1.158031
| 39> H       0.052915    2.540804   -1.611994
| 40> H      -0.407046    0.513562   -3.041548
| 41> H       1.170803   -0.185146   -2.627189
| 42> H      -0.313333   -1.110567   -2.332553
| 43> H      -1.536586   -0.129657    0.351399
| 44> H      -5.622858    0.021550   -0.974967
| 45> H      -4.211211   -0.920555   -1.493000
| 46> H      -4.631127    0.585596   -2.342718
| 47> H      -0.609189   -2.788281    2.349451
| 48> H      -4.058021   -0.011689    3.511677
| 49> H      -4.810096    1.669768    3.660148
| 50> H       4.045117   -2.674603    2.207719
| 51> **                         ****END OF INPUT****

CARTESIAN COORDINATES (ANGSTROEM)
---------------------------------
  C      6.233328    0.043805   -0.555416
  O      4.819426   -0.100542   -0.379331
  C      4.422767   -0.989443    0.517429
  O      5.193607   -1.666788    1.173725
  C      2.948359   -1.090205    0.655586
  N      2.178260   -0.302114   -0.118515
  C      0.872095   -0.385978    0.004050
  C      0.044940    0.486719   -0.916911
  C      0.589546    1.920554   -0.896278
  C      0.125776   -0.114327   -2.329993
  N     -1.338159    0.467000   -0.441358
  C     -2.337176    1.095809   -1.062339
  O     -2.237568    1.783263   -2.065465
  C     -3.727753    0.873414   -0.415675
  C     -4.614295    0.082671   -1.377814
  N     -4.330187    2.176848   -0.147234
  N     -4.583215    2.286131    1.061125
  C     -4.196282    1.118570    1.740195
  C     -4.360796    0.909765    3.043659
  O     -3.644896    0.251914    0.848519
  N      0.236552   -1.218511    0.843649
  C      0.961363   -2.008640    1.608453
  O      0.350264   -2.853769    2.438296
  C      2.381170   -1.982326    1.558931
  O      3.080088   -2.796658    2.356846
  H      6.665367   -0.902172   -0.888721
  H      6.375420    0.814117   -1.310261
  H      6.697208    0.341677    0.387364
  H      0.478906    2.344940    0.100630
  H      1.646518    1.903493   -1.158031
  H      0.052915    2.540804   -1.611994
  H     -0.407046    0.513562   -3.041548
  H      1.170803   -0.185146   -2.627189
  H     -0.313333   -1.110567   -2.332553
  H     -1.536586   -0.129657    0.351399
  H     -5.622858    0.021550   -0.974967
  H     -4.211211   -0.920555   -1.493000
  H     -4.631127    0.585596   -2.342718
  H     -0.609189   -2.788281    2.349451
  H     -4.058021   -0.011689    3.511677
  H     -4.810096    1.669768    3.660148
  H      4.045117   -2.674603    2.207719

 Total Charge           Charge          ....    0
 Multiplicity           Mult            ....    1
 Number of Electrons    NEL             ....  184
 Basis Dimension        Dim             ....  615

ORBITAL ENERGIES
----------------

  NO   OCC          E(Eh)            E(eV)
   0   2.0000     -19.014990      -517.4242
   1   2.0000     -19.013592      -517.3861
   2   2.0000     -19.013444      -517.3821
   3   2.0000     -18.999767      -517.0100
   4   2.0000     -18.963015      -516.0099
   5   2.0000     -18.924912      -514.9730
   6   2.0000     -14.231239      -387.2517
   7   2.0000     -14.227478      -387.1494
   8   2.0000     -14.191371      -386.1668
   9   2.0000     -14.183275      -385.9465
  10   2.0000     -14.171543      -385.6273
  11   2.0000     -10.180403      -277.0228
  12   2.0000     -10.160273      -276.4751
  13   2.0000     -10.140812      -275.9455
  14   2.0000     -10.139734      -275.9162
  15   2.0000     -10.131665      -275.6966
  16   2.0000     -10.131276      -275.6860
  17   2.0000     -10.115846      -275.2662
  18   2.0000     -10.102911      -274.9142
  19   2.0000     -10.095010      -274.6992
  20   2.0000     -10.082174      -274.3499
  21   2.0000     -10.038727      -273.1677
  22   2.0000     -10.034253      -273.0459
  23   2.0000     -10.018512      -272.6176
  24   2.0000     -10.015785      -272.5434
  25   2.0000      -1.113529       -30.3007
  26   2.0000      -1.094917       -29.7942
  27   2.0000      -1.076051       -29.2808
  28   2.0000      -1.047159       -28.4946
  29   2.0000      -1.014118       -27.5956
  30   2.0000      -1.003611       -27.3097
  31   2.0000      -0.999807       -27.2061
  32   2.0000      -0.970151       -26.3991
  33   2.0000      -0.905769       -24.6472
  34   2.0000      -0.872076       -23.7304
  35   2.0000      -0.816486       -22.2177
  36   2.0000      -0.788255       -21.4495
  37   2.0000      -0.743180       -20.2230
  38   2.0000      -0.726278       -19.7630
  39   2.0000      -0.719215       -19.5708
  40   2.0000      -0.667745       -18.1703
  41   2.0000      -0.661461       -17.9993
  42   2.0000      -0.656932       -17.8760
  43   2.0000      -0.649683       -17.6788
  44   2.0000      -0.627616       -17.0783
  45   2.0000      -0.598281       -16.2801
  46   2.0000      -0.587698       -15.9921
  47   2.0000      -0.571638       -15.5551
  48   2.0000      -0.554070       -15.0770
  49   2.0000      -0.545374       -14.8404
  50   2.0000      -0.534659       -14.5488
  51   2.0000      -0.522856       -14.2276
  52   2.0000      -0.517092       -14.0708
  53   2.0000      -0.477624       -12.9968
  54   2.0000      -0.469257       -12.7691
  55   2.0000      -0.468975       -12.7615
  56   2.0000      -0.463299       -12.6070
  57   2.0000      -0.452156       -12.3038
  58   2.0000      -0.447754       -12.1840
  59   2.0000      -0.442674       -12.0458
  60   2.0000      -0.421477       -11.4690
  61   2.0000      -0.416886       -11.3440
  62   2.0000      -0.412360       -11.2209
  63   2.0000      -0.398877       -10.8540
  64   2.0000      -0.396311       -10.7842
  65   2.0000      -0.390271       -10.6198
  66   2.0000      -0.388998       -10.5852
  67   2.0000      -0.383691       -10.4408
  68   2.0000      -0.380583       -10.3562
  69   2.0000      -0.377593       -10.2748
  70   2.0000      -0.373854       -10.1731
  71   2.0000      -0.369410       -10.0522
  72   2.0000      -0.365654        -9.9500
  73   2.0000      -0.363809        -9.8997
  74   2.0000      -0.353912        -9.6304
  75   2.0000      -0.346383        -9.4256
  76   2.0000      -0.343439        -9.3454
  77   2.0000      -0.340005        -9.2520
  78   2.0000      -0.333649        -9.0791
  79   2.0000      -0.332456        -9.0466
  80   2.0000      -0.330713        -8.9992
  81   2.0000      -0.316884        -8.6228
  82   2.0000      -0.298827        -8.1315
  83   2.0000      -0.293744        -7.9932
  84   2.0000      -0.285953        -7.7812
  85   2.0000      -0.279756        -7.6125
  86   2.0000      -0.256775        -6.9872
  87   2.0000      -0.245355        -6.6764
  88   2.0000      -0.240611        -6.5473
  89   2.0000      -0.236290        -6.4298
  90   2.0000      -0.224281        -6.1030
  91   2.0000      -0.214250        -5.8300
  92   0.0000      -0.111805        -3.0424
  93   0.0000      -0.102784        -2.7969
  94   0.0000      -0.049209        -1.3391
  95   0.0000      -0.013500        -0.3673
  96   0.0000       0.004322         0.1176

MULLIKEN ATOMIC CHARGES
-----------------------
   0 C :   -0.309876
   1 O :   -0.180422
   2 C :    0.208634
   3 O :   -0.472558
   4 C :    0.146581
   5 N :   -0.209182
   6 C :    0.541664
   7 C :   -0.173288
   8 C :   -0.634346
   9 C :   -0.644905
  10 N :    0.000821
  11 C :    0.226540
  12 O :   -0.472800
  13 C :    0.160705
  14 C :   -0.546205
  15 N :   -0.101836
  16 N :   -0.084614
  17 C :    0.197826
  18 C :   -0.506807
  19 O :   -0.124979
  20 N :   -0.249281
  21 C :    0.142329
  22 O :   -0.347715
  23 C :    0.085593
  24 O :   -0.367116
  25 H :    0.181405
  26 H :    0.181978
  27 H :    0.181207
  28 H :    0.183087
  29 H :    0.187087
  30 H :    0.198030
  31 H :    0.199087
  32 H :    0.189467
  33 H :    0.187268
  34 H :    0.307954
  35 H :    0.185555
  36 H :    0.197623
  37 H :    0.205322
  38 H :    0.364960
  39 H :    0.193941
  40 H :    0.199233
  41 H :    0.372034
Sum of atomic charges:   -0.0000000

LOEWDIN ATOMIC CHARGES
----------------------
   0 C :   -0.029603
   1 O :   -0.552502
   2 C :    0.410585
   3 O :   -0.453246
   4 C :    0.217100
   5 N :   -0.548258
   6 C :    0.335541
   7 C :    0.107372
   8 C :   -0.346558
   9 C :   -0.343372
  10 N :   -0.574765
  11 C :    0.374521
  12 O :   -0.473248
  13 C :    0.310281
  14 C :   -0.305807
  15 N :   -0.277764
  16 N :   -0.272439
  17 C :    0.327495
  18 C :   -0.234784
  19 O :   -0.501866
  20 N :   -0.506283
  21 C :    0.390418
  22 O :   -0.359899
  23 C :    0.278341
  24 O :   -0.442336
  25 H :    0.185407
  26 H :    0.189381
  27 H :    0.185597
  28 H :    0.172201
  29 H :    0.176611
  30 H :    0.177114
  31 H :    0.179499
  32 H :    0.172937
  33 H :    0.172621
  34 H :    0.307752
  35 H :    0.179502
  36 H :    0.182299
  37 H :    0.187335
  38 H :    0.308665
  39 H :    0.187458
  40 H :    0.192332
  41 H :    0.314363

  Mayer bond orders larger than 0.100000
B(  0-C ,  1-O ) :   0.8237 B(  0-C , 25-H ) :   0.9534 B(  0-C , 26-H ) :   0.9599
B(  0-C , 27-H ) :   0.9537 B(  1-O ,  2-C ) :   1.2033 B(  2-C ,  3-O ) :   1.7255
B(  2-C ,  4-C ) :   1.0555 B(  4-C ,  5-N ) :   1.1853 B(  4-C , 20-N ) :   0.1164
B(  4-C , 23-C ) :   1.2420 B(  5-N ,  6-C ) :   1.3563 B(  6-C ,  7-C ) :   0.7463
B(  6-C , 10-N ) :  -0.1306 B(  6-C , 20-N ) :   1.1911 B(  7-C ,  8-C ) :   0.9206
B(  7-C ,  9-C ) :   0.9083 B(  7-C , 10-N ) :   0.9208 B(  7-C , 20-N ) :   0.1154
B(  8-C , 28-H ) :   0.9693 B(  8-C , 29-H ) :   0.9594 B(  8-C , 30-H ) :   0.9663
B(  9-C , 31-H ) :   0.9591 B(  9-C , 32-H ) :   0.9635 B(  9-C , 33-H ) :   0.9669
B( 10-N , 11-C ) :   1.2156 B( 10-N , 34-H ) :   0.8427 B( 11-C , 12-O ) :   1.8084
B( 11-C , 13-C ) :   0.9351 B( 13-C , 14-C ) :   0.9820 B( 13-C , 15-N ) :   0.8706
B( 13-C , 19-O ) :   0.7593 B( 14-C , 35-H ) :   0.9416 B( 14-C , 36-H ) :   0.9558
B( 14-C , 37-H ) :   0.9541 B( 15-N , 16-N ) :   1.9101 B( 15-N , 18-C ) :   0.1331
B( 16-N , 17-C ) :   1.0441 B( 17-C , 18-C ) :   1.6168 B( 17-C , 19-O ) :   1.0493
B( 18-C , 39-H ) :   0.9590 B( 18-C , 40-H ) :   0.9510 B( 20-N , 21-C ) :   1.4635
B( 21-C , 22-O ) :   1.1452 B( 21-C , 23-C ) :   1.1583 B( 22-O , 38-H ) :   0.8407
B( 23-C , 24-O ) :   1.1492 B( 24-O , 41-H ) :   0.7744

Dispersion correction           -0.018793689
FINAL SINGLE POINT ENERGY     -1268.627221213906

DIPOLE MOMENT
-------------
                                X             Y             Z
Electronic contribution:      0.56887      -5.43260      10.15386
Nuclear contribution   :      0.74956       3.51073      -9.40940
                        -----------------------------------------
Total Dipole Moment    :      1.31843      -1.92187       0.74446
                        -----------------------------------------
Magnitude (a.u.)       :      2.44665
Magnitude (Debye)      :      6.21888

Rotational constants in cm-1:     0.014451     0.003714     0.003223
Rotational constants in MHz :   433.239784   111.354104    96.636319

                             ****ORCA TERMINATED NORMALLY****
TOTAL RUN TIME: 0 days 0 hours 1 minutes 58 seconds 311 msec
