   * xtb version 6.5.1 (579679a) compiled by 'ehlert@majestix' on 2022-07-11
          program call               : /lustre/hpc/kemi/ree/PhD/git/ReactivityQM/dep/xtb-6.5.1/bin/xtb --gfn 1 /lustre/hpc/kemi/ree/PhD/git/ReactivityQM/calculations/R02deprot/reac01prodN13/conf02/R02deprot_reac01prodN13_conf02_gfn1.xyz --opt --vfukui --chrg 0 --uhf 0 --alpb DMSO

   ID    Z sym.   atoms
    1    6 C      1, 3, 5, 7-10, 12, 14, 15, 18, 19, 22, 24
    2    8 O      2, 4, 13, 20, 23, 25
    3    7 N      6, 11, 16, 17, 21
    4    1 H      26-42

      * Solvation model:               ALPB
        Solvent                        DMSO
        Solvent mass                       7.8130E+01 g/mol
          :  Hamiltonian                  GFN1-xTB          :
 * total energy  :   -82.9233104 Eh     change       -0.7404424E-09 Eh
 * total energy  :   -82.9345043 Eh     change       -0.1119393E-01 Eh
 * total energy  :   -82.9384907 Eh     change       -0.3986437E-02 Eh
 * total energy  :   -82.9391911 Eh     change       -0.7003822E-03 Eh
 * total energy  :   -82.9397481 Eh     change       -0.5569665E-03 Eh
 * total energy  :   -82.9399912 Eh     change       -0.2430960E-03 Eh
 * total energy  :   -82.9401840 Eh     change       -0.1928479E-03 Eh
 * total energy  :   -82.9403462 Eh     change       -0.1621581E-03 Eh
 * total energy  :   -82.9404878 Eh     change       -0.1416709E-03 Eh
 * total energy  :   -82.9406310 Eh     change       -0.1431918E-03 Eh
 * total energy  :   -82.9895907 Eh     change       -0.7565976E-05 Eh
 * total energy  :   -82.9896012 Eh     change       -0.1056733E-04 Eh
 * total energy  :   -82.9896185 Eh     change       -0.1722285E-04 Eh
 * total energy  :   -82.9896467 Eh     change       -0.2826384E-04 Eh
 * total energy  :   -82.9896608 Eh     change       -0.1409446E-04 Eh
 * total energy  :   -82.9896715 Eh     change       -0.1068793E-04 Eh
 * total energy  :   -82.9896882 Eh     change       -0.1669682E-04 Eh
 * total energy  :   -82.9896937 Eh     change       -0.5530730E-05 Eh
 * total energy  :   -82.9896981 Eh     change       -0.4394251E-05 Eh
   *** GEOMETRY OPTIMIZATION CONVERGED AFTER 141 ITERATIONS ***

 final structure:
================
42
 xtb: 6.5.1 (579679a)
C            6.23332771304212        0.04380464379774       -0.55541620748962
O            4.81942629541509       -0.10054197416831       -0.37933099404710
C            4.42276691830609       -0.98944294545590        0.51742922219258
O            5.19360722891391       -1.66678784960266        1.17372483592587
C            2.94835939484842       -1.09020525224536        0.65558590578910
N            2.17825958602642       -0.30211370748813       -0.11851492678065
C            0.87209539649435       -0.38597828846755        0.00405033951744
C            0.04494027308266        0.48671866866726       -0.91691125170590
C            0.58954596269756        1.92055438557419       -0.89627782761769
C            0.12577590409054       -0.11432701074796       -2.32999278228104
N           -1.33815936130034        0.46699994739008       -0.44135842999820
C           -2.33717592929401        1.09580943249806       -1.06233932538707
O           -2.23756841371479        1.78326296950712       -2.06546474232001
C           -3.72775287581946        0.87341375379659       -0.41567490595606
C           -4.61429534084165        0.08267089257951       -1.37781440715951
N           -4.33018708013708        2.17684791681399       -0.14723397989814
N           -4.58321534037966        2.28613121413014        1.06112523621087
C           -4.19628172865688        1.11857026565201        1.74019473249443
C           -4.36079594758964        0.90976490316927        3.04365865471894
O           -3.64489614525065        0.25191387223434        0.84851875879134
N            0.23655173977074       -1.21851124057441        0.84364869454822
C            0.96136319511815       -2.00864033930216        1.60845349261616
O            0.35026440661245       -2.85376852551582        2.43829602318198
C            2.38117039164232       -1.98232582858293        1.55893067729435
O            3.08008772340181       -2.79665832564947        2.35684574909099
H            6.66536700156887       -0.90217191111571       -0.88872060420331
H            6.37542036457418        0.81411696907182       -1.31026074802452
H            6.69720810864834        0.34167746373247        0.38736398413634
H            0.47890593705194        2.34493978767330        0.10062972556120
H            1.64651828779943        1.90349252465417       -1.15803091054280
H            0.05291507636645        2.54080434199760       -1.61199428022867
H           -0.40704601294756        0.51356225038786       -3.04154796909185
H            1.17080340098573       -0.18514610231067       -2.62718935614051
H           -0.31333263960994       -1.11056666781939       -2.33255292412790
H           -1.53658561116744       -0.12965663458965        0.35139922032446
H           -5.62285766404686        0.02154967917908       -0.97496713133785
H           -4.21121079424221       -0.92055477989941       -1.49299954595453
H           -4.63112705099936        0.58559602816023       -2.34271767685322
H           -0.60918946462555       -2.78828081329557        2.34945083868719
H           -4.05802074689497       -0.01168911735908        3.51167694826536
H           -4.81009574632554        1.66976823819620        3.66014780885430
H            4.04511658737544       -2.67460283468025        2.20771907895089

          :  Hamiltonian                  GFN1-xTB          :
         :: total energy             -82.989698126458 Eh    ::
         :: gradient norm              0.000579115677 Eh/a0 ::
         :: HOMO-LUMO gap              2.485501542824 eV    ::
         :: SCC energy               -83.768949840352 Eh    ::
         :: -> Gsolv                  -0.050305255621 Eh    ::
         :: repulsion energy           0.805430083010 Eh    ::

    * Orbital Energies and Occupations

         #    Occupation            Energy/Eh            Energy/eV
      -------------------------------------------------------------
         1        2.0000           -0.8456132             -23.0103
       ...           ...                  ...                  ...
        55        2.0000           -0.5010775             -13.6350
        56        2.0000           -0.5005214             -13.6199
        57        2.0000           -0.4977939             -13.5457
        58        2.0000           -0.4969826             -13.5236
        59        2.0000           -0.4856415             -13.2150
        60        2.0000           -0.4789951             -13.0341
        61        2.0000           -0.4716772             -12.8350
        62        2.0000           -0.4608547             -12.5405
        63        2.0000           -0.4497211             -12.2375
        64        2.0000           -0.4404421             -11.9850
        65        2.0000           -0.4344161             -11.8211
        66        2.0000           -0.4310963             -11.7307
        67        2.0000           -0.4223657             -11.4932 (HOMO)
        68                         -0.3310252              -9.0077 (LUMO)
        69                         -0.3261336              -8.8745
        70                         -0.2826421              -7.6911
        71                         -0.2532476              -6.8912
        72                         -0.2414477              -6.5701
        73                         -0.2110961              -5.7442
        74                         -0.1557283              -4.2376
        75                         -0.1384400              -3.7671
        76                         -0.1267439              -3.4489
        77                         -0.1193342              -3.2473
        78                         -0.1179415              -3.2094
       ...                                ...                  ...
       134                          0.6969330              18.9645
      -------------------------------------------------------------
                  HL-Gap            0.0913405 Eh            2.4855 eV

Wiberg/Mayer (AO) data.
largest (>0.10) Wiberg bond orders for each atom

     #   Z sym  total        # sym  WBO       # sym  WBO       # sym  WBO
 ---------------------------------------------------------------------------
     1   6 C    3.865 --    27 H    0.986    28 H    0.979    26 H    0.979
                             2 O    0.891
     2   8 O    2.222 --     3 C    1.140     1 C    0.891     4 O    0.132
     3   6 C    3.846 --     4 O    1.614     2 O    1.140     5 C    1.009
     4   8 O    1.945 --     3 C    1.614     2 O    0.132
     5   6 C    3.969 --    24 C    1.384     6 N    1.295     3 C    1.009
     6   7 N    3.031 --     7 C    1.463     5 C    1.295
     7   6 C    3.944 --     6 N    1.463    21 N    1.310     8 C    0.985
     8   6 C    3.935 --     9 C    0.986     7 C    0.985    10 C    0.975
                            11 N    0.926
     9   6 C    3.991 --    29 H    0.986     8 C    0.986    30 H    0.984
                            31 H    0.982
    10   6 C    3.990 --    34 H    0.986    33 H    0.985    32 H    0.980
                             8 C    0.975
    11   7 N    3.368 --    12 C    1.313     8 C    0.926    35 H    0.878
                            13 O    0.176
    12   6 C    3.907 --    13 O    1.592    11 N    1.313    14 C    0.894
    13   8 O    1.905 --    12 C    1.592    11 N    0.176
    14   6 C    3.882 --    16 N    0.977    15 C    0.959    20 O    0.923
                            12 C    0.894
    15   6 C    3.986 --    36 H    0.983    38 H    0.983    37 H    0.983
                            14 C    0.959
    16   7 N    3.012 --    17 N    1.821    14 C    0.977    19 C    0.119
    17   7 N    3.021 --    16 N    1.821    18 C    1.067
    18   6 C    3.884 --    19 C    1.756    17 N    1.067    20 O    1.007
    19   6 C    3.976 --    18 C    1.756    41 H    0.978    40 H    0.976
                            16 N    0.119
    20   8 O    2.145 --    18 C    1.007    14 C    0.923
    21   7 N    3.042 --    22 C    1.411     7 C    1.310
    22   6 C    3.907 --    21 N    1.411    24 C    1.208    23 O    1.103
    23   8 O    2.083 --    22 C    1.103    39 H    0.815
    24   6 C    3.927 --     5 C    1.384    22 C    1.208    25 O    1.109
    25   8 O    2.073 --    24 C    1.109    42 H    0.781
    26   1 H    1.006 --     1 C    0.979
    27   1 H    1.010 --     1 C    0.986
    28   1 H    1.006 --     1 C    0.979
    29   1 H    1.004 --     9 C    0.986
    30   1 H    1.012 --     9 C    0.984
    31   1 H    1.010 --     9 C    0.982
    32   1 H    1.009 --    10 C    0.980
    33   1 H    1.006 --    10 C    0.985
    34   1 H    1.003 --    10 C    0.986
    35   1 H    0.960 --    11 N    0.878
    36   1 H    1.001 --    15 C    0.983
    37   1 H    1.001 --    15 C    0.983
    38   1 H    1.004 --    15 C    0.983
    39   1 H    0.844 --    23 O    0.815
    40   1 H    0.997 --    19 C    0.976
    41   1 H    1.000 --    19 C    0.978
    42   1 H    0.853 --    25 O    0.781
 ---------------------------------------------------------------------------

           -------------------------------------------------
          | TOTAL ENERGY              -82.989698126458 Eh   |
          | GRADIENT NORM               0.000579115677 Eh/α |
          | HOMO-LUMO GAP               2.485501542824 eV   |
           -------------------------------------------------

 * finished run on 2023/06/20 at 18:21:51.001
