   * xtb version 6.5.1 (579679a) compiled by 'ehlert@majestix' on 2022-07-11
          program call               : /lustre/hpc/kemi/ree/PhD/git/ReactivityQM/dep/xtb-6.5.1/bin/xtb --gfn 1 /lustre/hpc/kemi/ree/PhD/git/ReactivityQM/calculations/R02deprot/reac01prodN12/conf09/R02deprot_reac01prodN12_conf09_gfn1.xyz --opt --vfukui --chrg 0 --uhf 0 --alpb DMSO

   ID    Z sym.   atoms
    1    6 C      1, 3, 5, 7-10, 12, 13, 15, 18, 19, 22, 24
    2    8 O      2, 4, 14, 20, 23, 25
    3    7 N      6, 11, 16, 17, 21
    4    1 H      26-42

      * Solvation model:               ALPB
        Solvent                        DMSO
        Solvent mass                       7.8130E+01 g/mol
          :  Hamiltonian                  GFN1-xTB          :
 * total energy  :   -82.8368563 Eh     change       -0.2347633E-10 Eh
 * total energy  :   -82.8498107 Eh     change       -0.1295448E-01 Eh
 * total energy  :   -82.8559444 Eh     change       -0.6133665E-02 Eh
 * total energy  :   -82.8575424 Eh     change       -0.1598001E-02 Eh
 * total energy  :   -82.8589485 Eh     change       -0.1406094E-02 Eh
 * total energy  :   -82.8596704 Eh     change       -0.7219433E-03 Eh
 * total energy  :   -82.8603358 Eh     change       -0.6654064E-03 Eh
 * total energy  :   -82.8607144 Eh     change       -0.3785688E-03 Eh
 * total energy  :   -82.8610060 Eh     change       -0.2916170E-03 Eh
 * total energy  :   -82.8612249 Eh     change       -0.2188386E-03 Eh
 * total energy  :   -82.8628962 Eh     change       -0.1279914E-04 Eh
 * total energy  :   -82.8629024 Eh     change       -0.6218676E-05 Eh
 * total energy  :   -82.8629078 Eh     change       -0.5400058E-05 Eh
 * total energy  :   -82.8629182 Eh     change       -0.1042938E-04 Eh
 * total energy  :   -82.8629279 Eh     change       -0.9676315E-05 Eh
 * total energy  :   -82.8629374 Eh     change       -0.9493608E-05 Eh
 * total energy  :   -82.8629468 Eh     change       -0.9397073E-05 Eh
 * total energy  :   -82.8629541 Eh     change       -0.7301900E-05 Eh
 * total energy  :   -82.8629590 Eh     change       -0.4975665E-05 Eh
   *** GEOMETRY OPTIMIZATION CONVERGED AFTER 50 ITERATIONS ***

 final structure:
================
42
 xtb: 6.5.1 (579679a)
C           -6.10834017084206        0.60426574787051        1.08411381422095
O           -4.80043453720363        0.36565593520114        0.54583466238883
C           -4.64267909361431        0.57106244321254       -0.74518726407886
O           -5.53034635712557        0.94455165729631       -1.48955887512775
C           -3.26153326744391        0.30014124684463       -1.23677741971716
N           -2.37012808107948       -0.20973010798581       -0.38202302405655
C           -1.11208266500008       -0.33981302473774       -0.82479735289817
C           -0.10351897856146       -0.84661336856318        0.19801868387121
C           -0.28839712474968       -2.38770802845951        0.12964362262128
C           -0.40892656711102       -0.33797696738470        1.60984443424563
N            1.18018827044781       -0.44669743819766       -0.25599303059971
C            2.52977160524815       -1.01259581615161        0.17219796983558
C            2.69302110467458       -1.15078434623955        1.68346563241037
O            2.43256851014068       -2.11860828401984       -0.53279040056748
C            3.53140948569451        0.00314914435893       -0.37073006794623
N            3.62401230976788        0.42835431737972       -1.58564499425746
N            4.64142476949251        1.35142911078319       -1.60165920713599
C            5.09272190593321        1.42326108727385       -0.39307297270228
C            6.18893671042150        2.27490087811796        0.12101422309607
O            4.42985393617345        0.59491546717400        0.43992017374781
N           -0.68555258700823       -0.10351058603240       -2.03152727489372
C           -1.53137628464247        0.32921514773159       -3.02482727531480
O           -1.18822271112462        0.47559599014598       -4.18409692995145
C           -2.92298947761152        0.59094733505391       -2.56037924543916
O           -3.78570265219542        0.99742456362187       -3.46199214020411
H           -6.82635483365158       -0.07934881621686        0.62727428850326
H           -6.40794116735489        1.63480743684881        0.88420493833057
H           -6.03753975409441        0.42600249576791        2.15450775430467
H            0.39571826263418       -2.84929884959577        0.83662143556282
H           -1.31390981309562       -2.64046586101648        0.38834687260080
H           -0.05793801934218       -2.73101148731415       -0.87632403881900
H           -1.47920053915906       -0.42833694506925        1.78742596256255
H           -0.12008847232005        0.70760578956481        1.69644229167714
H            0.11532672873040       -0.91905318367769        2.36275427003565
H            1.18778294964761       -0.36333821179800       -1.28196310189948
H            2.03868436311342       -1.92896482879607        2.06552799159082
H            3.72441597391463       -1.43891608760165        1.87988601038750
H            2.48934416002787       -0.20684809049103        2.18149929084376
H            5.81052382135886        2.94038397923554        0.89652794373159
H            6.96915072823220        1.65453870860938        0.56094564320662
H            6.60623102755416        2.86387901668677       -0.69215245184163
H           -4.69788546887214        1.05753183056967       -3.08259384234006

          :  Hamiltonian                  GFN1-xTB          :
         :: total energy             -82.862959048006 Eh    ::
         :: gradient norm              0.000730200990 Eh/a0 ::
         :: HOMO-LUMO gap              0.158586534237 eV    ::
         :: SCC energy               -83.615296907855 Eh    ::
         :: -> Gsolv                  -0.057511055789 Eh    ::
         :: repulsion energy           0.778284567675 Eh    ::

    * Orbital Energies and Occupations

         #    Occupation            Energy/Eh            Energy/eV
      -------------------------------------------------------------
         1        2.0000           -0.8594314             -23.3863
       ...           ...                  ...                  ...
        55        2.0000           -0.5077192             -13.8157
        56        2.0000           -0.5030891             -13.6898
        57        2.0000           -0.4977584             -13.5447
        58        2.0000           -0.4954074             -13.4807
        59        2.0000           -0.4882517             -13.2860
        60        2.0000           -0.4793615             -13.0441
        61        2.0000           -0.4725155             -12.8578
        62        2.0000           -0.4703504             -12.7989
        63        2.0000           -0.4568705             -12.4321
        64        2.0000           -0.4491086             -12.2209
        65        2.0000           -0.4428214             -12.0498
        66        1.9988           -0.4349452             -11.8355
        67        1.9116           -0.4308044             -11.7228 (HOMO)
        68        0.0896           -0.4249764             -11.5642 (LUMO)
        69                         -0.3292207              -8.9586
        70                         -0.2925573              -7.9609
        71                         -0.2680681              -7.2945
        72                         -0.2489371              -6.7739
        73                         -0.2446346              -6.6568
        74                         -0.1704285              -4.6376
        75                         -0.1450684              -3.9475
        76                         -0.1418328              -3.8595
        77                         -0.1417535              -3.8573
        78                         -0.1299436              -3.5359
       ...                                ...                  ...
       134                          0.7136437              19.4192
      -------------------------------------------------------------
                  HL-Gap            0.0058279 Eh            0.1586 eV

Wiberg/Mayer (AO) data.
largest (>0.10) Wiberg bond orders for each atom

     #   Z sym  total        # sym  WBO       # sym  WBO       # sym  WBO
 ---------------------------------------------------------------------------
     1   6 C    3.856 --    28 H    0.985    27 H    0.978    26 H    0.978
                             2 O    0.883
     2   8 O    2.231 --     3 C    1.159     1 C    0.883     4 O    0.135
     3   6 C    3.841 --     4 O    1.613     2 O    1.159     5 C    0.991
     4   8 O    1.949 --     3 C    1.613     2 O    0.135
     5   6 C    3.935 --     6 N    1.351    24 C    1.328     3 C    0.991
     6   7 N    2.995 --     5 C    1.351     7 C    1.292
     7   6 C    3.935 --    21 N    1.493     6 N    1.292     8 C    0.949
     8   6 C    3.931 --    11 N    1.033    10 C    0.975     7 C    0.949
                             9 C    0.879
     9   6 C    3.958 --    30 H    0.984    31 H    0.979    29 H    0.969
                             8 C    0.879
    10   6 C    3.980 --    33 H    0.983    34 H    0.980    32 H    0.977
                             8 C    0.975
    11   7 N    3.293 --     8 C    1.033    35 H    0.871    12 C    0.763
                            14 O    0.189
    12   6 C    3.875 --    14 O    1.137    13 C    0.974    15 C    0.936
                            11 N    0.763
    13   6 C    3.986 --    38 H    0.985    36 H    0.978    37 H    0.975
                            12 C    0.974
    14   8 O    1.664 --    12 C    1.137    11 N    0.189
    15   6 C    3.869 --    16 N    1.669    20 O    1.062    12 C    0.936
    16   7 N    2.997 --    15 C    1.669    17 N    1.164
    17   7 N    2.979 --    18 C    1.645    16 N    1.164
    18   6 C    3.872 --    17 N    1.645    20 O    1.056    19 C    1.029
    19   6 C    3.988 --    18 C    1.029    41 H    0.983    40 H    0.965
                            39 H    0.965
    20   8 O    2.309 --    15 C    1.062    18 C    1.056
    21   7 N    3.086 --     7 C    1.493    22 C    1.140
    22   6 C    3.902 --    23 O    1.619    21 N    1.140    24 C    0.997
    23   8 O    1.888 --    22 C    1.619
    24   6 C    3.793 --     5 C    1.328    25 O    1.204    22 C    0.997
    25   8 O    2.090 --    24 C    1.204    42 H    0.754
    26   1 H    1.004 --     1 C    0.978
    27   1 H    1.004 --     1 C    0.978
    28   1 H    1.008 --     1 C    0.985
    29   1 H    1.009 --     9 C    0.969
    30   1 H    1.001 --     9 C    0.984
    31   1 H    1.010 --     9 C    0.979
    32   1 H    1.013 --    10 C    0.977
    33   1 H    1.000 --    10 C    0.983
    34   1 H    1.002 --    10 C    0.980
    35   1 H    0.962 --    11 N    0.871
    36   1 H    1.005 --    13 C    0.978
    37   1 H    1.001 --    13 C    0.975
    38   1 H    1.003 --    13 C    0.985
    39   1 H    0.998 --    19 C    0.965
    40   1 H    0.998 --    19 C    0.965
    41   1 H    0.999 --    19 C    0.983
    42   1 H    0.837 --    25 O    0.754
 ---------------------------------------------------------------------------

           -------------------------------------------------
          | TOTAL ENERGY              -82.862959048006 Eh   |
          | GRADIENT NORM               0.000730200990 Eh/α |
          | HOMO-LUMO GAP               0.158586534237 eV   |
           -------------------------------------------------

 * finished run on 2023/06/20 at 18:20:48.112
