   * xtb version 6.5.1 (579679a) compiled by 'ehlert@majestix' on 2022-07-11
          program call               : /lustre/hpc/kemi/ree/PhD/git/ReactivityQM/dep/xtb-6.5.1/bin/xtb --gfn 1 /lustre/hpc/kemi/ree/PhD/git/ReactivityQM/calculations/R03/reac02prodE13/conf06/R03_reac02prodE13_conf06_gfn1.xyz --opt --vfukui --chrg -1 --uhf 0 --alpb DMSO

   ID    Z sym.   atoms
    1    6 C      1, 3, 5, 6, 8, 10, 12-16, 18, 20, 23, 24
    2    8 O      2, 4, 7, 9, 19, 25
    3    7 N      11, 17, 21, 22, 26
    4    1 H      27-46

      * Solvation model:               ALPB
        Solvent                        DMSO
        Solvent mass                       7.8130E+01 g/mol
          :  Hamiltonian                  GFN1-xTB          :
 * total energy  :   -87.0061062 Eh     change       -0.6467928E-09 Eh
 * total energy  :   -87.0206314 Eh     change       -0.1452527E-01 Eh
 * total energy  :   -87.0258863 Eh     change       -0.5254864E-02 Eh
 * total energy  :   -87.0269261 Eh     change       -0.1039850E-02 Eh
 * total energy  :   -87.0276270 Eh     change       -0.7008451E-03 Eh
 * total energy  :   -87.0279296 Eh     change       -0.3026068E-03 Eh
 * total energy  :   -87.0281752 Eh     change       -0.2456146E-03 Eh
 * total energy  :   -87.0283740 Eh     change       -0.1987502E-03 Eh
 * total energy  :   -87.0285182 Eh     change       -0.1442544E-03 Eh
 * total energy  :   -87.0286272 Eh     change       -0.1089418E-03 Eh
 * total energy  :   -87.0339264 Eh     change       -0.1655740E-04 Eh
 * total energy  :   -87.0339402 Eh     change       -0.1378581E-04 Eh
 * total energy  :   -87.0339512 Eh     change       -0.1099302E-04 Eh
 * total energy  :   -87.0339600 Eh     change       -0.8826692E-05 Eh
 * total energy  :   -87.0339680 Eh     change       -0.8050082E-05 Eh
 * total energy  :   -87.0339766 Eh     change       -0.8544111E-05 Eh
 * total energy  :   -87.0339861 Eh     change       -0.9512949E-05 Eh
 * total energy  :   -87.0339961 Eh     change       -0.1004570E-04 Eh
 * total energy  :   -87.0340001 Eh     change       -0.3948366E-05 Eh
   *** GEOMETRY OPTIMIZATION CONVERGED AFTER 94 ITERATIONS ***

 final structure:
================
46
 xtb: 6.5.1 (579679a)
C           -4.81128647130440        3.66907492737228        0.74591819573098
O           -3.73274183068788        2.84219097775819        0.34984761673129
C           -3.79523041231388        1.53081964578858        0.81271352854821
O           -4.79255045121139        1.17153926299856        1.49194149325546
C           -2.72380195296817        0.71705576755051        0.45231606210129
C           -2.61894687943484       -0.65554699409795        0.93195377392826
O           -3.59359893143475       -1.12798581467604        1.77258304396686
C           -1.53511251021752       -1.38944253322315        0.62546609164792
O           -1.26296083104369       -2.67848256746883        1.07538629077052
C           -1.34782547822813       -2.90275692473637        2.47473647335785
N           -0.51033457434742       -0.90753989735322       -0.28134714514286
C           -0.46703870103755       -1.74404125663610       -1.50253897045215
C           -0.63946356023630        0.50114673951622       -0.55320688792157
C            0.55605261578754        1.18976345716778       -1.20246832520631
C            0.73891940108772        2.57938642762334       -0.56999350242713
C            0.33346543108308        1.33768587156939       -2.71682747942665
N            1.74958833805445        0.38221517925615       -0.92778669550769
C            2.98250063895557        0.69126104938474       -1.35000312030400
O            3.27445526479983        1.61612407357680       -2.09916181984914
C            4.03000513017008       -0.21788974321299       -0.80912255880267
N            5.30799748844321       -0.16478065022951       -1.03472614125144
N            5.87959999571336       -1.16444345770236       -0.30192136018505
C            4.91708188646374       -1.76315388293465        0.32637402502883
C            5.02274160123823       -2.90969062081116        1.25562310477234
O            3.72128502306065       -1.21547697879022        0.05024931961993
N           -1.63257410162494        1.23283977794491       -0.23066793495022
H           -4.62370733459722        4.66278044861553        0.33611482594761
H           -4.88023320365641        3.73448851613488        1.83862166304529
H           -5.76523629267358        3.29096202753064        0.35913281382537
H           -4.26113296989348       -0.38771141215059        1.86353321427480
H           -2.39096106000411       -2.97303995295671        2.80794139132391
H           -0.84899850757171       -2.10547356378130        3.03946378864319
H           -0.84564304013214       -3.85175717497386        2.67637134106613
H            0.42548486939730       -1.50281487019699       -2.07669865862839
H           -0.41048756872512       -2.78726181228132       -1.19393605733041
H           -1.35716286297316       -1.59396484360316       -2.12311994756604
H            1.55753834705974        3.11475139349887       -1.04834781255600
H           -0.18173629742376        3.14920760279875       -0.69150496990777
H            0.95136495281600        2.47845376823809        0.49363227519577
H            1.10377656345866        1.96605673934019       -3.16161884873130
H           -0.63969669010181        1.79817428480541       -2.88446024799505
H            0.35060656617948        0.36619769733021       -3.20636040994513
H            1.63193180366234       -0.38706690240232       -0.28023025735710
H            4.58440452304995       -2.65141656648395        2.21923113141660
H            4.48090634735232       -3.76717937487834        0.85685303519181
H            6.06875672601433       -3.17325784023149        1.39004465205950

          :  Hamiltonian                  GFN1-xTB          :
         :: total energy             -87.034000081303 Eh    ::
         :: gradient norm              0.000211230089 Eh/a0 ::
         :: HOMO-LUMO gap              0.236782703603 eV    ::
         :: SCC energy               -87.823078257717 Eh    ::
         :: -> Gsolv                  -0.104168422003 Eh    ::
         :: repulsion energy           0.817733731262 Eh    ::

    * Orbital Energies and Occupations

         #    Occupation            Energy/Eh            Energy/eV
      -------------------------------------------------------------
         1        2.0000           -0.8569354             -23.3184
       ...           ...                  ...                  ...
        59        2.0000           -0.4665570             -12.6957
        60        2.0000           -0.4560628             -12.4101
        61        2.0000           -0.4519924             -12.2993
        62        2.0000           -0.4495142             -12.2319
        63        2.0000           -0.4427600             -12.0481
        64        2.0000           -0.4413019             -12.0084
        65        2.0000           -0.4376155             -11.9081
        66        2.0000           -0.4300643             -11.7026
        67        2.0000           -0.4086030             -11.1187
        68        2.0000           -0.4065812             -11.0636
        69        2.0000           -0.3787596             -10.3066
        70        2.0000           -0.3785177             -10.3000
        71        1.9797           -0.3073452              -8.3633 (HOMO)
        72        0.0203           -0.2986436              -8.1265 (LUMO)
        73                         -0.2501277              -6.8063
        74                         -0.2269685              -6.1761
        75                         -0.1918156              -5.2196
        76                         -0.1865207              -5.0755
        77                         -0.1398309              -3.8050
        78                         -0.1183401              -3.2202
        79                         -0.1114973              -3.0340
        80                         -0.1110857              -3.0228
        81                         -0.1038751              -2.8266
        82                         -0.1038032              -2.8246
       ...                                ...                  ...
       144                          0.7293482              19.8466
      -------------------------------------------------------------
                  HL-Gap            0.0087016 Eh            0.2368 eV

Wiberg/Mayer (AO) data.
largest (>0.10) Wiberg bond orders for each atom

     #   Z sym  total        # sym  WBO       # sym  WBO       # sym  WBO
 ---------------------------------------------------------------------------
     1   6 C    3.912 --    27 H    0.987    29 H    0.981    28 H    0.981
                             2 O    0.942
     2   8 O    2.084 --     3 C    0.964     1 C    0.942
     3   6 C    3.867 --     4 O    1.395     5 C    1.345     2 O    0.964
     4   8 O    1.812 --     3 C    1.395     5 C    0.106    30 H    0.103
     5   6 C    3.860 --     3 C    1.345    26 N    1.116     6 C    1.082
                             4 O    0.106
     6   6 C    3.910 --     8 C    1.648     5 C    1.082     7 O    1.028
     7   8 O    1.983 --     6 C    1.028    30 H    0.770
     8   6 C    3.826 --     6 C    1.648    11 N    0.956     9 O    0.954
     9   8 O    2.042 --     8 C    0.954    10 C    0.934
    10   6 C    3.913 --    33 H    0.986    32 H    0.983    31 H    0.980
                             9 O    0.934
    11   7 N    3.128 --    13 C    0.985     8 C    0.956    12 C    0.943
    12   6 C    3.967 --    35 H    0.985    36 H    0.985    34 H    0.985
                            11 N    0.943
    13   6 C    3.940 --    26 N    1.716    11 N    0.985    14 C    0.974
    14   6 C    3.925 --    15 C    0.986    16 C    0.983    13 C    0.974
                            17 N    0.916
    15   6 C    3.992 --    39 H    0.987    14 C    0.986    37 H    0.984
                            38 H    0.983
    16   6 C    3.990 --    41 H    0.986    14 C    0.983    42 H    0.982
                            40 H    0.982
    17   7 N    3.378 --    18 C    1.291    14 C    0.916    43 H    0.889
                            19 O    0.182
    18   6 C    3.916 --    19 O    1.555    17 N    1.291    20 C    0.989
    19   8 O    1.873 --    18 C    1.555    17 N    0.182
    20   6 C    3.859 --    21 N    1.618    25 O    1.045    18 C    0.989
    21   7 N    2.983 --    20 C    1.618    22 N    1.192
    22   7 N    2.980 --    23 C    1.617    21 N    1.192
    23   6 C    3.869 --    22 N    1.617    25 O    1.071    24 C    1.030
    24   6 C    3.988 --    23 C    1.030    46 H    0.983    44 H    0.966
                            45 H    0.963
    25   8 O    2.310 --    23 C    1.071    20 C    1.045
    26   7 N    3.052 --    13 C    1.716     5 C    1.116
    27   1 H    1.019 --     1 C    0.987
    28   1 H    1.018 --     1 C    0.981
    29   1 H    1.018 --     1 C    0.981
    30   1 H    0.886 --     7 O    0.770     4 O    0.103
    31   1 H    1.027 --    10 C    0.980
    32   1 H    1.013 --    10 C    0.983
    33   1 H    1.018 --    10 C    0.986
    34   1 H    1.019 --    12 C    0.985
    35   1 H    1.020 --    12 C    0.985
    36   1 H    1.010 --    12 C    0.985
    37   1 H    1.011 --    15 C    0.984
    38   1 H    1.022 --    15 C    0.983
    39   1 H    1.009 --    15 C    0.987
    40   1 H    1.014 --    16 C    0.982
    41   1 H    1.009 --    16 C    0.986
    42   1 H    1.009 --    16 C    0.982
    43   1 H    0.963 --    17 N    0.889
    44   1 H    0.998 --    24 C    0.966
    45   1 H    0.997 --    24 C    0.963
    46   1 H    0.999 --    24 C    0.983
 ---------------------------------------------------------------------------

           -------------------------------------------------
          | TOTAL ENERGY              -87.034000081303 Eh   |
          | GRADIENT NORM               0.000211230089 Eh/α |
          | HOMO-LUMO GAP               0.236782703603 eV   |
           -------------------------------------------------

 * finished run on 2023/06/20 at 15:34:46.963
