   * xtb version 6.5.1 (579679a) compiled by 'ehlert@majestix' on 2022-07-11
          program call               : /lustre/hpc/kemi/ree/PhD/git/ReactivityQM/dep/xtb-6.5.1/bin/xtb --gfn 1 /lustre/hpc/kemi/ree/PhD/git/ReactivityQM/calculations/R02oxygendeprot/reac01prodN09/conf05/R02oxygendeprot_reac01prodN09_conf05_gfn1.xyz --opt --vfukui --chrg 0 --uhf 0 --alpb DMSO

   ID    Z sym.   atoms
    1    6 C      1, 3, 4, 6, 8-11, 13, 15, 18, 19, 22, 24
    2    8 O      2, 5, 14, 20, 23, 25
    3    7 N      7, 12, 16, 17, 21
    4    1 H      26-42

      * Solvation model:               ALPB
        Solvent                        DMSO
        Solvent mass                       7.8130E+01 g/mol
          :  Hamiltonian                  GFN1-xTB          :
 * total energy  :   -82.8612245 Eh     change       -0.1549694E-09 Eh
 * total energy  :   -82.8753805 Eh     change       -0.1415599E-01 Eh
 * total energy  :   -82.8827840 Eh     change       -0.7403452E-02 Eh
 * total energy  :   -82.8851050 Eh     change       -0.2320977E-02 Eh
 * total energy  :   -82.8872904 Eh     change       -0.2185490E-02 Eh
 * total energy  :   -82.8896860 Eh     change       -0.2395607E-02 Eh
 * total energy  :   -82.8925263 Eh     change       -0.2840225E-02 Eh
 * total energy  :   -82.8955235 Eh     change       -0.2997259E-02 Eh
 * total energy  :   -82.8987710 Eh     change       -0.3247495E-02 Eh
 * total energy  :   -82.9030653 Eh     change       -0.4294241E-02 Eh
 * total energy  :   -82.9772800 Eh     change       -0.2530730E-04 Eh
 * total energy  :   -82.9773069 Eh     change       -0.2689631E-04 Eh
 * total energy  :   -82.9773307 Eh     change       -0.2380500E-04 Eh
 * total energy  :   -82.9773467 Eh     change       -0.1597195E-04 Eh
 * total energy  :   -82.9773594 Eh     change       -0.1265597E-04 Eh
 * total energy  :   -82.9773727 Eh     change       -0.1331759E-04 Eh
 * total energy  :   -82.9773810 Eh     change       -0.8326713E-05 Eh
 * total energy  :   -82.9773863 Eh     change       -0.5323918E-05 Eh
 * total energy  :   -82.9773912 Eh     change       -0.4876465E-05 Eh
   *** GEOMETRY OPTIMIZATION CONVERGED AFTER 118 ITERATIONS ***

 final structure:
================
42
 xtb: 6.5.1 (579679a)
C           -3.03737750296572        2.30098732711226        3.10474637996290
O           -3.59836909048197        0.98081197874302        3.17116364032425
C           -3.34635388800874        0.11975458800267        2.23187795705352
C           -3.96989818074455       -1.20969562422103        2.37354587914870
O           -2.55288402086135        0.47743563318126        1.28998791854901
C           -2.37688745067096       -0.21680554527716        0.07692668168474
N           -1.09362944531081       -0.18672413736158       -0.36139796091041
C           -0.82227276732841       -0.72130687675278       -1.50680349848602
C            0.59211202506610       -0.72035096389277       -2.04788163474054
C            0.66593120855750        0.17246201794978       -3.29631975591696
C            1.04994598784750       -2.15178915045237       -2.36351269182069
N            1.43464675773003       -0.16281173291706       -0.99256362591058
C            2.76294944312280        0.01243616196527       -1.09982666749915
O            3.44109995462117       -0.24668567454267       -2.08039995790048
C            3.32901832315970        0.57357657394110        0.15656760944734
N            2.66959508858534        0.85637735553959        1.23954285704365
N            3.57719198218351        1.33065249595513        2.13981293954542
C            4.73270201260114        1.30509420207693        1.54783382704627
C            6.04055031739927        1.71880071750748        2.10261771174874
O            4.64136697028380        0.83765111402278        0.29404294457849
N           -1.80558571353186       -1.28657312361014       -2.27447784246553
C           -3.14458595328955       -1.33816606512523       -1.93699836639135
O           -3.94207504619617       -1.87476981276226       -2.69219256321668
C           -3.48916655099177       -0.71131116210047       -0.62176184822296
O           -4.67598328657603       -0.62383988145874       -0.22920823968865
H           -3.26877843656329        2.75300177001738        2.13911702113812
H           -3.49589838359119        2.86265022571543        3.91522093521369
H           -1.95638117053785        2.24678816621108        3.23851800691754
H           -4.21098076537816       -1.38832337640850        3.41827170989232
H           -3.29994162511332       -1.97386380778035        1.98251938560107
H           -4.89053090254547       -1.25102555247207        1.78008649243823
H            0.38974422434879        1.19384267041423       -3.03854059493644
H            1.67699133975174        0.16532564046454       -3.69947976944410
H           -0.01856149907230       -0.20036042242955       -4.05550245004524
H            2.07839409781600       -2.14005408867761       -2.72011398499705
H            0.41891747994351       -2.58404033294788       -3.13696988021560
H            0.98836023166431       -2.76740750683129       -1.46754109443158
H            0.96656894481401        0.09103195098525       -0.12916398102497
H            6.45069852687921        2.54188126555140        1.51725432497030
H            6.74474259188524        0.88831679036837        2.05613146397985
H            5.91505905656086        2.03446467994088        3.13539632265872
H           -1.57044388511380       -1.70744048762550       -3.16052460061279

          :  Hamiltonian                  GFN1-xTB          :
         :: total energy             -82.977391196465 Eh    ::
         :: gradient norm              0.000568001996 Eh/a0 ::
         :: HOMO-LUMO gap              1.747701316406 eV    ::
         :: SCC energy               -83.756924646099 Eh    ::
         :: -> Gsolv                  -0.058300574629 Eh    ::
         :: repulsion energy           0.804520113699 Eh    ::

    * Orbital Energies and Occupations

         #    Occupation            Energy/Eh            Energy/eV
      -------------------------------------------------------------
         1        2.0000           -0.8913151             -24.2539
       ...           ...                  ...                  ...
        55        2.0000           -0.5049755             -13.7411
        56        2.0000           -0.4998973             -13.6029
        57        2.0000           -0.4977323             -13.5440
        58        2.0000           -0.4828996             -13.1404
        59        2.0000           -0.4815493             -13.1036
        60        2.0000           -0.4678699             -12.7314
        61        2.0000           -0.4636748             -12.6172
        62        2.0000           -0.4590406             -12.4911
        63        2.0000           -0.4525779             -12.3153
        64        2.0000           -0.4490229             -12.2185
        65        2.0000           -0.4445060             -12.0956
        66        2.0000           -0.4127459             -11.2314
        67        2.0000           -0.3900441             -10.6136 (HOMO)
        68                         -0.3258172              -8.8659 (LUMO)
        69                         -0.3081066              -8.3840
        70                         -0.2759055              -7.5078
        71                         -0.2630822              -7.1588
        72                         -0.2565911              -6.9822
        73                         -0.1961364              -5.3371
        74                         -0.1610361              -4.3820
        75                         -0.1535817              -4.1792
        76                         -0.1430296              -3.8920
        77                         -0.1425818              -3.8798
        78                         -0.1342582              -3.6534
       ...                                ...                  ...
       134                          0.7361745              20.0323
      -------------------------------------------------------------
                  HL-Gap            0.0642268 Eh            1.7477 eV

Wiberg/Mayer (AO) data.
largest (>0.10) Wiberg bond orders for each atom

     #   Z sym  total        # sym  WBO       # sym  WBO       # sym  WBO
 ---------------------------------------------------------------------------
     1   6 C    3.842 --    27 H    0.983    26 H    0.976    28 H    0.976
                             2 O    0.867
     2   8 O    2.265 --     3 C    1.217     1 C    0.867
     3   6 C    3.793 --     5 O    1.271     2 O    1.217     4 C    1.042
     4   6 C    3.973 --     3 C    1.042    29 H    0.972    30 H    0.963
                            31 H    0.910
     5   8 O    2.354 --     3 C    1.271     6 C    0.872
     6   6 C    3.771 --    24 C    1.300     7 N    1.204     5 O    0.872
                            25 O    0.130
     7   7 N    3.045 --     8 C    1.558     6 C    1.204
     8   6 C    3.926 --     7 N    1.558    21 N    1.143     9 C    0.984
     9   6 C    3.937 --     8 C    0.984    11 C    0.982    10 C    0.978
                            12 N    0.932
    10   6 C    3.987 --    32 H    0.985    34 H    0.984    33 H    0.979
                             9 C    0.978
    11   6 C    3.988 --    37 H    0.985    36 H    0.983     9 C    0.982
                            35 H    0.979
    12   7 N    3.360 --    13 C    1.270     9 C    0.932    38 H    0.879
                            14 O    0.182
    13   6 C    3.920 --    14 O    1.583    12 N    1.270    15 C    0.986
    14   8 O    1.904 --    13 C    1.583    12 N    0.182
    15   6 C    3.873 --    16 N    1.613    20 O    1.064    13 C    0.986
    16   7 N    3.012 --    15 C    1.613    17 N    1.197
    17   7 N    2.980 --    18 C    1.607    16 N    1.197
    18   6 C    3.872 --    17 N    1.607    20 O    1.083    19 C    1.031
    19   6 C    3.987 --    18 C    1.031    41 H    0.983    40 H    0.964
                            39 H    0.963
    20   8 O    2.329 --    18 C    1.083    15 C    1.064
    21   7 N    3.436 --     8 C    1.143    22 C    1.129    42 H    0.889
                            23 O    0.131
    22   6 C    3.890 --    23 O    1.598    21 N    1.129    24 C    0.989
    23   8 O    1.880 --    22 C    1.598    21 N    0.131
    24   6 C    3.959 --    25 O    1.453     6 C    1.300    22 C    0.989
    25   8 O    1.832 --    24 C    1.453     6 C    0.130
    26   1 H    1.001 --     1 C    0.976
    27   1 H    1.005 --     1 C    0.983
    28   1 H    1.001 --     1 C    0.976
    29   1 H    0.995 --     4 C    0.972
    30   1 H    0.995 --     4 C    0.963
    31   1 H    1.007 --     4 C    0.910
    32   1 H    1.002 --    10 C    0.985
    33   1 H    1.008 --    10 C    0.979
    34   1 H    1.000 --    10 C    0.984
    35   1 H    1.007 --    11 C    0.979
    36   1 H    1.000 --    11 C    0.983
    37   1 H    1.002 --    11 C    0.985
    38   1 H    0.970 --    12 N    0.879
    39   1 H    0.997 --    19 C    0.963
    40   1 H    0.997 --    19 C    0.964
    41   1 H    0.999 --    19 C    0.983
    42   1 H    0.937 --    21 N    0.889
 ---------------------------------------------------------------------------

           -------------------------------------------------
          | TOTAL ENERGY              -82.977391196465 Eh   |
          | GRADIENT NORM               0.000568001996 Eh/α |
          | HOMO-LUMO GAP               1.747701316406 eV   |
           -------------------------------------------------

 * finished run on 2023/06/21 at 17:25:15.221
