   * xtb version 6.5.1 (579679a) compiled by 'ehlert@majestix' on 2022-07-11
          program call               : /lustre/hpc/kemi/ree/PhD/git/ReactivityQM/dep/xtb-6.5.1/bin/xtb --gfn 1 /lustre/hpc/kemi/ree/PhD/git/ReactivityQM/calculations/RaltegravirCLI/reac01prodE02/conf07/RaltegravirCLI_reac01prodE02_conf07_gfn1.xyz --opt --vfukui --chrg -1 --uhf 0 --alpb DMSO

   ID    Z sym.   atoms
    1    6 C      1-3, 6, 7
    2    7 N      4, 5
    3    8 O      8, 10
    4   17 Cl     9
    5    1 H      11-16

      * Solvation model:               ALPB
        Solvent                        DMSO
        Solvent mass                       7.8130E+01 g/mol
          :  Hamiltonian                  GFN1-xTB          :
 * total energy  :   -34.1646697 Eh     change       -0.1891465E-10 Eh
 * total energy  :   -34.1687995 Eh     change       -0.4129728E-02 Eh
 * total energy  :   -34.1708598 Eh     change       -0.2060365E-02 Eh
 * total energy  :   -34.1712085 Eh     change       -0.3486995E-03 Eh
 * total energy  :   -34.1714191 Eh     change       -0.2106246E-03 Eh
 * total energy  :   -34.1714502 Eh     change       -0.3100653E-04 Eh
 * total energy  :   -34.1714576 Eh     change       -0.7417085E-05 Eh
 * total energy  :   -34.1714603 Eh     change       -0.2728090E-05 Eh
   *** GEOMETRY OPTIMIZATION CONVERGED AFTER 8 ITERATIONS ***

 final structure:
================
16
 xtb: 6.5.1 (579679a)
C           -1.42874136743785       -0.94196845733217       -1.03589604993999
C           -0.58459093030209        0.12241057848863       -0.32348728411877
C           -1.46895374896230        1.18428352485895        0.34325971527897
N            0.31065571431942        0.77304333011467       -1.29730839960789
N            1.51751973861236        0.56945727150916       -0.93433594582445
C            1.56810679465980       -0.16174505132698        0.19393525321376
C            2.68371941801872       -0.57762597088756        0.88792151412633
O            2.82272750852829       -1.23792966482508        1.90357004315706
Cl           4.22638418065016        0.02320466012939        0.05980719311164
O            0.27228927033204       -0.48147989246160        0.63147997380698
H           -2.04954724734962       -0.47128205387799       -1.79499490512798
H           -0.77076328379485       -1.66737257140881       -1.51166951562359
H           -2.06463807271456       -1.45569148565759       -0.31751892575677
H           -2.12218524198743        0.71904062640090        1.07887367361293
H           -2.07300224641531        1.68420418770540       -0.41069878897753
H           -0.83898148615592        1.91945096857222        0.84137844866989

          :  Hamiltonian                  GFN1-xTB          :
         :: total energy             -34.171460296068 Eh    ::
         :: gradient norm              0.000748775823 Eh/a0 ::
         :: HOMO-LUMO gap              2.085972932415 eV    ::
         :: SCC energy               -34.430148953103 Eh    ::
         :: -> Gsolv                  -0.086975878112 Eh    ::
         :: repulsion energy           0.266254705875 Eh    ::

    * Orbital Energies and Occupations

         #    Occupation            Energy/Eh            Energy/eV
      -------------------------------------------------------------
         1        2.0000           -0.8705507             -23.6889
       ...           ...                  ...                  ...
        16        2.0000           -0.5165272             -14.0554
        17        2.0000           -0.5017890             -13.6544
        18        2.0000           -0.4945938             -13.4586
        19        2.0000           -0.4921897             -13.3932
        20        2.0000           -0.4830740             -13.1451
        21        2.0000           -0.4614131             -12.5557
        22        2.0000           -0.4567010             -12.4275
        23        2.0000           -0.4520466             -12.3008
        24        2.0000           -0.4486308             -12.2079
        25        2.0000           -0.4377988             -11.9131
        26        2.0000           -0.4280213             -11.6471
        27        2.0000           -0.3890523             -10.5867
        28        2.0000           -0.3415435              -9.2939 (HOMO)
        29                         -0.2648854              -7.2079 (LUMO)
        30                         -0.1781368              -4.8474
        31                         -0.1490899              -4.0569
        32                         -0.1103563              -3.0029
        33                         -0.1047642              -2.8508
        34                         -0.0634001              -1.7252
        35                         -0.0522117              -1.4208
        36                         -0.0340856              -0.9275
        37                         -0.0319465              -0.8693
        38                         -0.0021196              -0.0577
        39                         -0.0017695              -0.0481
       ...                                ...                  ...
        57                          0.7660173              20.8444
      -------------------------------------------------------------
                  HL-Gap            0.0766581 Eh            2.0860 eV

Wiberg/Mayer (AO) data.
largest (>0.10) Wiberg bond orders for each atom

     #   Z sym  total        # sym  WBO       # sym  WBO       # sym  WBO
 ---------------------------------------------------------------------------
     1   6 C    3.995 --    11 H    0.987    13 H    0.986    12 H    0.985
                             2 C    0.979
     2   6 C    3.898 --     1 C    0.979     3 C    0.979     4 N    0.972
                            10 O    0.927
     3   6 C    3.995 --    15 H    0.987    14 H    0.986    16 H    0.985
                             2 C    0.979
     4   7 N    2.947 --     5 N    1.585     2 C    0.972     7 C    0.118
                             6 C    0.116
     5   7 N    3.027 --     4 N    1.585     6 C    1.294
     6   6 C    3.856 --     7 C    1.357     5 N    1.294    10 O    0.936
                             4 N    0.116     8 O    0.109
     7   6 C    3.899 --     8 O    1.594     6 C    1.357     9 Cl   0.758
                             4 N    0.118
     8   8 O    1.949 --     7 C    1.594     9 Cl   0.116     6 C    0.109
     9  17 Cl   0.927 --     7 C    0.758     8 O    0.116
    10   8 O    2.057 --     6 C    0.936     2 C    0.927
    11   1 H    1.007 --     1 C    0.987
    12   1 H    1.011 --     1 C    0.985
    13   1 H    1.007 --     1 C    0.986
    14   1 H    1.006 --     3 C    0.986
    15   1 H    1.008 --     3 C    0.987
    16   1 H    1.011 --     3 C    0.985
 ---------------------------------------------------------------------------

           -------------------------------------------------
          | TOTAL ENERGY              -34.171460296068 Eh   |
          | GRADIENT NORM               0.000748775823 Eh/α |
          | HOMO-LUMO GAP               2.085972932415 eV   |
           -------------------------------------------------

 * finished run on 2023/06/20 at 14:52:31.732
