   * xtb version 6.5.1 (579679a) compiled by 'ehlert@majestix' on 2022-07-11
          program call               : /lustre/hpc/kemi/ree/PhD/git/ReactivityQM/dep/xtb-6.5.1/bin/xtb --gfn 1 /lustre/hpc/kemi/ree/PhD/git/ReactivityQM/calculations/R03/reac02prodN04/conf20/R03_reac02prodN04_conf20_gfn1.xyz --opt --vfukui --chrg 1 --uhf 0 --alpb DMSO

   ID    Z sym.   atoms
    1    6 C      1, 3, 5, 7-10, 12, 14, 17, 18, 21, 22, 24, 26
    2    8 O      2, 4, 13, 19, 23, 25
    3    7 N      6, 11, 15, 16, 20
    4    1 H      27-46

      * Solvation model:               ALPB
        Solvent                        DMSO
        Solvent mass                       7.8130E+01 g/mol
          :  Hamiltonian                  GFN1-xTB          :
 * total energy  :   -86.2857218 Eh     change       -0.1074341E-10 Eh
 * total energy  :   -86.3024667 Eh     change       -0.1674488E-01 Eh
 * total energy  :   -86.3089536 Eh     change       -0.6486848E-02 Eh
 * total energy  :   -86.3106078 Eh     change       -0.1654251E-02 Eh
 * total energy  :   -86.3118417 Eh     change       -0.1233920E-02 Eh
 * total energy  :   -86.3126178 Eh     change       -0.7761022E-03 Eh
 * total energy  :   -86.3131659 Eh     change       -0.5480708E-03 Eh
 * total energy  :   -86.3136335 Eh     change       -0.4676036E-03 Eh
 * total energy  :   -86.3139092 Eh     change       -0.2756749E-03 Eh
 * total energy  :   -86.3140514 Eh     change       -0.1422008E-03 Eh
 * total energy  :   -86.3156589 Eh     change        0.2580019E-04 Eh
 * total energy  :   -86.3157161 Eh     change       -0.5718001E-04 Eh
 * total energy  :   -86.3157237 Eh     change       -0.7637871E-05 Eh
 * total energy  :   -86.3157343 Eh     change       -0.1054338E-04 Eh
 * total energy  :   -86.3157420 Eh     change       -0.7704669E-05 Eh
 * total energy  :   -86.3157496 Eh     change       -0.7582513E-05 Eh
 * total energy  :   -86.3157562 Eh     change       -0.6662101E-05 Eh
 * total energy  :   -86.3157633 Eh     change       -0.7056813E-05 Eh
 * total energy  :   -86.3157682 Eh     change       -0.4911739E-05 Eh
   *** GEOMETRY OPTIMIZATION CONVERGED AFTER 61 ITERATIONS ***

 final structure:
================
46
 xtb: 6.5.1 (579679a)
C           -5.55670923257790        0.53023541464911       -2.55263247895171
O           -4.48523981356167        0.06939439641512       -1.69438271070101
C           -3.42781441008441        0.88442252856819       -1.57293327792305
O           -3.32914293434369        1.94189259279906       -2.12331882289671
C           -2.38470221492967        0.30624310459005       -0.65202943524056
N           -1.27080484964863        1.04981421311701       -0.53339861895047
C           -0.27933582791531        0.66612367854110        0.23170052586766
C            0.90393428091522        1.62108853237183        0.28104885131437
C            0.85532932489871        2.38528338984207        1.61431562336178
C            0.82194975999047        2.61036473166921       -0.89082234032000
N            2.13463337906193        0.83923970847721        0.14378661556540
C            3.37220529468319        1.39589719813639        0.21476325569448
O            3.61291152658708        2.53996621365301        0.54955579323060
C            4.43611519890491        0.42918076607585       -0.14347515914479
N            5.71187794733356        0.64352038582074       -0.22241014423301
N            6.28509349549396       -0.52983758843656       -0.60636995432699
C            5.32482083261078       -1.39106959764182       -0.73826252901910
C            5.42879856018574       -2.81190640180894       -1.13421756429884
O            4.12700039223540       -0.84816190782493       -0.46101971534179
N           -0.34146084944437       -0.47495579187661        0.95678700092894
C            0.69234057181019       -0.96744990223234        1.87533315672737
C           -1.44264917988911       -1.34563444245053        0.89978283878127
O           -1.46145139632709       -2.37015387937282        1.55486047357831
C           -2.48691058422911       -0.87348375799397        0.02865248217448
O           -3.61365580644937       -1.72984118604203       -0.12680295347647
C           -4.39469133471099       -2.07518858580369        1.06840485145792
H           -5.20732905940500        0.54251462189960       -3.58607284103204
H           -6.37065700288210       -0.17769857231541       -2.42633639091780
H           -5.85815748372138        1.53196728597019       -2.24353790809350
H            1.02102106204786        1.71978247598115        2.45774230998966
H            1.61682260640651        3.16291291386022        1.62253608934053
H           -0.12510441377929        2.84722011017879        1.71881458618596
H            0.82072471973642        2.06906215015860       -1.83503262111418
H           -0.09016171544329        3.19915553029422       -0.81754866744617
H            1.68221155779451        3.27709549021178       -0.85801564624189
H            2.05657545512863       -0.05323115394600       -0.31439823145844
H            6.45663548473213       -3.04436844134303       -1.40212823256780
H            4.77233883827538       -3.00970360075873       -1.98064672343195
H            5.11369891480586       -3.45070693392480       -0.30900001737562
H            0.22420301691061       -1.13055161283004        2.84574072693910
H            1.50572235333130       -0.25870051550081        1.96182132373938
H            1.05958145056838       -1.91882177156200        1.49208547884956
H           -4.20734447044295       -1.31007152308666       -0.82622130129203
H           -4.74867955796154       -1.16163134193673        1.54272559412846
H           -3.73661636897944       -2.64147980781108        1.72346800249324
H           -5.21792951771538       -2.68772811678041        0.71093270544570

          :  Hamiltonian                  GFN1-xTB          :
         :: total energy             -86.315768193953 Eh    ::
         :: gradient norm              0.000694134568 Eh/a0 ::
         :: HOMO-LUMO gap              2.320908401441 eV    ::
         :: SCC energy               -87.148570549766 Eh    ::
         :: -> Gsolv                  -0.125156578121 Eh    ::
         :: repulsion energy           0.861933360939 Eh    ::

    * Orbital Energies and Occupations

         #    Occupation            Energy/Eh            Energy/eV
      -------------------------------------------------------------
         1        2.0000           -0.9282441             -25.2588
       ...           ...                  ...                  ...
        58        2.0000           -0.5220098             -14.2046
        59        2.0000           -0.5205664             -14.1653
        60        2.0000           -0.5170149             -14.0687
        61        2.0000           -0.5107591             -13.8985
        62        2.0000           -0.5089923             -13.8504
        63        2.0000           -0.4948862             -13.4665
        64        2.0000           -0.4855206             -13.2117
        65        2.0000           -0.4828926             -13.1402
        66        2.0000           -0.4768347             -12.9753
        67        2.0000           -0.4740959             -12.9008
        68        2.0000           -0.4674856             -12.7209
        69        2.0000           -0.4580508             -12.4642
        70        2.0000           -0.4557722             -12.4022 (HOMO)
        71                         -0.3704803             -10.0813 (LUMO)
        72                         -0.3206788              -8.7261
        73                         -0.3193290              -8.6894
        74                         -0.2779293              -7.5628
        75                         -0.2616102              -7.1188
        76                         -0.2077385              -5.6529
        77                         -0.2060250              -5.6062
        78                         -0.1700807              -4.6281
        79                         -0.1689557              -4.5975
        80                         -0.1530225              -4.1640
        81                         -0.1527252              -4.1559
       ...                                ...                  ...
       144                          0.7337781              19.9671
      -------------------------------------------------------------
                  HL-Gap            0.0852918 Eh            2.3209 eV

Wiberg/Mayer (AO) data.
largest (>0.10) Wiberg bond orders for each atom

     #   Z sym  total        # sym  WBO       # sym  WBO       # sym  WBO
 ---------------------------------------------------------------------------
     1   6 C    3.827 --    28 H    0.985    29 H    0.978    27 H    0.978
                             2 O    0.851
     2   8 O    2.231 --     3 C    1.087     1 C    0.851     4 O    0.138
     3   6 C    3.848 --     4 O    1.730     2 O    1.087     5 C    0.962
     4   8 O    1.988 --     3 C    1.730     2 O    0.138
     5   6 C    3.972 --    24 C    1.512     6 N    1.269     3 C    0.962
     6   7 N    3.035 --     7 C    1.472     5 C    1.269
     7   6 C    3.916 --     6 N    1.472    20 N    1.261     8 C    0.979
     8   6 C    3.932 --    10 C    0.987     7 C    0.979     9 C    0.972
                            11 N    0.929
     9   6 C    3.984 --    32 H    0.984    30 H    0.980    31 H    0.974
                             8 C    0.972
    10   6 C    3.985 --     8 C    0.987    33 H    0.984    34 H    0.983
                            35 H    0.981
    11   7 N    3.326 --    12 C    1.220     8 C    0.929    36 H    0.894
                            13 O    0.168
    12   6 C    3.912 --    13 O    1.606    11 N    1.220    14 C    0.997
    13   8 O    1.921 --    12 C    1.606    11 N    0.168
    14   6 C    3.874 --    15 N    1.621    19 O    1.044    12 C    0.997
    15   7 N    3.003 --    14 C    1.621    16 N    1.202
    16   7 N    2.983 --    17 C    1.608    15 N    1.202
    17   6 C    3.866 --    16 N    1.608    19 O    1.071    18 C    1.032
    18   6 C    3.985 --    17 C    1.032    37 H    0.982    38 H    0.964
                            39 H    0.960
    19   8 O    2.314 --    17 C    1.071    14 C    1.044
    20   7 N    3.540 --     7 C    1.261    22 C    1.073    21 C    0.916
                            23 O    0.125
    21   6 C    3.900 --    41 H    0.976    42 H    0.970    40 H    0.970
                            20 N    0.916
    22   6 C    3.920 --    23 O    1.596    24 C    1.128    20 N    1.073
    23   8 O    1.935 --    22 C    1.596    20 N    0.125
    24   6 C    3.827 --     5 C    1.512    22 C    1.128    25 O    0.868
    25   8 O    2.438 --    24 C    0.868    26 C    0.792    43 H    0.685
    26   6 C    3.765 --    44 H    0.983    46 H    0.977    45 H    0.973
                            25 O    0.792
    27   1 H    1.000 --     1 C    0.978
    28   1 H    1.004 --     1 C    0.985
    29   1 H    1.001 --     1 C    0.978
    30   1 H    1.000 --     9 C    0.980
    31   1 H    1.009 --     9 C    0.974
    32   1 H    1.000 --     9 C    0.984
    33   1 H    1.004 --    10 C    0.984
    34   1 H    1.009 --    10 C    0.983
    35   1 H    1.004 --    10 C    0.981
    36   1 H    0.937 --    11 N    0.894
    37   1 H    0.998 --    18 C    0.982
    38   1 H    0.996 --    18 C    0.964
    39   1 H    0.996 --    18 C    0.960
    40   1 H    0.999 --    21 C    0.970
    41   1 H    1.007 --    21 C    0.976
    42   1 H    0.997 --    21 C    0.970
    43   1 H    0.799 --    25 O    0.685
    44   1 H    0.993 --    26 C    0.983
    45   1 H    1.006 --    26 C    0.973
    46   1 H    0.992 --    26 C    0.977
 ---------------------------------------------------------------------------

           -------------------------------------------------
          | TOTAL ENERGY              -86.315768193953 Eh   |
          | GRADIENT NORM               0.000694134568 Eh/α |
          | HOMO-LUMO GAP               2.320908401441 eV   |
           -------------------------------------------------

 * finished run on 2023/06/20 at 15:38:57.469
