   * xtb version 6.5.1 (579679a) compiled by 'ehlert@majestix' on 2022-07-11
          program call               : /lustre/hpc/kemi/ree/PhD/git/ReactivityQM/dep/xtb-6.5.1/bin/xtb --gfn 1 /lustre/hpc/kemi/ree/PhD/git/ReactivityQM/calculations/R02methylcation/reac01prodE09/conf07/R02methylcation_reac01prodE09_conf07_gfn1.xyz --opt --vfukui --chrg -2 --uhf 0 --alpb DMSO

   ID    Z sym.   atoms
    1    6 C      1, 3, 5, 7-10, 12, 14, 16, 17, 20, 22, 24
    2    8 O      2, 4, 13, 15, 23, 25
    3    7 N      6, 11, 18, 19, 21
    4    1 H      26-42

      * Solvation model:               ALPB
        Solvent                        DMSO
        Solvent mass                       7.8130E+01 g/mol
          :  Hamiltonian                  GFN1-xTB          :
 * total energy  :   -83.5984687 Eh     change       -0.2373554E-08 Eh
 * total energy  :   -83.6128128 Eh     change       -0.1434417E-01 Eh
 * total energy  :   -83.6183123 Eh     change       -0.5499432E-02 Eh
 * total energy  :   -83.6203740 Eh     change       -0.2061779E-02 Eh
 * total energy  :   -83.6239964 Eh     change       -0.3622355E-02 Eh
 * total energy  :   -83.6263221 Eh     change       -0.2325677E-02 Eh
 * total energy  :   -83.6292871 Eh     change       -0.2965050E-02 Eh
 * total energy  :   -83.6301462 Eh     change       -0.8590468E-03 Eh
 * total energy  :   -83.6315765 Eh     change       -0.1430365E-02 Eh
 * total energy  :   -83.6323944 Eh     change       -0.8178741E-03 Eh
 * total energy  :   -83.6348733 Eh     change       -0.1228768E-04 Eh
 * total energy  :   -83.6348882 Eh     change       -0.1492329E-04 Eh
 * total energy  :   -83.6349031 Eh     change       -0.1485494E-04 Eh
 * total energy  :   -83.6349167 Eh     change       -0.1366405E-04 Eh
 * total energy  :   -83.6349294 Eh     change       -0.1264012E-04 Eh
 * total energy  :   -83.6349413 Eh     change       -0.1194566E-04 Eh
 * total energy  :   -83.6349518 Eh     change       -0.1047719E-04 Eh
 * total energy  :   -83.6349602 Eh     change       -0.8365255E-05 Eh
 * total energy  :   -83.6349632 Eh     change       -0.3003059E-05 Eh
   *** GEOMETRY OPTIMIZATION CONVERGED AFTER 44 ITERATIONS ***

 final structure:
================
42
 xtb: 6.5.1 (579679a)
C            5.61183171740242        1.13831239115164        2.20369727766925
O            4.53857980565572        0.76209245508123        1.35680062594371
C            4.67511949192818        1.11549785464330        0.03688249274925
O            5.67801580609066        1.71058584464812       -0.33348070850294
C            3.54250935817634        0.70639850056364       -0.77012866758360
N            2.54055918296403        0.03559673753938       -0.08705786166068
C            1.49107734322033       -0.36510603538783       -0.70457765012277
C            0.40975824063597       -1.16944550206385       -0.00471884259782
C            0.45765414541339       -0.89312101220303        1.50578573203454
C            0.70568149823165       -2.65313722364455       -0.29087470435519
N           -0.86819138119664       -0.77038852388266       -0.60045023021086
C           -2.08299349354391       -1.30167008058314        0.01043298139376
O           -2.10383474210245       -2.48367441008964        0.48104588269386
C           -3.11012204575695       -0.40748942433535        0.08773179010001
O           -3.11263127042755        0.87881826181011       -0.53326161886386
C           -4.40173336626378        1.23157493404402       -0.56830545012188
C           -4.75598423836473        2.55438913400773       -1.15750360880081
N           -5.25059590896826        0.40516258967567       -0.08794453477668
N           -4.50964627717772       -0.74645038780114        0.36357866709110
C           -4.76873533552839       -0.91390504016779        1.80237012333766
N            1.32350687572742       -0.16166330818218       -2.05916338535002
C            2.22812949475007        0.47885957467962       -2.85640551209535
O            1.99785006009587        0.62129372077651       -4.05906799618801
C            3.47987752049038        0.96993196627481       -2.16402232001986
O            4.34807988223198        1.55622280272023       -2.84108425046054
H            5.35574081385204        0.81227100138733        3.21119166511437
H            5.75529543533772        2.22401272385243        2.19427906558841
H            6.54494496433701        0.65891529294207        1.88896001382424
H            0.22127261763319        0.15236651884339        1.70355001107026
H            1.45813020278885       -1.10137447904804        1.88513383815762
H           -0.26002667994080       -1.52566732105870        2.02647947659841
H            0.03092100421269       -3.29779281893179        0.26944753014999
H            0.58237967626373       -2.85500673192344       -1.35472458951830
H            1.73224345920646       -2.88327947187192       -0.00382769536584
H           -0.93140077036440        0.24517765928319       -0.60989498222598
H           -4.30125533522097        3.35497632969321       -0.57444598317191
H           -5.83601052417819        2.67942366602719       -1.15702459732175
H           -4.38199167419396        2.62574039405190       -2.17863672978105
H           -4.20288902571856       -1.78333917499845        2.13714293858599
H           -4.46321376672142       -0.03116667880980        2.37363979910999
H           -5.83398354063549       -1.09071926761498        1.94692762022856
H            0.46608077966220       -0.48322446109345       -2.48847761234853

          :  Hamiltonian                  GFN1-xTB          :
         :: total energy             -83.634963178755 Eh    ::
         :: gradient norm              0.000269745745 Eh/a0 ::
         :: HOMO-LUMO gap              0.781587359059 eV    ::
         :: SCC energy               -84.377785130413 Eh    ::
         :: -> Gsolv                  -0.260673619432 Eh    ::
         :: repulsion energy           0.768273538371 Eh    ::

    * Orbital Energies and Occupations

         #    Occupation            Energy/Eh            Energy/eV
      -------------------------------------------------------------
         1        2.0000           -0.7889040             -21.4672
       ...           ...                  ...                  ...
        56        2.0000           -0.4469614             -12.1624
        57        2.0000           -0.4419546             -12.0262
        58        2.0000           -0.4276585             -11.6372
        59        2.0000           -0.4244205             -11.5491
        60        2.0000           -0.4188580             -11.3977
        61        2.0000           -0.4111754             -11.1887
        62        2.0000           -0.4006441             -10.9021
        63        2.0000           -0.3818646             -10.3911
        64        2.0000           -0.3796907             -10.3319
        65        2.0000           -0.3656794              -9.9506
        66        2.0000           -0.3571159              -9.7176
        67        2.0000           -0.3520026              -9.5785
        68        2.0000           -0.2879426              -7.8353 (HOMO)
        69        0.0000           -0.2592198              -7.0537 (LUMO)
        70                         -0.2209272              -6.0117
        71                         -0.2053527              -5.5879
        72                         -0.1855961              -5.0503
        73                         -0.1292973              -3.5184
        74                         -0.1203368              -3.2745
        75                         -0.1179136              -3.2086
        76                         -0.0970983              -2.6422
        77                         -0.0922540              -2.5104
        78                         -0.0901596              -2.4534
        79                         -0.0877511              -2.3878
       ...                                ...                  ...
       134                          0.7699793              20.9522
      -------------------------------------------------------------
                  HL-Gap            0.0287228 Eh            0.7816 eV

Wiberg/Mayer (AO) data.
largest (>0.10) Wiberg bond orders for each atom

     #   Z sym  total        # sym  WBO       # sym  WBO       # sym  WBO
 ---------------------------------------------------------------------------
     1   6 C    3.903 --    26 H    0.987    28 H    0.980    27 H    0.980
                             2 O    0.932
     2   8 O    2.132 --     3 C    1.016     1 C    0.932     4 O    0.106
     3   6 C    3.848 --     4 O    1.582     5 C    1.131     2 O    1.016
     4   8 O    1.860 --     3 C    1.582     2 O    0.106
     5   6 C    3.919 --    24 C    1.273     6 N    1.145     3 C    1.131
                            25 O    0.130
     6   7 N    3.021 --     7 C    1.634     5 C    1.145
     7   6 C    3.926 --     6 N    1.634    21 N    1.095     8 C    0.976
     8   6 C    3.966 --     9 C    0.989    10 C    0.980     7 C    0.976
                            11 N    0.965
     9   6 C    3.996 --     8 C    0.989    29 H    0.987    30 H    0.985
                            31 H    0.984
    10   6 C    3.993 --    34 H    0.989    33 H    0.986     8 C    0.980
                            32 H    0.977
    11   7 N    3.075 --     8 C    0.965    12 C    0.947    35 H    0.941
    12   6 C    3.932 --    14 C    1.518    13 O    1.337    11 N    0.947
    13   8 O    1.701 --    12 C    1.337    14 C    0.172
    14   6 C    3.658 --    12 C    1.518    19 N    0.947    15 O    0.873
                            13 O    0.172
    15   8 O    2.190 --    16 C    1.087    14 C    0.873    18 N    0.133
    16   6 C    3.906 --    18 N    1.709    15 O    1.087    17 C    1.014
    17   6 C    3.995 --    16 C    1.014    37 H    0.987    38 H    0.974
                            36 H    0.972
    18   7 N    2.947 --    16 C    1.709    19 N    0.986    15 O    0.133
    19   7 N    3.063 --    18 N    0.986    20 C    0.969    14 C    0.947
    20   6 C    3.981 --    41 H    0.989    39 H    0.987    40 H    0.984
                            19 N    0.969
    21   7 N    3.438 --    22 C    1.179     7 C    1.095    42 H    0.893
                            23 O    0.136
    22   6 C    3.883 --    23 O    1.559    21 N    1.179    24 C    0.971
    23   8 O    1.838 --    22 C    1.559    21 N    0.136
    24   6 C    3.943 --    25 O    1.510     5 C    1.273    22 C    0.971
    25   8 O    1.813 --    24 C    1.510     5 C    0.130
    26   1 H    1.017 --     1 C    0.987
    27   1 H    1.015 --     1 C    0.980
    28   1 H    1.015 --     1 C    0.980
    29   1 H    1.009 --     9 C    0.987
    30   1 H    1.019 --     9 C    0.985
    31   1 H    1.016 --     9 C    0.984
    32   1 H    1.032 --    10 C    0.977
    33   1 H    1.012 --    10 C    0.986
    34   1 H    1.009 --    10 C    0.989
    35   1 H    0.982 --    11 N    0.941
    36   1 H    1.003 --    17 C    0.972
    37   1 H    1.006 --    17 C    0.987
    38   1 H    1.004 --    17 C    0.974
    39   1 H    1.033 --    20 C    0.987
    40   1 H    1.021 --    20 C    0.984
    41   1 H    1.025 --    20 C    0.989
    42   1 H    0.964 --    21 N    0.893
 ---------------------------------------------------------------------------

           -------------------------------------------------
          | TOTAL ENERGY              -83.634963178755 Eh   |
          | GRADIENT NORM               0.000269745745 Eh/α |
          | HOMO-LUMO GAP               0.781587359059 eV   |
           -------------------------------------------------

 * finished run on 2023/06/21 at 17:18:49.880
