   * xtb version 6.5.1 (579679a) compiled by 'ehlert@majestix' on 2022-07-11
          program call               : /lustre/hpc/kemi/ree/PhD/git/ReactivityQM/dep/xtb-6.5.1/bin/xtb --gfn 1 /lustre/hpc/kemi/ree/PhD/git/ReactivityQM/calculations/R02deprot/reac01prodN15/conf15/R02deprot_reac01prodN15_conf15_gfn1.xyz --opt --vfukui --chrg 0 --uhf 0 --alpb DMSO

   ID    Z sym.   atoms
    1    6 C      1, 3, 5, 6, 8, 9, 12-15, 17, 19, 22, 23
    2    8 O      2, 4, 7, 10, 18, 24
    3    7 N      11, 16, 20, 21, 25
    4    1 H      26-42

      * Solvation model:               ALPB
        Solvent                        DMSO
        Solvent mass                       7.8130E+01 g/mol
          :  Hamiltonian                  GFN1-xTB          :
 * total energy  :   -82.8618558 Eh     change       -0.1870148E-10 Eh
 * total energy  :   -82.8783438 Eh     change       -0.1648798E-01 Eh
 * total energy  :   -82.8941461 Eh     change       -0.1580235E-01 Eh
 * total energy  :   -82.9029981 Eh     change       -0.8851976E-02 Eh
 * total energy  :   -82.9309752 Eh     change       -0.2797717E-01 Eh
 * total energy  :   -82.9129372 Eh     change        0.1803809E-01 Eh
 * total energy  :   -82.9489869 Eh     change       -0.3604973E-01 Eh
 * total energy  :   -82.9274470 Eh     change        0.2153988E-01 Eh
 * total energy  :   -82.9511638 Eh     change       -0.2371675E-01 Eh
 * total energy  :   -82.9511659 Eh     change       -0.2143344E-05 Eh
 * total energy  :   -82.9862535 Eh     change       -0.9184264E-05 Eh
 * total energy  :   -82.9862642 Eh     change       -0.1071052E-04 Eh
 * total energy  :   -82.9862764 Eh     change       -0.1220507E-04 Eh
 * total energy  :   -82.9862879 Eh     change       -0.1149968E-04 Eh
 * total energy  :   -82.9862942 Eh     change       -0.6299296E-05 Eh
 * total energy  :   -82.9863011 Eh     change       -0.6871036E-05 Eh
 * total energy  :   -82.9863108 Eh     change       -0.9716531E-05 Eh
 * total energy  :   -82.9863187 Eh     change       -0.7901525E-05 Eh
 * total energy  :   -82.9863230 Eh     change       -0.4252368E-05 Eh
   *** GEOMETRY OPTIMIZATION CONVERGED AFTER 117 ITERATIONS ***

 final structure:
================
42
 xtb: 6.5.1 (579679a)
C           -1.84973279498560       -2.77642298378015        2.89430889255184
O           -1.66725817018053       -1.77626422534047        1.88704697774916
C           -2.75900268507008       -1.38701657827808        1.23859928425576
O           -3.87087969437508       -1.84864077137475        1.48413570060531
C           -2.53554650534640       -0.35660906587680        0.22618573934139
C           -3.60080598589607        0.05767590832503       -0.52793592671438
O           -4.83171692909674       -0.37795314931297       -0.35749937541714
C           -2.92703243580671        2.17457478202111       -1.12287386866199
C           -3.84713460817298        3.33170743722418       -1.27198927477263
O           -3.47292878768532        0.95612846600865       -1.54678002057180
N           -1.75247154223353        2.27449048459335       -0.68111661332106
C           -0.90082940122585        1.18946254982299       -0.46800306754472
C            0.55897079268080        1.53206064206973       -0.69662715973436
C            0.75153302086160        1.98215977445582       -2.15156659534729
C            0.96989912921739        2.64493209301873        0.27911927788214
N            1.33383431123727        0.32348340746360       -0.43772201596567
C            2.67337728593746        0.25733188380250       -0.51013630522847
O            3.41588014404591        1.17232703806954       -0.82870761119880
C            3.16241614488317       -1.10143402894083       -0.15115379663099
N            2.43017667354627       -2.12942721066126        0.15581905872864
N            3.28637156801606       -3.15998486049832        0.40968297058846
C            4.48634225363583       -2.69346582296182        0.24208786396204
C            5.76798292626426       -3.41421521173434        0.40704013397383
O            4.47434601754583       -1.40037385284606       -0.11374962398066
N           -1.21591201444738        0.04758240222058        0.00417939083617
H           -2.58300760558849       -2.43818796576641        3.62965967889881
H           -0.88052340666219       -2.92404413523527        3.36654698933191
H           -2.19687664066284       -3.70685507990531        2.43901260582689
H           -4.82800362638697       -1.04060363032432        0.39852026849510
H           -4.13300519258453        3.43649376683563       -2.31860249892666
H           -4.75529585326053        3.15060470577576       -0.69752098767492
H           -3.36335312983563        4.24139116396745       -0.92676685265815
H            0.10599358731756        2.83577350763897       -2.35136656755684
H            0.48963423653271        1.17092129479464       -2.82943298323729
H            1.78705300103734        2.27121636105942       -2.32187770921520
H            0.31673383865150        3.50402885114035        0.13678368993376
H            1.99995211282531        2.94424108274371        0.09367498490933
H            0.87755416100132        2.29384061429976        1.30575551472330
H            0.80804455442619       -0.49372631256377       -0.14451657298998
H            6.34379704388824       -3.36907117051797       -0.51695753110313
H            5.57309282650139       -4.45175094316624        0.66634459586015
H            6.35832837945220       -2.94638021826467        1.19494633999232

          :  Hamiltonian                  GFN1-xTB          :
         :: total energy             -82.986322950772 Eh    ::
         :: gradient norm              0.000295473311 Eh/a0 ::
         :: HOMO-LUMO gap              2.726342105662 eV    ::
         :: SCC energy               -83.764247256803 Eh    ::
         :: -> Gsolv                  -0.043574596064 Eh    ::
         :: repulsion energy           0.803314681560 Eh    ::

    * Orbital Energies and Occupations

         #    Occupation            Energy/Eh            Energy/eV
      -------------------------------------------------------------
         1        2.0000           -0.8623232             -23.4650
       ...           ...                  ...                  ...
        55        2.0000           -0.5042082             -13.7202
        56        2.0000           -0.5000272             -13.6064
        57        2.0000           -0.4980546             -13.5528
        58        2.0000           -0.4881432             -13.2831
        59        2.0000           -0.4819886             -13.1156
        60        2.0000           -0.4813834             -13.0991
        61        2.0000           -0.4746984             -12.9172
        62        2.0000           -0.4608849             -12.5413
        63        2.0000           -0.4584311             -12.4745
        64        2.0000           -0.4497081             -12.2372
        65        2.0000           -0.4440522             -12.0833
        66        2.0000           -0.4379445             -11.9171
        67        2.0000           -0.4176511             -11.3649 (HOMO)
        68                         -0.3174598              -8.6385 (LUMO)
        69                         -0.3073591              -8.3637
        70                         -0.2969710              -8.0810
        71                         -0.2559399              -6.9645
        72                         -0.2472584              -6.7282
        73                         -0.1955470              -5.3211
        74                         -0.1856467              -5.0517
        75                         -0.1432154              -3.8971
        76                         -0.1424025              -3.8750
        77                         -0.1385578              -3.7704
        78                         -0.1205924              -3.2815
       ...                                ...                  ...
       134                          0.7226205              19.6635
      -------------------------------------------------------------
                  HL-Gap            0.1001912 Eh            2.7263 eV

Wiberg/Mayer (AO) data.
largest (>0.10) Wiberg bond orders for each atom

     #   Z sym  total        # sym  WBO       # sym  WBO       # sym  WBO
 ---------------------------------------------------------------------------
     1   6 C    3.869 --    27 H    0.986    28 H    0.979    26 H    0.979
                             2 O    0.895
     2   8 O    2.209 --     3 C    1.124     1 C    0.895     4 O    0.116
     3   6 C    3.854 --     4 O    1.549     2 O    1.124     5 C    1.076
     4   8 O    1.941 --     3 C    1.549     2 O    0.116    29 H    0.104
     5   6 C    3.929 --     6 C    1.487    25 N    1.077     3 C    1.076
     6   6 C    3.850 --     5 C    1.487     7 O    1.163    10 O    0.986
     7   8 O    2.108 --     6 C    1.163    29 H    0.725
     8   6 C    3.876 --    11 N    1.777     9 C    1.028    10 O    0.908
     9   6 C    3.987 --     8 C    1.028    32 H    0.981    31 H    0.959
                            30 H    0.958
    10   8 O    2.113 --     6 C    0.986     8 C    0.908
    11   7 N    3.109 --     8 C    1.777    12 C    1.066
    12   6 C    3.940 --    25 N    1.709    11 N    1.066    13 C    0.979
    13   6 C    3.936 --    14 C    0.980    12 C    0.979    15 C    0.976
                            16 N    0.931
    14   6 C    3.990 --    34 H    0.986    33 H    0.985    35 H    0.981
                            13 C    0.980
    15   6 C    3.988 --    38 H    0.986    36 H    0.985    37 H    0.980
                            13 C    0.976
    16   7 N    3.363 --    17 C    1.272    13 C    0.931    39 H    0.879
                            18 O    0.182
    17   6 C    3.920 --    18 O    1.580    16 N    1.272    19 C    0.986
    18   8 O    1.899 --    17 C    1.580    16 N    0.182
    19   6 C    3.873 --    20 N    1.614    24 O    1.063    17 C    0.986
    20   7 N    3.013 --    19 C    1.614    21 N    1.197
    21   7 N    2.980 --    22 C    1.608    20 N    1.197
    22   6 C    3.872 --    21 N    1.608    24 O    1.082    23 C    1.031
    23   6 C    3.987 --    22 C    1.031    41 H    0.983    40 H    0.965
                            42 H    0.963
    24   8 O    2.328 --    22 C    1.082    19 C    1.063
    25   7 N    3.077 --    12 C    1.709     5 C    1.077
    26   1 H    1.007 --     1 C    0.979
    27   1 H    1.011 --     1 C    0.986
    28   1 H    1.007 --     1 C    0.979
    29   1 H    0.842 --     7 O    0.725     4 O    0.104
    30   1 H    0.997 --     9 C    0.958
    31   1 H    0.997 --     9 C    0.959
    32   1 H    1.000 --     9 C    0.981
    33   1 H    1.005 --    14 C    0.985
    34   1 H    1.003 --    14 C    0.986
    35   1 H    1.009 --    14 C    0.981
    36   1 H    1.010 --    15 C    0.985
    37   1 H    1.009 --    15 C    0.980
    38   1 H    1.002 --    15 C    0.986
    39   1 H    0.972 --    16 N    0.879
    40   1 H    0.997 --    23 C    0.965
    41   1 H    0.999 --    23 C    0.983
    42   1 H    0.997 --    23 C    0.963
 ---------------------------------------------------------------------------

           -------------------------------------------------
          | TOTAL ENERGY              -82.986322950772 Eh   |
          | GRADIENT NORM               0.000295473311 Eh/α |
          | HOMO-LUMO GAP               2.726342105662 eV   |
           -------------------------------------------------

 * finished run on 2023/06/20 at 18:24:21.561
