   * xtb version 6.5.1 (579679a) compiled by 'ehlert@majestix' on 2022-07-11
          program call               : /lustre/hpc/kemi/ree/PhD/git/ReactivityQM/dep/xtb-6.5.1/bin/xtb --gfn 1 /lustre/hpc/kemi/ree/PhD/git/ReactivityQM/calculations/R02methylcation/reac01prodE06/conf03/R02methylcation_reac01prodE06_conf03_gfn1.xyz --opt --vfukui --chrg -2 --uhf 0 --alpb DMSO

   ID    Z sym.   atoms
    1    6 C      1, 3, 5, 6, 8, 11-15, 17, 19, 22, 23
    2    8 O      2, 4, 7, 9, 18, 24
    3    7 N      10, 16, 20, 21, 25
    4    1 H      26-42

      * Solvation model:               ALPB
        Solvent                        DMSO
        Solvent mass                       7.8130E+01 g/mol
          :  Hamiltonian                  GFN1-xTB          :
 * total energy  :   -83.6047606 Eh     change       -0.8135714E-10 Eh
 * total energy  :   -83.6156487 Eh     change       -0.1088811E-01 Eh
 * total energy  :   -83.6192993 Eh     change       -0.3650554E-02 Eh
 * total energy  :   -83.6199896 Eh     change       -0.6902856E-03 Eh
 * total energy  :   -83.6206329 Eh     change       -0.6433002E-03 Eh
 * total energy  :   -83.6210963 Eh     change       -0.4633733E-03 Eh
 * total energy  :   -83.6215620 Eh     change       -0.4657022E-03 Eh
 * total energy  :   -83.6219944 Eh     change       -0.4324933E-03 Eh
 * total energy  :   -83.6223402 Eh     change       -0.3457979E-03 Eh
 * total energy  :   -83.6226064 Eh     change       -0.2661385E-03 Eh
 * total energy  :   -83.6242018 Eh     change       -0.2735226E-04 Eh
 * total energy  :   -83.6242244 Eh     change       -0.2263010E-04 Eh
 * total energy  :   -83.6242395 Eh     change       -0.1508240E-04 Eh
 * total energy  :   -83.6242493 Eh     change       -0.9758062E-05 Eh
 * total energy  :   -83.6242597 Eh     change       -0.1045372E-04 Eh
 * total energy  :   -83.6242648 Eh     change       -0.5039211E-05 Eh
 * total energy  :   -83.6242709 Eh     change       -0.6176328E-05 Eh
 * total energy  :   -83.6242767 Eh     change       -0.5753625E-05 Eh
 * total energy  :   -83.6242812 Eh     change       -0.4477777E-05 Eh
   *** GEOMETRY OPTIMIZATION CONVERGED AFTER 42 ITERATIONS ***

 final structure:
================
42
 xtb: 6.5.1 (579679a)
C           -3.64643854189936        3.57060946981744       -0.02957409966801
O           -3.54078132986834        2.15992337877758       -0.02142825068846
C           -2.30547443041743        1.66204672253017        0.31187882765653
O           -1.39233081298907        2.44982649296215        0.57208306811258
C           -2.19233776917716        0.21172023498184        0.32035933227870
C           -3.29398979779047       -0.64371648629887        0.02868237314853
O           -4.44513440065407       -0.27526080284553       -0.35968136989359
C           -3.04969267999625       -2.09971287076836        0.26978680401882
O           -3.94206786041871       -2.96300690058510        0.30089927849679
N           -1.75666899703831       -2.47902678275830        0.48699051169786
C           -0.61261583137774       -1.58471539204585        0.57898248834221
C            0.20286859827713       -1.99173597544516        1.82473882517635
C            0.28331194519599       -1.73213194905918       -0.73180079791648
C            0.99266113001866       -3.08812761467860       -0.81631000561646
C           -0.59260768385600       -1.53001579924080       -1.97769382340728
N            1.25160487360066       -0.65166820974837       -0.61304900827446
C            2.25742526973918       -0.42430848136389       -1.50002374210243
O            2.52063854821286       -1.16237439000989       -2.46905920776882
C            3.05676312594649        0.75186046206620       -1.19268255615749
N            4.03403735640185        1.26979133556515       -1.91642195121180
N            4.46979461331659        2.38041264778828       -1.24583980499088
C            3.75273675292502        2.48423002491915       -0.17359676988951
C            3.86789942879374        3.52001719425076        0.88136708984990
O            2.83483656785264        1.50057882766234       -0.06526716304588
N           -0.95051152579778       -0.21051184493485        0.71361508188861
H           -3.41899447252412        3.98970759656760        0.95722967850100
H           -2.96020111113050        4.01429280116307       -0.76037795195832
H           -4.67332017553885        3.81823286865782       -0.30012684655770
H           -1.60922039885579       -3.44222009781583        0.73552714333852
H            1.14008057953853       -1.43855702300115        1.84664522707377
H            0.41347009552913       -3.05901723648073        1.83485934245589
H           -0.37232338977898       -1.74059744581952        2.71498107436422
H            1.45203503090685       -3.22164304636551       -1.79582341984761
H            1.77313909893622       -3.16578475957327       -0.06101360149002
H            0.27206359575710       -3.89052702901745       -0.66275285843044
H           -1.32946766881799       -2.33012049532376       -2.04367634900692
H           -1.10961679772151       -0.57088620857244       -1.92965776808770
H            0.02521003625205       -1.55260628669772       -2.87491848791709
H            0.90246183901781        0.12697630392044       -0.04648219825768
H            4.09559207073374        3.05641569022652        1.84120157894376
H            4.66352054392441        4.21303136142707        0.62055287204483
H            2.93164457475594        4.06860571513395        0.98435743480240

          :  Hamiltonian                  GFN1-xTB          :
         :: total energy             -83.624281171639 Eh    ::
         :: gradient norm              0.000723480326 Eh/a0 ::
         :: HOMO-LUMO gap              0.152812708898 eV    ::
         :: SCC energy               -84.346348658893 Eh    ::
         :: -> Gsolv                  -0.270143221064 Eh    ::
         :: repulsion energy           0.749893442665 Eh    ::

    * Orbital Energies and Occupations

         #    Occupation            Energy/Eh            Energy/eV
      -------------------------------------------------------------
         1        2.0000           -0.8177812             -22.2530
       ...           ...                  ...                  ...
        56        2.0000           -0.4416022             -12.0166
        57        2.0000           -0.4393161             -11.9544
        58        2.0000           -0.4193134             -11.4101
        59        2.0000           -0.4154064             -11.3038
        60        2.0000           -0.4126990             -11.2301
        61        2.0000           -0.4066726             -11.0661
        62        2.0000           -0.4030592             -10.9678
        63        2.0000           -0.3953407             -10.7578
        64        2.0000           -0.3883240             -10.5668
        65        2.0000           -0.3753622             -10.2141
        66        2.0000           -0.3655066              -9.9459
        67        2.0000           -0.3339329              -9.0868
        68        1.9010           -0.2750196              -7.4837 (HOMO)
        69        0.0990           -0.2694038              -7.3309 (LUMO)
        70                         -0.2339422              -6.3659
        71                         -0.2210431              -6.0149
        72                         -0.1622887              -4.4161
        73                         -0.1507356              -4.1017
        74                         -0.1277742              -3.4769
        75                         -0.1105567              -3.0084
        76                         -0.1046334              -2.8472
        77                         -0.0922185              -2.5094
        78                         -0.0861767              -2.3450
        79                         -0.0782562              -2.1295
       ...                                ...                  ...
       134                          0.7398459              20.1322
      -------------------------------------------------------------
                  HL-Gap            0.0056158 Eh            0.1528 eV

Wiberg/Mayer (AO) data.
largest (>0.10) Wiberg bond orders for each atom

     #   Z sym  total        # sym  WBO       # sym  WBO       # sym  WBO
 ---------------------------------------------------------------------------
     1   6 C    3.913 --    28 H    0.987    26 H    0.980    27 H    0.980
                             2 O    0.940
     2   8 O    2.133 --     3 C    1.011     1 C    0.940
     3   6 C    3.820 --     4 O    1.545     5 C    1.122     2 O    1.011
     4   8 O    1.824 --     3 C    1.545
     5   6 C    3.920 --     6 C    1.244    25 N    1.243     3 C    1.122
                             7 O    0.102
     6   6 C    3.882 --     7 O    1.415     5 C    1.244     8 C    1.000
     7   8 O    1.667 --     6 C    1.415     5 C    0.102
     8   6 C    3.866 --     9 O    1.517    10 N    1.187     6 C    1.000
     9   8 O    1.785 --     8 C    1.517    10 N    0.138
    10   7 N    3.284 --     8 C    1.187    11 C    0.926    29 H    0.914
                             9 O    0.138
    11   6 C    3.939 --    25 N    1.044    12 C    0.980    10 N    0.926
                            13 C    0.906
    12   6 C    3.990 --    31 H    0.986    32 H    0.985    30 H    0.985
                            11 C    0.980
    13   6 C    3.930 --    14 C    0.999    15 C    0.991    16 N    0.946
                            11 C    0.906
    14   6 C    3.995 --    13 C    0.999    35 H    0.986    34 H    0.985
                            33 H    0.980
    15   6 C    3.994 --    13 C    0.991    36 H    0.986    38 H    0.984
                            37 H    0.982
    16   7 N    3.306 --    17 C    1.205    13 C    0.946    39 H    0.877
                            18 O    0.145
    17   6 C    3.869 --    18 O    1.461    16 N    1.205    19 C    1.075
    18   8 O    1.760 --    17 C    1.461    16 N    0.145
    19   6 C    3.780 --    20 N    1.486    17 C    1.075    24 O    0.999
    20   7 N    2.820 --    19 C    1.486    21 N    1.186
    21   7 N    2.978 --    22 C    1.626    20 N    1.186
    22   6 C    3.837 --    21 N    1.626    24 O    1.058    23 C    1.026
    23   6 C    3.993 --    22 C    1.026    41 H    0.985    40 H    0.969
                            42 H    0.969
    24   8 O    2.249 --    22 C    1.058    19 C    0.999
    25   7 N    2.761 --     5 C    1.243    11 C    1.044
    26   1 H    1.018 --     1 C    0.980
    27   1 H    1.018 --     1 C    0.980
    28   1 H    1.018 --     1 C    0.987
    29   1 H    0.963 --    10 N    0.914
    30   1 H    1.015 --    12 C    0.985
    31   1 H    1.006 --    12 C    0.986
    32   1 H    1.018 --    12 C    0.985
    33   1 H    1.020 --    14 C    0.980
    34   1 H    1.009 --    14 C    0.985
    35   1 H    1.006 --    14 C    0.986
    36   1 H    1.011 --    15 C    0.986
    37   1 H    1.015 --    15 C    0.982
    38   1 H    1.015 --    15 C    0.984
    39   1 H    0.986 --    16 N    0.877
    40   1 H    1.000 --    23 C    0.969
    41   1 H    1.003 --    23 C    0.985
    42   1 H    0.999 --    23 C    0.969
 ---------------------------------------------------------------------------

           -------------------------------------------------
          | TOTAL ENERGY              -83.624281171639 Eh   |
          | GRADIENT NORM               0.000723480326 Eh/α |
          | HOMO-LUMO GAP               0.152812708898 eV   |
           -------------------------------------------------

 * finished run on 2023/06/21 at 17:15:23.139
