   * xtb version 6.5.1 (579679a) compiled by 'ehlert@majestix' on 2022-07-11
          program call               : /lustre/hpc/kemi/ree/PhD/git/ReactivityQM/dep/xtb-6.5.1/bin/xtb --gfn 1 /lustre/hpc/kemi/ree/PhD/git/ReactivityQM/calculations/R01/reac02prodE03/conf12/R01_reac02prodE03_conf12_gfn1.xyz --opt --vfukui --chrg -1 --uhf 0 --alpb DMSO

   ID    Z sym.   atoms
    1    6 C      1, 3, 5, 6, 8-11, 14, 16
    2    8 O      2, 4, 15, 17
    3    7 N      7, 12, 13
    4    1 H      18-33

      * Solvation model:               ALPB
        Solvent                        DMSO
        Solvent mass                       7.8130E+01 g/mol
          :  Hamiltonian                  GFN1-xTB          :
 * total energy  :   -58.5293217 Eh     change       -0.3538503E-11 Eh
 * total energy  :   -58.5431594 Eh     change       -0.1383768E-01 Eh
 * total energy  :   -58.5470285 Eh     change       -0.3869113E-02 Eh
 * total energy  :   -58.5476393 Eh     change       -0.6107618E-03 Eh
 * total energy  :   -58.5479963 Eh     change       -0.3570130E-03 Eh
 * total energy  :   -58.5480935 Eh     change       -0.9718700E-04 Eh
 * total energy  :   -58.5481708 Eh     change       -0.7735037E-04 Eh
 * total energy  :   -58.5482242 Eh     change       -0.5341331E-04 Eh
 * total energy  :   -58.5482832 Eh     change       -0.5895803E-04 Eh
 * total energy  :   -58.5483593 Eh     change       -0.7615680E-04 Eh
 * total energy  :   -58.5502600 Eh     change       -0.8031320E-05 Eh
 * total energy  :   -58.5502749 Eh     change       -0.1490592E-04 Eh
 * total energy  :   -58.5502968 Eh     change       -0.2182454E-04 Eh
 * total energy  :   -58.5503173 Eh     change       -0.2049261E-04 Eh
 * total energy  :   -58.5503373 Eh     change       -0.2007523E-04 Eh
 * total energy  :   -58.5503461 Eh     change       -0.8745076E-05 Eh
 * total energy  :   -58.5503554 Eh     change       -0.9320931E-05 Eh
 * total energy  :   -58.5503607 Eh     change       -0.5265371E-05 Eh
 * total energy  :   -58.5503647 Eh     change       -0.4008306E-05 Eh
   *** GEOMETRY OPTIMIZATION CONVERGED AFTER 47 ITERATIONS ***

 final structure:
================
33
 xtb: 6.5.1 (579679a)
C            2.77912093577483        2.36487812617341        0.10586573293468
O            1.81225975192170        1.32002771457061        0.15978549123893
C            2.28813345083057        0.08548817064025        0.42611181160921
O            3.47322392719336       -0.10929044913709        0.63944897295659
C            1.24043506243899       -1.02299334854022        0.27638031767859
C            1.64427681057535       -2.22347729068607        1.14184380717070
N           -0.08040157195476       -0.55582314729134        0.69145391467007
C           -0.84438923810743       -0.01427982441377       -0.18592205479776
C           -2.20250897656077        0.49719808718418        0.30025292767411
C           -3.12115926102153       -0.71366884235162        0.51279249065007
C           -2.00554348248637        1.25088233949542        1.62270559955218
N           -2.84815149225666        1.39911458011771       -0.64574062498259
N           -0.53649392051191        0.12863849855583       -1.49967294234062
C            0.46016971170293       -0.74360124759757       -2.10552561434248
O            0.41093786186261       -0.89992965238565       -3.35879291984993
C            1.29424525894329       -1.32021381743966       -1.19926494685809
O            2.30038351322135       -2.22984859317709       -1.61829373954580
H            3.53326767054824        2.15361408691303       -0.65834879189580
H            2.24641631264129        3.28139488971514       -0.14202268814034
H            3.27707665805902        2.47619524392954        1.07375182164115
H            2.66135531866230       -2.53280832686109        0.90235438194556
H            0.96557522519152       -3.05488301821404        0.95652713352048
H            1.59169962301005       -1.95381142648507        2.19659767499136
H           -3.24978836791486       -1.25744502826874       -0.42308880335181
H           -4.09936895006669       -0.38322655081300        0.86138887642212
H           -2.68621211918927       -1.38577963881048        1.25256371464204
H           -1.37054945412051        2.12267492337109        1.46360582824516
H           -1.52813054647948        0.59941492105872        2.35515154934906
H           -2.96839938549934        1.58386332265463        2.00881411218874
H           -3.16683064709138        0.89913215245075       -1.46330997801029
H           -2.21205505071847        2.12824346064507       -0.93983890740597
H           -1.26270300899829        0.42535678756706       -2.13049799360819
H            2.20410738040253       -2.31503610256900       -2.57707815394781

          :  Hamiltonian                  GFN1-xTB          :
         :: total energy             -58.550364674687 Eh    ::
         :: gradient norm              0.000613884374 Eh/a0 ::
         :: HOMO-LUMO gap              2.015619071400 eV    ::
         :: SCC energy               -59.093243613027 Eh    ::
         :: -> Gsolv                  -0.106156486745 Eh    ::
         :: repulsion energy           0.562734962855 Eh    ::

    * Orbital Energies and Occupations

         #    Occupation            Energy/Eh            Energy/eV
      -------------------------------------------------------------
         1        2.0000           -0.8072590             -21.9666
       ...           ...                  ...                  ...
        36        2.0000           -0.4802076             -13.0671
        37        2.0000           -0.4734772             -12.8840
        38        2.0000           -0.4724924             -12.8572
        39        2.0000           -0.4682397             -12.7415
        40        2.0000           -0.4610994             -12.5472
        41        2.0000           -0.4598797             -12.5140
        42        2.0000           -0.4476866             -12.1822
        43        2.0000           -0.4326442             -11.7728
        44        2.0000           -0.3995938             -10.8735
        45        2.0000           -0.3866043             -10.5200
        46        2.0000           -0.3790416             -10.3142
        47        2.0000           -0.3699575             -10.0671
        48        2.0000           -0.3054986              -8.3130 (HOMO)
        49                         -0.2314260              -6.2974 (LUMO)
        50                         -0.2097397              -5.7073
        51                         -0.1266170              -3.4454
        52                         -0.1245467              -3.3891
        53                         -0.1101626              -2.9977
        54                         -0.1087766              -2.9600
        55                         -0.0955323              -2.5996
        56                         -0.0933450              -2.5400
        57                         -0.0642139              -1.7473
        58                         -0.0632839              -1.7220
        59                         -0.0598823              -1.6295
       ...                                ...                  ...
       100                          0.7089969              19.2928
      -------------------------------------------------------------
                  HL-Gap            0.0740726 Eh            2.0156 eV

Wiberg/Mayer (AO) data.
largest (>0.10) Wiberg bond orders for each atom

     #   Z sym  total        # sym  WBO       # sym  WBO       # sym  WBO
 ---------------------------------------------------------------------------
     1   6 C    3.894 --    19 H    0.987    20 H    0.981    18 H    0.981
                             2 O    0.916
     2   8 O    2.169 --     3 C    1.071     1 C    0.916     4 O    0.114
     3   6 C    3.811 --     4 O    1.622     2 O    1.071     5 C    0.923
     4   8 O    1.892 --     3 C    1.622     2 O    0.114
     5   6 C    3.967 --     6 C    0.989     7 N    0.973    16 C    0.953
                             3 C    0.923
     6   6 C    3.997 --     5 C    0.989    23 H    0.988    22 H    0.987
                            21 H    0.985
     7   7 N    2.966 --     8 C    1.663     5 C    0.973    13 N    0.159
     8   6 C    3.946 --     7 N    1.663    13 N    1.196     9 C    0.958
     9   6 C    3.966 --    11 C    0.993    10 C    0.988    12 N    0.987
                             8 C    0.958
    10   6 C    3.996 --     9 C    0.988    26 H    0.986    25 H    0.986
                            24 H    0.986
    11   6 C    3.997 --     9 C    0.993    29 H    0.987    27 H    0.986
                            28 H    0.985
    12   7 N    2.955 --     9 C    0.987    31 H    0.946    30 H    0.944
    13   7 N    3.311 --     8 C    1.196    32 H    0.911    14 C    0.907
                             7 N    0.159
    14   6 C    3.919 --    16 C    1.513    15 O    1.362    13 N    0.907
    15   8 O    1.706 --    14 C    1.362    16 C    0.169
    16   6 C    3.792 --    14 C    1.513     5 C    0.953    17 O    0.942
                            15 O    0.169
    17   8 O    1.914 --    16 C    0.942    33 H    0.859
    18   1 H    1.012 --     1 C    0.981
    19   1 H    1.015 --     1 C    0.987
    20   1 H    1.013 --     1 C    0.981
    21   1 H    1.017 --     6 C    0.985
    22   1 H    1.012 --     6 C    0.987
    23   1 H    1.011 --     6 C    0.988
    24   1 H    1.004 --    10 C    0.986
    25   1 H    1.006 --    10 C    0.986
    26   1 H    1.011 --    10 C    0.986
    27   1 H    1.007 --    11 C    0.986
    28   1 H    1.022 --    11 C    0.985
    29   1 H    1.009 --    11 C    0.987
    30   1 H    0.962 --    12 N    0.944
    31   1 H    0.963 --    12 N    0.946
    32   1 H    0.963 --    13 N    0.911
    33   1 H    0.892 --    17 O    0.859
 ---------------------------------------------------------------------------

           -------------------------------------------------
          | TOTAL ENERGY              -58.550364674687 Eh   |
          | GRADIENT NORM               0.000613884374 Eh/α |
          | HOMO-LUMO GAP               2.015619071400 eV   |
           -------------------------------------------------

 * finished run on 2023/06/20 at 14:58:51.945
