   * xtb version 6.5.1 (579679a) compiled by 'ehlert@majestix' on 2022-07-11
          program call               : /lustre/hpc/kemi/ree/PhD/git/ReactivityQM/dep/xtb-6.5.1/bin/xtb --gfn 1 /lustre/hpc/kemi/ree/PhD/git/ReactivityQM/calculations/RaltegravirCLI/reac02prodN09/conf11/RaltegravirCLI_reac02prodN09_conf11_gfn1.xyz --opt --vfukui --chrg 1 --uhf 0 --alpb DMSO

   ID    Z sym.   atoms
    1    6 C      1-4, 6-9, 11, 13, 15-18, 21, 22, 24
    2    9 F      5
    3    7 N      10, 14, 19, 20
    4    8 O      12, 23, 25
    5    1 H      26-47

      * Solvation model:               ALPB
        Solvent                        DMSO
        Solvent mass                       7.8130E+01 g/mol
          :  Hamiltonian                  GFN1-xTB          :
 * total energy  :   -79.4729359 Eh     change       -0.2205525E-10 Eh
 * total energy  :   -79.4817063 Eh     change       -0.8770452E-02 Eh
 * total energy  :   -79.4841990 Eh     change       -0.2492666E-02 Eh
 * total energy  :   -79.4846664 Eh     change       -0.4674270E-03 Eh
 * total energy  :   -79.4851469 Eh     change       -0.4804624E-03 Eh
 * total energy  :   -79.4853997 Eh     change       -0.2528783E-03 Eh
 * total energy  :   -79.4856301 Eh     change       -0.2303737E-03 Eh
 * total energy  :   -79.4858409 Eh     change       -0.2108168E-03 Eh
 * total energy  :   -79.4859924 Eh     change       -0.1514740E-03 Eh
 * total energy  :   -79.4861158 Eh     change       -0.1234354E-03 Eh
 * total energy  :   -79.5228440 Eh     change       -0.1602804E-04 Eh
 * total energy  :   -79.5228576 Eh     change       -0.1361913E-04 Eh
 * total energy  :   -79.5228708 Eh     change       -0.1312134E-04 Eh
 * total energy  :   -79.5228843 Eh     change       -0.1355650E-04 Eh
 * total energy  :   -79.5228972 Eh     change       -0.1287416E-04 Eh
 * total energy  :   -79.5229073 Eh     change       -0.1015203E-04 Eh
 * total energy  :   -79.5229145 Eh     change       -0.7204865E-05 Eh
 * total energy  :   -79.5229200 Eh     change       -0.5461643E-05 Eh
 * total energy  :   -79.5229245 Eh     change       -0.4480270E-05 Eh
   *** GEOMETRY OPTIMIZATION CONVERGED AFTER 134 ITERATIONS ***

 final structure:
================
47
 xtb: 6.5.1 (579679a)
C            3.44820414353833        0.61004167423135       -1.97538611177718
C            4.09530145286541        0.88605733392031       -0.61186710376529
C            5.27247792055427       -0.02640593697921       -0.37985626050066
C            5.58212578805363       -0.43548344720591        0.84775615807799
F            6.66188154974095       -1.19847978044299        1.06341999946418
C            4.80901795287542       -0.09541463222992        2.02011268183970
C            3.63945755923448        0.53309016717451        1.88453196442170
C            3.05356436890840        0.84107694473274        0.52624545658600
C            2.15799117007853        2.10341302141466        0.55337053519797
N            0.82760298985135        1.53896824314746        0.41766476935754
C            0.86780155598118        0.24573873745368        0.24178081684804
O            2.08012206646234       -0.24150536398717        0.25584437834920
C           -0.30410665616166       -0.56252021291364        0.04545059447655
N           -1.47541868846294        0.14139315656223        0.10379207502600
C           -2.61874257634858       -0.45366056390300       -0.06672254736153
C           -3.85101665338001        0.42318825004328        0.11466147082850
C           -4.53963715798859        0.04112641512292        1.43338645820427
C           -3.42024144780675        1.89674146789697        0.17523029575569
N           -4.77973772275919        0.23484947239059       -0.99529569177540
N           -2.68963867667724       -1.79464278839820       -0.32032510596103
C           -3.94517270002661       -2.52745129194933       -0.53365215195314
C           -1.56650360348833       -2.61484849529372       -0.37671124916886
O           -1.66960277620545       -3.81220700023467       -0.57707266944878
C           -0.29148359580827       -1.91973952034769       -0.17567696773663
O            0.79438430581362       -2.68309232205949       -0.22370866309246
H            2.59494213685073        1.26867477668900       -2.12734609917795
H            4.17572876625510        0.79056450676850       -2.76525551089427
H            3.10936802691480       -0.42285448449811       -2.03402409577255
H            4.48675661487648        1.91468231626367       -0.62653505121160
H            5.88355244623268       -0.27521195660139       -1.23744204612490
H            5.20694496866874       -0.36298530043822        2.99136521951952
H            3.01563205263142        0.77361468674149        2.73558365900555
H            2.23566222352886        2.65299310559406        1.49349753357104
H            2.35095954040246        2.78558367864683       -0.27820825248878
H           -0.02300795799808        2.07993635355767        0.42086633766708
H           -3.83139647274494        0.12149605331572        2.25707003152254
H           -5.36995472798557        0.72168764584620        1.61613533028841
H           -4.92434084614060       -0.97617874309772        1.39590239138853
H           -2.77551954276972        2.07106452056986        1.03447800484466
H           -4.30360169538669        2.52754783451019        0.25890101605477
H           -2.87840735849388        2.16478753175221       -0.72951163059728
H           -5.61865717782156        0.76733705481296       -0.80694480456963
H           -4.36368995147591        0.60596018645759       -1.83836839643247
H           -4.74277603633230       -1.83158466598185       -0.77431353248477
H           -4.18411128684386       -3.09251923125263        0.36760804641850
H           -3.79584133725182       -3.22049613392736       -1.36242987653679
H            1.61312704603236       -2.19433426386169       -0.04345240588306

          :  Hamiltonian                  GFN1-xTB          :
         :: total energy             -79.522924489273 Eh    ::
         :: gradient norm              0.000321603589 Eh/a0 ::
         :: HOMO-LUMO gap              1.567776813046 eV    ::
         :: SCC energy               -80.389745391442 Eh    ::
         :: -> Gsolv                  -0.109497765799 Eh    ::
         :: repulsion energy           0.898230647067 Eh    ::

    * Orbital Energies and Occupations

         #    Occupation            Energy/Eh            Energy/eV
      -------------------------------------------------------------
         1        2.0000           -0.8942939             -24.3350
       ...           ...                  ...                  ...
        55        2.0000           -0.5140454             -13.9879
        56        2.0000           -0.5102266             -13.8840
        57        2.0000           -0.5087703             -13.8443
        58        2.0000           -0.5068264             -13.7914
        59        2.0000           -0.5039682             -13.7137
        60        2.0000           -0.4983019             -13.5595
        61        2.0000           -0.4889332             -13.3046
        62        2.0000           -0.4858267             -13.2200
        63        2.0000           -0.4772989             -12.9880
        64        2.0000           -0.4701409             -12.7932
        65        2.0000           -0.4482785             -12.1983
        66        2.0000           -0.4432546             -12.0616
        67        2.0000           -0.4228924             -11.5075 (HOMO)
        68                         -0.3652776              -9.9397 (LUMO)
        69                         -0.3210664              -8.7367
        70                         -0.3022390              -8.2243
        71                         -0.2757307              -7.5030
        72                         -0.2144105              -5.8344
        73                         -0.1840961              -5.0095
        74                         -0.1566875              -4.2637
        75                         -0.1450040              -3.9458
        76                         -0.1418634              -3.8603
        77                         -0.1412492              -3.8436
        78                         -0.1324192              -3.6033
       ...                                ...                  ...
       144                          0.6891855              18.7537
      -------------------------------------------------------------
                  HL-Gap            0.0576147 Eh            1.5678 eV

Wiberg/Mayer (AO) data.
largest (>0.10) Wiberg bond orders for each atom

     #   Z sym  total        # sym  WBO       # sym  WBO       # sym  WBO
 ---------------------------------------------------------------------------
     1   6 C    3.990 --     2 C    0.997    28 H    0.986    26 H    0.984
                            27 H    0.983
     2   6 C    3.987 --     3 C    1.011     1 C    0.997     8 C    0.971
                            29 H    0.944
     3   6 C    3.987 --     4 C    1.769     2 C    1.011    30 H    0.964
                             7 C    0.121
     4   6 C    3.868 --     3 C    1.769     6 C    1.100     5 F    0.933
     5   9 F    1.066 --     4 C    0.933
     6   6 C    3.988 --     7 C    1.847     4 C    1.100    31 H    0.963
     7   6 C    3.985 --     6 C    1.847     8 C    0.991    32 H    0.965
                             3 C    0.121
     8   6 C    3.846 --     7 C    0.991     9 C    0.978     2 C    0.971
                            12 O    0.820
     9   6 C    3.925 --     8 C    0.978    33 H    0.964    34 H    0.963
                            10 N    0.942
    10   7 N    3.474 --    11 C    1.446     9 C    0.942    35 H    0.864
                            12 O    0.103
    11   6 C    3.869 --    10 N    1.446    12 O    1.172    13 C    1.111
    12   8 O    2.242 --    11 C    1.172     8 C    0.820    10 N    0.103
    13   6 C    3.957 --    24 C    1.433    14 N    1.172    11 C    1.111
    14   7 N    3.028 --    15 C    1.545    13 C    1.172
    15   6 C    3.912 --    14 N    1.545    20 N    1.192    16 C    0.975
    16   6 C    3.964 --    18 C    0.991    19 N    0.983    17 C    0.980
                            15 C    0.975
    17   6 C    3.992 --    36 H    0.985    38 H    0.982    37 H    0.981
                            16 C    0.980
    18   6 C    3.993 --    16 C    0.991    41 H    0.984    40 H    0.984
                            39 H    0.983
    19   7 N    2.996 --    16 C    0.983    43 H    0.938    42 H    0.936
    20   7 N    3.522 --    15 C    1.192    22 C    1.120    21 C    0.920
                            23 O    0.140
    21   6 C    3.908 --    46 H    0.975    45 H    0.975    44 H    0.965
                            20 N    0.920
    22   6 C    3.918 --    23 O    1.601    20 N    1.120    24 C    1.054
    23   8 O    1.913 --    22 C    1.601    20 N    0.140
    24   6 C    3.912 --    13 C    1.433    25 O    1.135    22 C    1.054
    25   8 O    2.125 --    24 C    1.135    47 H    0.806
    26   1 H    0.997 --     1 C    0.984
    27   1 H    0.999 --     1 C    0.983
    28   1 H    1.004 --     1 C    0.986
    29   1 H    1.001 --     2 C    0.944
    30   1 H    0.992 --     3 C    0.964
    31   1 H    0.994 --     6 C    0.963
    32   1 H    0.993 --     7 C    0.965
    33   1 H    0.994 --     9 C    0.964
    34   1 H    0.993 --     9 C    0.963
    35   1 H    0.917 --    10 N    0.864
    36   1 H    1.002 --    17 C    0.985
    37   1 H    0.998 --    17 C    0.981
    38   1 H    1.002 --    17 C    0.982
    39   1 H    1.010 --    18 C    0.983
    40   1 H    1.001 --    18 C    0.984
    41   1 H    1.007 --    18 C    0.984
    42   1 H    0.950 --    19 N    0.936
    43   1 H    0.953 --    19 N    0.938
    44   1 H    1.026 --    21 C    0.965
    45   1 H    1.001 --    21 C    0.975
    46   1 H    1.005 --    21 C    0.975
    47   1 H    0.846 --    25 O    0.806
 ---------------------------------------------------------------------------

           -------------------------------------------------
          | TOTAL ENERGY              -79.522924489273 Eh   |
          | GRADIENT NORM               0.000321603589 Eh/α |
          | HOMO-LUMO GAP               1.567776813046 eV   |
           -------------------------------------------------

 * finished run on 2023/06/20 at 15:28:48.209
