   * xtb version 6.5.1 (579679a) compiled by 'ehlert@majestix' on 2022-07-11
          program call               : /lustre/hpc/kemi/ree/PhD/git/ReactivityQM/dep/xtb-6.5.1/bin/xtb --gfn 1 /lustre/hpc/kemi/ree/PhD/git/ReactivityQM/calculations/R02methylcation/reac01prodN09/conf12/R02methylcation_reac01prodN09_conf12_gfn1.xyz --opt --vfukui --chrg 0 --uhf 0 --alpb DMSO

   ID    Z sym.   atoms
    1    6 C      1, 3, 4, 6, 8-11, 13, 15, 18, 19, 22, 24
    2    8 O      2, 5, 14, 20, 23, 25
    3    7 N      7, 12, 16, 17, 21
    4    1 H      26-42

      * Solvation model:               ALPB
        Solvent                        DMSO
        Solvent mass                       7.8130E+01 g/mol
          :  Hamiltonian                  GFN1-xTB          :
 * total energy  :   -82.8678762 Eh     change       -0.2033289E-09 Eh
 * total energy  :   -82.8825258 Eh     change       -0.1464962E-01 Eh
 * total energy  :   -82.8996722 Eh     change       -0.1714638E-01 Eh
 * total energy  :   -82.9125924 Eh     change       -0.1292018E-01 Eh
 * total energy  :   -82.9317448 Eh     change       -0.1915236E-01 Eh
 * total energy  :   -82.9521181 Eh     change       -0.2037337E-01 Eh
 * total energy  :   -82.9536502 Eh     change       -0.1532073E-02 Eh
 * total energy  :   -82.9639224 Eh     change       -0.1027216E-01 Eh
 * total energy  :   -82.9644609 Eh     change       -0.5384997E-03 Eh
 * total energy  :   -82.9672165 Eh     change       -0.2755654E-02 Eh
 * total energy  :   -82.9784717 Eh     change       -0.3037931E-04 Eh
 * total energy  :   -82.9784989 Eh     change       -0.2715647E-04 Eh
 * total energy  :   -82.9785205 Eh     change       -0.2155512E-04 Eh
 * total energy  :   -82.9785441 Eh     change       -0.2367469E-04 Eh
 * total energy  :   -82.9785694 Eh     change       -0.2530880E-04 Eh
 * total energy  :   -82.9785851 Eh     change       -0.1566047E-04 Eh
 * total energy  :   -82.9785957 Eh     change       -0.1063788E-04 Eh
 * total energy  :   -82.9786031 Eh     change       -0.7345262E-05 Eh
 * total energy  :   -82.9786076 Eh     change       -0.4529929E-05 Eh
   *** GEOMETRY OPTIMIZATION CONVERGED AFTER 63 ITERATIONS ***

 final structure:
================
42
 xtb: 6.5.1 (579679a)
C           -3.74908757583870       -0.17465954140248        2.04559216801240
O           -3.63611753961062        0.97958984465801        1.21384390281612
C           -3.79687764585642        0.85068314346288       -0.12957545953552
C           -4.39056297779909        2.10338687529053       -0.72768712601845
O           -4.15765331458243       -0.37340156979461       -0.64021392864571
C           -2.80965780252147       -0.03086764770455       -0.93406937448141
N           -1.84511121745057       -0.70875592397590       -0.16151593464962
C           -0.63787166329684       -0.76063208001755       -0.55794152737036
C            0.42477312768088       -1.46985792604930        0.25557214942585
C            0.70251168230537       -2.83527901469616       -0.38057632066503
C           -0.00665332100843       -1.62002658738305        1.71567401572700
N            1.65538240856316       -0.68078572522313        0.18078547381644
C            1.65595858753767        0.63575366242308        0.49433161196927
O            0.64929542345412        1.28901085314159        0.71160149070167
C            3.01361314190416        1.22730759215868        0.50258611288165
N            3.34385103789757        2.46116793487225        0.72668653893553
N            4.69939657035325        2.53159423468923        0.61493313778864
C            5.11421226353985        1.33638041520336        0.32962658561077
C            6.50407709375540        0.88435906863872        0.10579876136323
O            4.09709246253790        0.46342195444373        0.24440431558414
N           -0.21031826296065       -0.25362639678756       -1.77146307142995
C           -1.02534740535077        0.29326355434133       -2.71837826404789
O           -0.60387646517063        0.68717601815077       -3.78440138201924
C           -2.50442213566081        0.32767339656711       -2.33662582779009
O           -3.34002472328478        0.67529424059616       -3.14376439648223
H           -2.86075227169687       -0.80423489351909        1.95682233026406
H           -3.83935785265378        0.19452842611970        3.06642581141804
H           -4.63369332147573       -0.75760505688994        1.77761231177191
H           -3.71763637398623        2.94303616146879       -0.56592339179425
H           -5.33021527909627        2.30444145027108       -0.21565158256935
H           -4.58426339856798        1.97718549183940       -1.78865880529443
H            1.47390685739641       -3.35440981726708        0.18448666690794
H           -0.20582213803612       -3.43589051917704       -0.37365947815981
H            1.03975429921126       -2.71123229156060       -1.40802726788758
H           -0.90047611214540       -2.23911128102110        1.76954804707574
H            0.79060823349483       -2.09338537325922        2.28439768298437
H           -0.22224084304446       -0.64236094812565        2.14533285862392
H            2.52858829463550       -1.17430263400078        0.11606423539469
H            6.77976719772742        0.14765905950067        0.86028738373073
H            7.18125698807258        1.73340951361348        0.16027764311508
H            6.58577067142867        0.40957413821444       -0.87145319746061
H            0.76822329960225       -0.33547080180429       -2.00319789961511

          :  Hamiltonian                  GFN1-xTB          :
         :: total energy             -82.978607607155 Eh    ::
         :: gradient norm              0.000702119292 Eh/a0 ::
         :: HOMO-LUMO gap              2.335208623748 eV    ::
         :: SCC energy               -83.744567105861 Eh    ::
         :: -> Gsolv                  -0.063005099864 Eh    ::
         :: repulsion energy           0.792821074103 Eh    ::

    * Orbital Energies and Occupations

         #    Occupation            Energy/Eh            Energy/eV
      -------------------------------------------------------------
         1        2.0000           -0.8669101             -23.5898
       ...           ...                  ...                  ...
        55        2.0000           -0.5085689             -13.8389
        56        2.0000           -0.5073510             -13.8057
        57        2.0000           -0.5066545             -13.7868
        58        2.0000           -0.5017974             -13.6546
        59        2.0000           -0.4824706             -13.1287
        60        2.0000           -0.4810931             -13.0912
        61        2.0000           -0.4718763             -12.8404
        62        2.0000           -0.4689023             -12.7595
        63        2.0000           -0.4624859             -12.5849
        64        2.0000           -0.4545064             -12.3677
        65        2.0000           -0.4533401             -12.3360
        66        2.0000           -0.4458161             -12.1313
        67        2.0000           -0.4337421             -11.8027 (HOMO)
        68                         -0.3479247              -9.4675 (LUMO)
        69                         -0.3145555              -8.5595
        70                         -0.2860284              -7.7832
        71                         -0.2578117              -7.0154
        72                         -0.2305681              -6.2741
        73                         -0.2015136              -5.4835
        74                         -0.1435604              -3.9065
        75                         -0.1416471              -3.8544
        76                         -0.1351831              -3.6785
        77                         -0.1334948              -3.6326
        78                         -0.1217911              -3.3141
       ...                                ...                  ...
       134                          0.7524825              20.4761
      -------------------------------------------------------------
                  HL-Gap            0.0858173 Eh            2.3352 eV

Wiberg/Mayer (AO) data.
largest (>0.10) Wiberg bond orders for each atom

     #   Z sym  total        # sym  WBO       # sym  WBO       # sym  WBO
 ---------------------------------------------------------------------------
     1   6 C    3.876 --    27 H    0.984    28 H    0.981    26 H    0.973
                             2 O    0.900
     2   8 O    2.102 --     3 C    1.028     1 C    0.900
     3   6 C    3.830 --     2 O    1.028     4 C    0.989     5 O    0.940
                             6 C    0.731
     4   6 C    3.983 --     3 C    0.989    29 H    0.979    31 H    0.977
                            30 H    0.970
     5   8 O    1.982 --     3 C    0.940     6 C    0.856
     6   6 C    3.846 --     7 N    1.037    24 C    1.037     5 O    0.856
                             3 C    0.731
     7   7 N    3.042 --     8 C    1.705     6 C    1.037
     8   6 C    3.927 --     7 N    1.705    21 N    1.088     9 C    0.975
     9   6 C    3.937 --    11 C    0.990    10 C    0.982     8 C    0.975
                            12 N    0.927
    10   6 C    3.987 --    34 H    0.983    33 H    0.983     9 C    0.982
                            32 H    0.981
    11   6 C    3.988 --     9 C    0.990    36 H    0.984    35 H    0.982
                            37 H    0.981
    12   7 N    3.336 --    13 C    1.242     9 C    0.927    38 H    0.889
                            14 O    0.173
    13   6 C    3.915 --    14 O    1.590    12 N    1.242    15 C    0.997
    14   8 O    1.893 --    13 C    1.590    12 N    0.173
    15   6 C    3.874 --    16 N    1.619    20 O    1.048    13 C    0.997
    16   7 N    3.001 --    15 C    1.619    17 N    1.201
    17   7 N    2.982 --    18 C    1.607    16 N    1.201
    18   6 C    3.867 --    17 N    1.607    20 O    1.074    19 C    1.032
    19   6 C    3.986 --    18 C    1.032    40 H    0.982    41 H    0.964
                            39 H    0.961
    20   8 O    2.317 --    18 C    1.074    15 C    1.048
    21   7 N    3.437 --    22 C    1.179     8 C    1.088    42 H    0.880
                            23 O    0.147
    22   6 C    3.893 --    23 O    1.659    21 N    1.179    24 C    0.922
    23   8 O    1.942 --    22 C    1.659    21 N    0.147
    24   6 C    3.886 --    25 O    1.733     6 C    1.037    22 C    0.922
    25   8 O    1.994 --    24 C    1.733
    26   1 H    1.031 --     1 C    0.973
    27   1 H    1.011 --     1 C    0.984
    28   1 H    1.009 --     1 C    0.981
    29   1 H    1.000 --     4 C    0.979
    30   1 H    0.998 --     4 C    0.970
    31   1 H    1.009 --     4 C    0.977
    32   1 H    0.996 --    10 C    0.981
    33   1 H    0.999 --    10 C    0.983
    34   1 H    0.998 --    10 C    0.983
    35   1 H    1.007 --    11 C    0.982
    36   1 H    1.000 --    11 C    0.984
    37   1 H    1.008 --    11 C    0.981
    38   1 H    0.930 --    12 N    0.889
    39   1 H    0.996 --    19 C    0.961
    40   1 H    0.998 --    19 C    0.982
    41   1 H    0.996 --    19 C    0.964
    42   1 H    0.930 --    21 N    0.880
 ---------------------------------------------------------------------------

           -------------------------------------------------
          | TOTAL ENERGY              -82.978607607155 Eh   |
          | GRADIENT NORM               0.000702119292 Eh/α |
          | HOMO-LUMO GAP               2.335208623748 eV   |
           -------------------------------------------------

 * finished run on 2023/06/21 at 17:40:48.546
