   * xtb version 6.5.1 (579679a) compiled by 'ehlert@majestix' on 2022-07-11
          program call               : /lustre/hpc/kemi/ree/PhD/git/ReactivityQM/dep/xtb-6.5.1/bin/xtb --gfn 1 /lustre/hpc/kemi/ree/PhD/git/ReactivityQM/calculations/R02methylcation/reac01prodN10/conf01/R02methylcation_reac01prodN10_conf01_gfn1.xyz --opt --vfukui --chrg 0 --uhf 0 --alpb DMSO

   ID    Z sym.   atoms
    1    6 C      1, 3, 5, 6, 8, 11-15, 17, 19, 22, 23
    2    8 O      2, 4, 7, 9, 18, 24
    3    7 N      10, 16, 20, 21, 25
    4    1 H      26-42

      * Solvation model:               ALPB
        Solvent                        DMSO
        Solvent mass                       7.8130E+01 g/mol
          :  Hamiltonian                  GFN1-xTB          :
 * total energy  :   -82.9653424 Eh     change       -0.2164313E-10 Eh
 * total energy  :   -82.9758113 Eh     change       -0.1046885E-01 Eh
 * total energy  :   -82.9798775 Eh     change       -0.4066196E-02 Eh
 * total energy  :   -82.9805804 Eh     change       -0.7029398E-03 Eh
 * total energy  :   -82.9810899 Eh     change       -0.5095270E-03 Eh
 * total energy  :   -82.9814304 Eh     change       -0.3404341E-03 Eh
 * total energy  :   -82.9817475 Eh     change       -0.3171826E-03 Eh
 * total energy  :   -82.9819845 Eh     change       -0.2369296E-03 Eh
 * total energy  :   -82.9821357 Eh     change       -0.1512324E-03 Eh
 * total energy  :   -82.9822436 Eh     change       -0.1079032E-03 Eh
 * total energy  :   -82.9835286 Eh     change       -0.1882566E-04 Eh
 * total energy  :   -82.9835368 Eh     change       -0.8120194E-05 Eh
 * total energy  :   -82.9835661 Eh     change       -0.2929593E-04 Eh
 * total energy  :   -82.9835773 Eh     change       -0.1124580E-04 Eh
 * total energy  :   -82.9835965 Eh     change       -0.1923331E-04 Eh
 * total energy  :   -82.9836078 Eh     change       -0.1124325E-04 Eh
 * total energy  :   -82.9836149 Eh     change       -0.7119903E-05 Eh
 * total energy  :   -82.9836214 Eh     change       -0.6484591E-05 Eh
 * total energy  :   -82.9836240 Eh     change       -0.2669092E-05 Eh
   *** GEOMETRY OPTIMIZATION CONVERGED AFTER 36 ITERATIONS ***

 final structure:
================
42
 xtb: 6.5.1 (579679a)
C           -3.47643966241732       -3.33329396960459       -1.29141401257620
O           -2.92827246569276       -2.05997778903548       -0.92461584849161
C           -2.34664492199309       -1.36598177151857       -1.89014425431137
O           -2.25004673276427       -1.73337479093768       -3.03211239883453
C           -1.79925698094572       -0.04863057041779       -1.37674931370205
C           -1.52341754959118        1.05458853764731       -2.34482033169631
O           -2.08360651672194        1.17573571538926       -3.40240380842673
C           -0.48056197659805        2.05890588791884       -1.84585942484456
O            0.14993127009935        2.78267403009984       -2.58717499740282
N           -0.29861976713784        2.03367105873209       -0.50671023142855
C           -1.09622228948475        1.28187182266998        0.44904129235201
C           -2.31729443114929        2.12358370078317        0.84891995306145
C           -0.19267353148286        0.87361606852660        1.65598102052435
C           -0.92678675175628       -0.12797639918233        2.55388471433817
C            0.26818051690400        2.08276728054496        2.47492197291148
N            0.97453323413817        0.22361718456202        1.05049688997197
C            1.98234897796592       -0.32746017510714        1.75737191397948
O            2.02756885995081       -0.43129324797375        2.97204294838892
C            3.06924763116049       -0.84272279699313        0.88602203376385
N            4.14823870922969       -1.46076978466421        1.25327418798094
N            4.84173882142776       -1.75197889322896        0.11766698852003
C            4.14422181520700       -1.29365944991649       -0.87467817347204
C            4.47432545970367       -1.35639120930209       -2.31511071116644
O            3.00903559083383       -0.70714167452286       -0.45754407230613
N           -1.60549050671379        0.06964206615052       -0.12363744324660
H           -2.68218006597626       -3.98708863712355       -1.65765440300256
H           -4.22927799411788       -3.20237489093207       -2.07155124302071
H           -3.92714951043000       -3.74596664902952       -0.39179946511500
H            0.30507030358302        2.75082401480680       -0.13554488497559
H           -1.99142162277326        3.06658885693099        1.27980014822811
H           -2.90768974994860        2.32719393279929       -0.04296244668306
H           -2.93235891001815        1.58590373667634        1.56631905057545
H           -1.19392233123618       -1.01818289569805        1.98676885088212
H           -1.83219754727024        0.32396658432523        2.95359357146430
H           -0.28744981817766       -0.41326969809762        3.38740113179245
H           -0.58193445558488        2.55577660011075        2.96183055468268
H            0.77162155636975        2.81438322808133        1.84692229052781
H            0.96418287773007        1.74900594534121        3.24357578500080
H            1.09876645525089        0.34016288218196        0.05616159764168
H            5.36596552482436       -1.96238144152599       -2.45855927467483
H            3.64191345768756       -1.78668905649175       -2.87094316476757
H            4.65402402791475       -0.35210434296811       -2.70000699244367

          :  Hamiltonian                  GFN1-xTB          :
         :: total energy             -82.983624049811 Eh    ::
         :: gradient norm              0.000621290779 Eh/a0 ::
         :: HOMO-LUMO gap              1.750677779411 eV    ::
         :: SCC energy               -83.764410764345 Eh    ::
         :: -> Gsolv                  -0.058985860329 Eh    ::
         :: repulsion energy           0.808283917021 Eh    ::

    * Orbital Energies and Occupations

         #    Occupation            Energy/Eh            Energy/eV
      -------------------------------------------------------------
         1        2.0000           -0.8672788             -23.5999
       ...           ...                  ...                  ...
        55        2.0000           -0.5075369             -13.8108
        56        2.0000           -0.5066215             -13.7859
        57        2.0000           -0.5055768             -13.7574
        58        2.0000           -0.5041746             -13.7193
        59        2.0000           -0.4953950             -13.4804
        60        2.0000           -0.4818889             -13.1129
        61        2.0000           -0.4810635             -13.0904
        62        2.0000           -0.4697618             -12.7829
        63        2.0000           -0.4636627             -12.6169
        64        2.0000           -0.4619387             -12.5700
        65        2.0000           -0.4530205             -12.3273
        66        2.0000           -0.4499621             -12.2441
        67        2.0000           -0.4379021             -11.9159 (HOMO)
        68                         -0.3735659             -10.1652 (LUMO)
        69                         -0.3204592              -8.7201
        70                         -0.3124011              -8.5009
        71                         -0.2584364              -7.0324
        72                         -0.2506242              -6.8198
        73                         -0.2050424              -5.5795
        74                         -0.2004748              -5.4552
        75                         -0.1445830              -3.9343
        76                         -0.1435499              -3.9062
        77                         -0.1432382              -3.8977
        78                         -0.1375184              -3.7421
       ...                                ...                  ...
       134                          0.7686780              20.9168
      -------------------------------------------------------------
                  HL-Gap            0.0643362 Eh            1.7507 eV

Wiberg/Mayer (AO) data.
largest (>0.10) Wiberg bond orders for each atom

     #   Z sym  total        # sym  WBO       # sym  WBO       # sym  WBO
 ---------------------------------------------------------------------------
     1   6 C    3.860 --    28 H    0.985    26 H    0.979    27 H    0.978
                             2 O    0.885
     2   8 O    2.220 --     3 C    1.140     1 C    0.885     4 O    0.146
     3   6 C    3.854 --     4 O    1.691     2 O    1.140     5 C    0.946
     4   8 O    1.950 --     3 C    1.691     2 O    0.146
     5   6 C    3.955 --    25 N    1.801     6 C    0.988     3 C    0.946
     6   6 C    3.855 --     7 O    1.812     5 C    0.988     8 C    0.905
     7   8 O    2.017 --     6 C    1.812
     8   6 C    3.902 --     9 O    1.642    10 N    1.241     6 C    0.905
     9   8 O    1.934 --     8 C    1.642    10 N    0.183
    10   7 N    3.357 --     8 C    1.241    11 C    0.935    29 H    0.881
                             9 O    0.183
    11   6 C    3.914 --    25 N    0.995    12 C    0.951    13 C    0.936
                            10 N    0.935
    12   6 C    3.981 --    31 H    0.982    32 H    0.979    30 H    0.979
                            11 C    0.951
    13   6 C    3.927 --    14 C    0.997    15 C    0.995    11 C    0.936
                            16 N    0.927
    14   6 C    3.988 --    13 C    0.997    33 H    0.982    34 H    0.982
                            35 H    0.977
    15   6 C    3.988 --    13 C    0.995    36 H    0.982    37 H    0.980
                            38 H    0.976
    16   7 N    3.348 --    17 C    1.257    13 C    0.927    39 H    0.892
                            18 O    0.177
    17   6 C    3.917 --    18 O    1.585    16 N    1.257    19 C    0.992
    18   8 O    1.904 --    17 C    1.585    16 N    0.177
    19   6 C    3.872 --    20 N    1.623    24 O    1.046    17 C    0.992
    20   7 N    3.000 --    19 C    1.623    21 N    1.198
    21   7 N    2.982 --    22 C    1.611    20 N    1.198
    22   6 C    3.868 --    21 N    1.611    24 O    1.071    23 C    1.032
    23   6 C    3.986 --    22 C    1.032    40 H    0.982    41 H    0.966
                            42 H    0.960
    24   8 O    2.314 --    22 C    1.071    19 C    1.046
    25   7 N    3.051 --     5 C    1.801    11 C    0.995
    26   1 H    1.005 --     1 C    0.979
    27   1 H    1.005 --     1 C    0.978
    28   1 H    1.009 --     1 C    0.985
    29   1 H    0.927 --    10 N    0.881
    30   1 H    0.999 --    12 C    0.979
    31   1 H    0.999 --    12 C    0.982
    32   1 H    0.999 --    12 C    0.979
    33   1 H    1.014 --    14 C    0.982
    34   1 H    1.001 --    14 C    0.982
    35   1 H    1.010 --    14 C    0.977
    36   1 H    1.000 --    15 C    0.982
    37   1 H    0.999 --    15 C    0.980
    38   1 H    1.005 --    15 C    0.976
    39   1 H    0.946 --    16 N    0.892
    40   1 H    0.998 --    23 C    0.982
    41   1 H    0.997 --    23 C    0.966
    42   1 H    0.996 --    23 C    0.960
 ---------------------------------------------------------------------------

           -------------------------------------------------
          | TOTAL ENERGY              -82.983624049811 Eh   |
          | GRADIENT NORM               0.000621290779 Eh/α |
          | HOMO-LUMO GAP               1.750677779411 eV   |
           -------------------------------------------------

 * finished run on 2023/06/21 at 17:41:35.815
