   * xtb version 6.5.1 (579679a) compiled by 'ehlert@majestix' on 2022-07-11
          program call               : /lustre/hpc/kemi/ree/PhD/git/ReactivityQM/dep/xtb-6.5.1/bin/xtb --gfn 1 /lustre/hpc/kemi/ree/PhD/git/ReactivityQM/calculations/R02deprot/reac01prodN14/conf19/R02deprot_reac01prodN14_conf19_gfn1.xyz --opt --vfukui --chrg 0 --uhf 0 --alpb DMSO

   ID    Z sym.   atoms
    1    6 C      1, 3, 5, 7-10, 12, 14, 17-19, 22, 24
    2    8 O      2, 4, 13, 20, 23, 25
    3    7 N      6, 11, 15, 16, 21
    4    1 H      26-42

      * Solvation model:               ALPB
        Solvent                        DMSO
        Solvent mass                       7.8130E+01 g/mol
          :  Hamiltonian                  GFN1-xTB          :
 * total energy  :   -82.9110807 Eh     change       -0.1208065E-09 Eh
 * total energy  :   -82.9229182 Eh     change       -0.1183755E-01 Eh
 * total energy  :   -82.9271469 Eh     change       -0.4228662E-02 Eh
 * total energy  :   -82.9278813 Eh     change       -0.7343753E-03 Eh
 * total energy  :   -82.9283277 Eh     change       -0.4464741E-03 Eh
 * total energy  :   -82.9285118 Eh     change       -0.1840211E-03 Eh
 * total energy  :   -82.9286693 Eh     change       -0.1575161E-03 Eh
 * total energy  :   -82.9288030 Eh     change       -0.1337120E-03 Eh
 * total energy  :   -82.9289277 Eh     change       -0.1246704E-03 Eh
 * total energy  :   -82.9290522 Eh     change       -0.1245037E-03 Eh
 * total energy  :   -82.9304514 Eh     change       -0.5710584E-04 Eh
 * total energy  :   -82.9304987 Eh     change       -0.4728385E-04 Eh
 * total energy  :   -82.9305030 Eh     change       -0.4368054E-05 Eh
 * total energy  :   -82.9305504 Eh     change       -0.4732134E-04 Eh
 * total energy  :   -82.9305649 Eh     change       -0.1450563E-04 Eh
 * total energy  :   -82.9305888 Eh     change       -0.2391780E-04 Eh
 * total energy  :   -82.9305962 Eh     change       -0.7390185E-05 Eh
 * total energy  :   -82.9306039 Eh     change       -0.7689903E-05 Eh
 * total energy  :   -82.9306073 Eh     change       -0.3454321E-05 Eh
   *** GEOMETRY OPTIMIZATION CONVERGED AFTER 48 ITERATIONS ***

 final structure:
================
42
 xtb: 6.5.1 (579679a)
C            4.34789688604941       -1.37753724977121        3.20081340662085
O            4.25119754164166       -0.65055378652042        1.97323774310841
C            3.03018875823910       -0.50287629566337        1.46481243779403
O            2.03280501722599       -0.94122298752152        1.99437697309470
C            3.01142483469420        0.24815636664179        0.17383004402569
N            1.79467286421363        0.33791000970944       -0.40049565905020
C            1.67727260204739        0.96441133257960       -1.57046052796609
C            0.29407507215342        1.01873842166493       -2.19337236364519
C           -0.08231165971495        2.47834431638083       -2.48063304679824
C            0.29740549355877        0.19125594112420       -3.48701666722767
N           -0.64084354697136        0.43986400874428       -1.23179517988292
C           -1.95825236316463        0.31570124461777       -1.43589345821290
O           -2.57834991095683        0.65377364305249       -2.42824295829599
C           -2.62076893337165       -0.30672388468318       -0.24778743068294
N           -1.97513694722730       -0.68328085872626        0.87745636640025
N           -2.83241985370155       -1.16348921184422        1.69438195231271
C           -4.13859874656715       -1.11155481905242        1.09648313322522
C           -5.06275900968796       -0.19762158063708        1.90572635923458
C           -4.71027642739094       -2.52181073513272        0.93238151524607
O           -3.89946672824022       -0.53349527486605       -0.18724239423295
N            2.64615406544685        1.52112565296994       -2.26675510041530
C            3.91198968089207        1.50051270104023       -1.75763902988229
O            4.89007697497892        2.01373026643834       -2.30438903809667
C            4.10031671118695        0.81514770312020       -0.46278600205454
O            5.34055248605060        0.81465680400238        0.01225839387227
H            3.96605482316672       -2.39247500890900        3.06636991204971
H            3.77112853740400       -0.87571843734978        3.98133806598362
H            5.40268360933253       -1.40288610156591        3.46634192045890
H           -0.15001423416014        3.03650347095025       -1.54806893062031
H           -1.03793234306864        2.52970142572419       -2.99904419219009
H            0.69205206408958        2.92080489792365       -3.10551604567317
H            1.06832407487599        0.58170200365742       -4.14990658316187
H           -0.66986039582116        0.25663982155236       -3.98171042698045
H            0.51443889251121       -0.85164778009811       -3.26125651038221
H           -0.22607616313104        0.10549007938732       -0.36420428724145
H           -6.01425650508204       -0.10631181697959        1.38782802132041
H           -4.60483610241270        0.78414281614952        2.00386377921559
H           -5.21912545246216       -0.63032028062173        2.89013313614227
H           -5.67470218347706       -2.46061844186897        0.43438400414213
H           -4.02777969345703       -3.12182767011575        0.33470756463093
H           -4.83030580568522       -2.97172247854480        1.91422268639611
H            5.91336301598170        1.27538177303888       -0.63639358258173

          :  Hamiltonian                  GFN1-xTB          :
         :: total energy             -82.930607318333 Eh    ::
         :: gradient norm              0.000630352732 Eh/a0 ::
         :: HOMO-LUMO gap              0.057119041882 eV    ::
         :: SCC energy               -83.689960254637 Eh    ::
         :: -> Gsolv                  -0.054902671042 Eh    ::
         :: repulsion energy           0.784707550434 Eh    ::

    * Orbital Energies and Occupations

         #    Occupation            Energy/Eh            Energy/eV
      -------------------------------------------------------------
         1        2.0000           -0.8896645             -24.2090
       ...           ...                  ...                  ...
        55        2.0000           -0.5132171             -13.9653
        56        2.0000           -0.5036328             -13.7045
        57        2.0000           -0.5017378             -13.6530
        58        2.0000           -0.4966714             -13.5151
        59        2.0000           -0.4859407             -13.2231
        60        2.0000           -0.4812507             -13.0955
        61        2.0000           -0.4760983             -12.9553
        62        2.0000           -0.4701464             -12.7933
        63        2.0000           -0.4676093             -12.7243
        64        2.0000           -0.4565256             -12.4227
        65        2.0000           -0.4486674             -12.2089
        66        1.9928           -0.4160818             -11.3222
        67        1.5059           -0.4117993             -11.2056 (HOMO)
        68        0.5013           -0.4097002             -11.1485 (LUMO)
        69                         -0.3259375              -8.8692
        70                         -0.3096740              -8.4267
        71                         -0.2721085              -7.4044
        72                         -0.2256214              -6.1395
        73                         -0.2233993              -6.0790
        74                         -0.1480065              -4.0275
        75                         -0.1472872              -4.0079
        76                         -0.1418026              -3.8586
        77                         -0.1381254              -3.7586
        78                         -0.1216625              -3.3106
       ...                                ...                  ...
       134                          0.7249315              19.7264
      -------------------------------------------------------------
                  HL-Gap            0.0020991 Eh            0.0571 eV

Wiberg/Mayer (AO) data.
largest (>0.10) Wiberg bond orders for each atom

     #   Z sym  total        # sym  WBO       # sym  WBO       # sym  WBO
 ---------------------------------------------------------------------------
     1   6 C    3.872 --    28 H    0.986    27 H    0.980    26 H    0.980
                             2 O    0.897
     2   8 O    2.203 --     3 C    1.117     1 C    0.897     4 O    0.134
     3   6 C    3.844 --     4 O    1.654     2 O    1.117     5 C    0.993
     4   8 O    1.913 --     3 C    1.654     2 O    0.134
     5   6 C    3.915 --    24 C    1.387     6 N    1.295     3 C    0.993
     6   7 N    2.890 --     7 C    1.346     5 C    1.295
     7   6 C    3.915 --    21 N    1.447     6 N    1.346     8 C    0.980
     8   6 C    3.921 --     7 C    0.980     9 C    0.976    10 C    0.972
                            11 N    0.922
     9   6 C    3.982 --    29 H    0.986    31 H    0.982    30 H    0.982
                             8 C    0.976
    10   6 C    3.982 --    34 H    0.986    32 H    0.983    33 H    0.982
                             8 C    0.972
    11   7 N    3.370 --    12 C    1.285     8 C    0.922    35 H    0.867
                            13 O    0.202
    12   6 C    3.922 --    13 O    1.581    11 N    1.285    14 C    0.973
    13   8 O    1.902 --    12 C    1.581    11 N    0.202
    14   6 C    3.647 --    15 N    1.282    20 O    1.226    12 C    0.973
    15   7 N    3.007 --    16 N    1.567    14 C    1.282
    16   7 N    2.728 --    15 N    1.567    17 C    1.027
    17   6 C    3.835 --    16 N    1.027    19 C    0.934    18 C    0.933
                            20 O    0.875
    18   6 C    3.937 --    37 H    0.982    38 H    0.981    36 H    0.980
                            17 C    0.933
    19   6 C    3.938 --    40 H    0.982    41 H    0.981    39 H    0.980
                            17 C    0.934
    20   8 O    2.247 --    14 C    1.226    17 C    0.875
    21   7 N    2.928 --     7 C    1.447    22 C    1.188
    22   6 C    3.876 --    23 O    1.549    21 N    1.188    24 C    1.030
    23   8 O    1.780 --    22 C    1.549
    24   6 C    3.742 --     5 C    1.387    25 O    1.143    22 C    1.030
    25   8 O    2.058 --    24 C    1.143    42 H    0.796
    26   1 H    1.007 --     1 C    0.980
    27   1 H    1.007 --     1 C    0.980
    28   1 H    1.011 --     1 C    0.986
    29   1 H    1.002 --     9 C    0.986
    30   1 H    1.007 --     9 C    0.982
    31   1 H    1.010 --     9 C    0.982
    32   1 H    1.007 --    10 C    0.983
    33   1 H    1.007 --    10 C    0.982
    34   1 H    1.002 --    10 C    0.986
    35   1 H    0.969 --    11 N    0.867
    36   1 H    0.995 --    18 C    0.980
    37   1 H    0.995 --    18 C    0.982
    38   1 H    0.996 --    18 C    0.981
    39   1 H    0.995 --    19 C    0.980
    40   1 H    0.995 --    19 C    0.982
    41   1 H    0.996 --    19 C    0.981
    42   1 H    0.848 --    25 O    0.796
 ---------------------------------------------------------------------------

           -------------------------------------------------
          | TOTAL ENERGY              -82.930607318333 Eh   |
          | GRADIENT NORM               0.000630352732 Eh/α |
          | HOMO-LUMO GAP               0.057119041882 eV   |
           -------------------------------------------------

 * finished run on 2023/06/20 at 18:23:58.890
