                         Program Version 5.0.1 -  RELEASE  -
|  1> # ORCA input file
|  2> ! SP r2SCAN-3c CPCM
|  3>
|  4> %maxcore 1875.0
|  5> %pal nprocs 4 end
|  6> %cpcm smd true SMDsolvent "DMSO" end
|  7>
|  8> *xyz 1 1
|  9> C       2.827010   -0.408562   -0.039480
| 10> C       1.368234   -0.225756   -0.017270
| 11> N       0.440112   -1.145837    0.030906
| 12> N      -0.716070   -0.477325    0.028101
| 13> C      -1.974053   -1.190296    0.082121
| 14> C      -0.486723    0.819167   -0.018017
| 15> C      -1.504557    1.909408   -0.038881
| 16> O      -2.668771    1.642043    0.018489
| 17> Cl     -0.862011    3.470095   -0.150345
| 18> O       0.824146    0.998340   -0.049785
| 19> H       3.279365    0.151211    0.779604
| 20> H       3.070208   -1.464457    0.048497
| 21> H       3.229958   -0.011364   -0.972206
| 22> H      -2.639948   -0.784882   -0.678341
| 23> H      -1.770049   -2.243679   -0.089909
| 24> H      -2.416853   -1.038107    1.066516
| 25> **                         ****END OF INPUT****

CARTESIAN COORDINATES (ANGSTROEM)
---------------------------------
  C      2.827010   -0.408562   -0.039480
  C      1.368234   -0.225756   -0.017270
  N      0.440112   -1.145837    0.030906
  N     -0.716070   -0.477325    0.028101
  C     -1.974053   -1.190296    0.082121
  C     -0.486723    0.819167   -0.018017
  C     -1.504557    1.909408   -0.038881
  O     -2.668771    1.642043    0.018489
  Cl    -0.862011    3.470095   -0.150345
  O      0.824146    0.998340   -0.049785
  H      3.279365    0.151211    0.779604
  H      3.070208   -1.464457    0.048497
  H      3.229958   -0.011364   -0.972206
  H     -2.639948   -0.784882   -0.678341
  H     -1.770049   -2.243679   -0.089909
  H     -2.416853   -1.038107    1.066516

 Total Charge           Charge          ....    1
 Multiplicity           Mult            ....    1
 Number of Electrons    NEL             ....   82
 Basis Dimension        Dim             ....  248

ORBITAL ENERGIES
----------------

  NO   OCC          E(Eh)            E(eV)
   0   2.0000    -101.276574     -2755.8757
   1   2.0000     -19.125444      -520.4298
   2   2.0000     -19.021243      -517.5943
   3   2.0000     -14.349520      -390.4703
   4   2.0000     -14.260671      -388.0526
   5   2.0000     -10.241043      -278.6729
   6   2.0000     -10.228594      -278.3342
   7   2.0000     -10.204372      -277.6751
   8   2.0000     -10.099252      -274.8146
   9   2.0000     -10.065626      -273.8996
  10   2.0000      -9.433273      -256.6924
  11   2.0000      -7.179779      -195.3717
  12   2.0000      -7.170153      -195.1098
  13   2.0000      -7.167973      -195.0505
  14   2.0000      -1.229000       -33.4428
  15   2.0000      -1.101639       -29.9771
  16   2.0000      -1.074210       -29.2307
  17   2.0000      -0.915785       -24.9198
  18   2.0000      -0.884937       -24.0804
  19   2.0000      -0.790523       -21.5112
  20   2.0000      -0.758041       -20.6273
  21   2.0000      -0.705881       -19.2080
  22   2.0000      -0.663495       -18.0546
  23   2.0000      -0.632101       -17.2003
  24   2.0000      -0.564326       -15.3561
  25   2.0000      -0.545717       -14.8497
  26   2.0000      -0.521961       -14.2033
  27   2.0000      -0.482242       -13.1225
  28   2.0000      -0.470521       -12.8035
  29   2.0000      -0.465797       -12.6750
  30   2.0000      -0.461323       -12.5532
  31   2.0000      -0.449122       -12.2212
  32   2.0000      -0.411756       -11.2044
  33   2.0000      -0.407668       -11.0932
  34   2.0000      -0.398013       -10.8305
  35   2.0000      -0.377947       -10.2845
  36   2.0000      -0.359632        -9.7861
  37   2.0000      -0.346815        -9.4373
  38   2.0000      -0.338894        -9.2218
  39   2.0000      -0.316006        -8.5990
  40   2.0000      -0.313682        -8.5357
  41   0.0000      -0.169448        -4.6109
  42   0.0000      -0.073650        -2.0041
  43   0.0000      -0.040041        -1.0896
  44   0.0000      -0.020242        -0.5508
  45   0.0000       0.036107         0.9825

MULLIKEN ATOMIC CHARGES
-----------------------
   0 C :   -0.612565
   1 C :    0.452551
   2 N :   -0.396329
   3 N :    0.528503
   4 C :   -0.422175
   5 C :    0.207584
   6 C :    0.132392
   7 O :   -0.281215
   8 Cl:    0.017969
   9 O :    0.034792
  10 H :    0.220474
  11 H :    0.221653
  12 H :    0.223428
  13 H :    0.220438
  14 H :    0.221078
  15 H :    0.231421
Sum of atomic charges:    1.0000000

LOEWDIN ATOMIC CHARGES
----------------------
   0 C :   -0.294384
   1 C :    0.442783
   2 N :   -0.195668
   3 N :   -0.477635
   4 C :   -0.011800
   5 C :    0.462597
   6 C :    0.163378
   7 O :   -0.366060
   8 Cl:    0.313560
   9 O :   -0.322795
  10 H :    0.206728
  11 H :    0.203016
  12 H :    0.208173
  13 H :    0.222314
  14 H :    0.222363
  15 H :    0.223431

  Mayer bond orders larger than 0.100000
B(  0-C ,  1-C ) :   0.8797 B(  0-C , 10-H ) :   0.9261 B(  0-C , 11-H ) :   0.9682
B(  0-C , 12-H ) :   0.9191 B(  1-C ,  2-N ) :   1.4905 B(  1-C ,  9-O ) :   1.0890
B(  2-N ,  3-N ) :   1.3044 B(  2-N ,  5-C ) :   0.1817 B(  3-N ,  4-C ) :   0.9217
B(  3-N ,  5-C ) :   1.5369 B(  4-C , 13-H ) :   0.9125 B(  4-C , 14-H ) :   0.9279
B(  4-C , 15-H ) :   0.9034 B(  5-C ,  6-C ) :   0.8852 B(  5-C ,  9-O ) :   1.1564
B(  6-C ,  7-O ) :   1.9196 B(  6-C ,  8-Cl) :   1.1346 B(  7-O ,  8-Cl) :   0.1090

Dispersion correction           -0.005294005
FINAL SINGLE POINT ENERGY      -913.988622523975

DIPOLE MOMENT
-------------
                                X             Y             Z
Electronic contribution:     -3.96000      11.79402      -0.44001
Nuclear contribution   :      5.27494     -13.64831       0.48630
                        -----------------------------------------
Total Dipole Moment    :      1.31495      -1.85429       0.04629
                        -----------------------------------------
Magnitude (a.u.)       :      2.27368
Magnitude (Debye)      :      5.77923

Rotational constants in cm-1:     0.060045     0.030040     0.020175
Rotational constants in MHz :  1800.092619   900.572098   604.844855

                             ****ORCA TERMINATED NORMALLY****
TOTAL RUN TIME: 0 days 0 hours 0 minutes 22 seconds 370 msec
