   * xtb version 6.5.1 (579679a) compiled by 'ehlert@majestix' on 2022-07-11
          program call               : /lustre/hpc/kemi/ree/PhD/git/ReactivityQM/dep/xtb-6.5.1/bin/xtb --gfn 1 /lustre/hpc/kemi/ree/PhD/git/ReactivityQM/calculations/RaltegravirCLI/reac01prodN03/conf01/RaltegravirCLI_reac01prodN03_conf01_gfn1.xyz --opt --vfukui --chrg 1 --uhf 0 --alpb DMSO

   ID    Z sym.   atoms
    1    6 C      1, 2, 5-7
    2    7 N      3, 4
    3    8 O      8, 10
    4   17 Cl     9
    5    1 H      11-16

      * Solvation model:               ALPB
        Solvent                        DMSO
        Solvent mass                       7.8130E+01 g/mol
          :  Hamiltonian                  GFN1-xTB          :
 * total energy  :   -33.4326020 Eh     change       -0.3410605E-12 Eh
 * total energy  :   -33.4381987 Eh     change       -0.5596708E-02 Eh
 * total energy  :   -33.4404051 Eh     change       -0.2206390E-02 Eh
 * total energy  :   -33.4407338 Eh     change       -0.3286622E-03 Eh
 * total energy  :   -33.4408594 Eh     change       -0.1255785E-03 Eh
 * total energy  :   -33.4408900 Eh     change       -0.3065055E-04 Eh
 * total energy  :   -33.4409048 Eh     change       -0.1477666E-04 Eh
 * total energy  :   -33.4409122 Eh     change       -0.7408727E-05 Eh
 * total energy  :   -33.4409178 Eh     change       -0.5591159E-05 Eh
 * total energy  :   -33.4409318 Eh     change       -0.1399613E-04 Eh
 * total energy  :   -33.4412471 Eh     change       -0.8901775E-05 Eh
 * total energy  :   -33.4412554 Eh     change       -0.8355984E-05 Eh
 * total energy  :   -33.4412664 Eh     change       -0.1099591E-04 Eh
 * total energy  :   -33.4412775 Eh     change       -0.1112109E-04 Eh
 * total energy  :   -33.4378252 Eh     change        0.3452368E-02 Eh
 * total energy  :   -33.4411325 Eh     change       -0.3307330E-02 Eh
 * total energy  :   -33.4413226 Eh     change       -0.1901286E-03 Eh
 * total energy  :   -33.4413609 Eh     change       -0.3827725E-04 Eh
 * total energy  :   -33.4413635 Eh     change       -0.2624116E-05 Eh
   *** GEOMETRY OPTIMIZATION CONVERGED AFTER 37 ITERATIONS ***

 final structure:
================
16
 xtb: 6.5.1 (579679a)
C            2.82700976835085       -0.40856231070656       -0.03948042650192
C            1.36823414522319       -0.22575572570880       -0.01726956929807
N            0.44011213673837       -1.14583712963040        0.03090599790153
N           -0.71606970008504       -0.47732475075423        0.02810119104791
C           -1.97405259603959       -1.19029636264881        0.08212060739471
C           -0.48672335897857        0.81916687649332       -0.01801739972223
C           -1.50455689517716        1.90940753413837       -0.03888139072630
O           -2.66877134733475        1.64204301736282        0.01848889518913
Cl          -0.86201137938023        3.47009502377275       -0.15034541441230
O            0.82414631206072        0.99833978236607       -0.04978500092633
H            3.27936501271418        0.15121144516314        0.77960421293855
H            3.07020782739633       -1.46445674809542        0.04849699491874
H            3.22995828036114       -0.01136442220112       -0.97220583164121
H           -2.63994783833788       -0.78488180612754       -0.67834132828830
H           -1.77004872477529       -2.24367866038792       -0.08990922368642
H           -2.41685264273635       -1.03810676303569        1.06651568581253

          :  Hamiltonian                  GFN1-xTB          :
         :: total energy             -33.441363522024 Eh    ::
         :: gradient norm              0.000666698253 Eh/a0 ::
         :: HOMO-LUMO gap              2.998319100226 eV    ::
         :: SCC energy               -33.735430857349 Eh    ::
         :: -> Gsolv                  -0.081457157285 Eh    ::
         :: repulsion energy           0.301343391137 Eh    ::

    * Orbital Energies and Occupations

         #    Occupation            Energy/Eh            Energy/eV
      -------------------------------------------------------------
         1        2.0000           -0.9908366             -26.9620
       ...           ...                  ...                  ...
        15        2.0000           -0.6351268             -17.2827
        16        2.0000           -0.6345076             -17.2658
        17        2.0000           -0.6266387             -17.0517
        18        2.0000           -0.5976549             -16.2630
        19        2.0000           -0.5901588             -16.0590
        20        2.0000           -0.5770586             -15.7026
        21        2.0000           -0.5710385             -15.5387
        22        2.0000           -0.5629649             -15.3191
        23        2.0000           -0.5532935             -15.0559
        24        2.0000           -0.5305935             -14.4382
        25        2.0000           -0.5285031             -14.3813
        26        2.0000           -0.5206215             -14.1668
        27        2.0000           -0.5122932             -13.9402 (HOMO)
        28                         -0.4021070             -10.9419 (LUMO)
        29                         -0.3327610              -9.0549
        30                         -0.2971288              -8.0853
        31                         -0.2448066              -6.6615
        32                         -0.1755073              -4.7758
        33                         -0.1704737              -4.6388
        34                         -0.1186816              -3.2295
        35                         -0.1158421              -3.1522
        36                         -0.1155142              -3.1433
        37                         -0.1109512              -3.0191
        38                         -0.1053591              -2.8670
       ...                                ...                  ...
        57                          0.6930486              18.8588
      -------------------------------------------------------------
                  HL-Gap            0.1101862 Eh            2.9983 eV

Wiberg/Mayer (AO) data.
largest (>0.10) Wiberg bond orders for each atom

     #   Z sym  total        # sym  WBO       # sym  WBO       # sym  WBO
 ---------------------------------------------------------------------------
     1   6 C    3.966 --     2 C    1.047    12 H    0.976    11 H    0.947
                            13 H    0.943
     2   6 C    3.834 --     3 N    1.537    10 O    1.085     1 C    1.047
     3   7 N    2.971 --     2 C    1.537     4 N    1.186
     4   7 N    3.675 --     6 C    1.436     3 N    1.186     5 C    0.908
     5   6 C    3.872 --    15 H    0.977    14 H    0.962    16 H    0.955
                             4 N    0.908
     6   6 C    3.857 --     4 N    1.436    10 O    1.126     7 C    0.987
     7   6 C    3.908 --     8 O    1.755     9 Cl   1.118     6 C    0.987
     8   8 O    2.054 --     7 C    1.755     9 Cl   0.177
     9  17 Cl   1.361 --     7 C    1.118     8 O    0.177
    10   8 O    2.380 --     6 C    1.126     2 C    1.085
    11   1 H    0.986 --     1 C    0.947
    12   1 H    0.989 --     1 C    0.976
    13   1 H    0.986 --     1 C    0.943
    14   1 H    0.995 --     5 C    0.962
    15   1 H    0.991 --     5 C    0.977
    16   1 H    0.990 --     5 C    0.955
 ---------------------------------------------------------------------------

           -------------------------------------------------
          | TOTAL ENERGY              -33.441363522024 Eh   |
          | GRADIENT NORM               0.000666698253 Eh/α |
          | HOMO-LUMO GAP               2.998319100226 eV   |
           -------------------------------------------------

 * finished run on 2023/06/20 at 14:54:32.418
