                         Program Version 5.0.1 -  RELEASE  -
|  1> # ORCA input file
|  2> ! SP r2SCAN-3c CPCM
|  3>
|  4> %maxcore 1875.0
|  5> %pal nprocs 4 end
|  6> %cpcm smd true SMDsolvent "DMSO" end
|  7>
|  8> *xyz -2 1
|  9> C      -5.658709    1.753103    1.878571
| 10> O      -4.536717    0.952839    1.580798
| 11> C      -3.528665    1.593715    0.857280
| 12> O      -3.688035    2.797323    0.562472
| 13> C      -2.406199    0.795651    0.536378
| 14> C      -2.231246   -0.634710    0.864897
| 15> O      -3.119006   -1.332090    1.453716
| 16> C      -1.020098   -1.178742    0.425022
| 17> O      -0.611612   -2.498052    0.644108
| 18> C      -1.463647   -3.500634    0.115138
| 19> N      -0.021971   -0.408283   -0.200310
| 20> C      -0.331541    0.903627   -0.527105
| 21> C       0.762721    1.658994   -1.260697
| 22> C       0.633136    3.164303   -1.005993
| 23> C       0.678010    1.366187   -2.763116
| 24> N       2.071724    1.179744   -0.783917
| 25> C       2.137741    0.851537    0.591401
| 26> O       1.623061    1.582839    1.466489
| 27> C       2.937300   -0.295596    0.889021
| 28> N       3.234006   -0.793036    2.089735
| 29> N       4.016793   -1.895600    1.870553
| 30> C       4.160294   -2.022112    0.593971
| 31> C       4.941645   -3.059961   -0.122761
| 32> O       3.511271   -1.061087   -0.109245
| 33> N      -1.408524    1.483974   -0.151736
| 34> H      -6.142611    2.122634    0.965328
| 35> H      -5.385068    2.619603    2.494930
| 36> H      -6.366799    1.132402    2.430399
| 37> H      -1.613922   -3.369165   -0.963372
| 38> H      -0.975579   -4.461624    0.288612
| 39> H      -2.441718   -3.499088    0.613053
| 40> H       0.611215   -0.907622   -0.803331
| 41> H       1.400634    3.703074   -1.559444
| 42> H       0.748329    3.375367    0.057687
| 43> H      -0.350146    3.507339   -1.328925
| 44> H      -0.270357    1.727630   -3.159394
| 45> H       1.490989    1.860272   -3.293226
| 46> H       0.745069    0.294390   -2.944585
| 47> H       2.450221    0.451829   -1.373859
| 48> H       4.288781   -3.671777   -0.745420
| 49> H       5.681428   -2.592479   -0.772158
| 50> H       5.447803   -3.696720    0.599040
| 51> **                         ****END OF INPUT****

CARTESIAN COORDINATES (ANGSTROEM)
---------------------------------
  C     -5.658709    1.753103    1.878571
  O     -4.536717    0.952839    1.580798
  C     -3.528665    1.593715    0.857280
  O     -3.688035    2.797323    0.562472
  C     -2.406199    0.795651    0.536378
  C     -2.231246   -0.634710    0.864897
  O     -3.119006   -1.332090    1.453716
  C     -1.020098   -1.178742    0.425022
  O     -0.611612   -2.498052    0.644108
  C     -1.463647   -3.500634    0.115138
  N     -0.021971   -0.408283   -0.200310
  C     -0.331541    0.903627   -0.527105
  C      0.762721    1.658994   -1.260697
  C      0.633136    3.164303   -1.005993
  C      0.678010    1.366187   -2.763116
  N      2.071724    1.179744   -0.783917
  C      2.137741    0.851537    0.591401
  O      1.623061    1.582839    1.466489
  C      2.937300   -0.295596    0.889021
  N      3.234006   -0.793036    2.089735
  N      4.016793   -1.895600    1.870553
  C      4.160294   -2.022112    0.593971
  C      4.941645   -3.059961   -0.122761
  O      3.511271   -1.061087   -0.109245
  N     -1.408524    1.483974   -0.151736
  H     -6.142611    2.122634    0.965328
  H     -5.385068    2.619603    2.494930
  H     -6.366799    1.132402    2.430399
  H     -1.613922   -3.369165   -0.963372
  H     -0.975579   -4.461624    0.288612
  H     -2.441718   -3.499088    0.613053
  H      0.611215   -0.907622   -0.803331
  H      1.400634    3.703074   -1.559444
  H      0.748329    3.375367    0.057687
  H     -0.350146    3.507339   -1.328925
  H     -0.270357    1.727630   -3.159394
  H      1.490989    1.860272   -3.293226
  H      0.745069    0.294390   -2.944585
  H      2.450221    0.451829   -1.373859
  H      4.288781   -3.671777   -0.745420
  H      5.681428   -2.592479   -0.772158
  H      5.447803   -3.696720    0.599040

 Total Charge           Charge          ....   -2
 Multiplicity           Mult            ....    1
 Number of Electrons    NEL             ....  186
 Basis Dimension        Dim             ....  615

ORBITAL ENERGIES
----------------

  NO   OCC          E(Eh)            E(eV)
   0   2.0000     -19.017983      -517.5056
   1   2.0000     -18.950586      -515.6717
   2   2.0000     -18.938337      -515.3383
   3   2.0000     -18.879388      -513.7343
   4   2.0000     -18.868127      -513.4278
   5   2.0000     -18.836573      -512.5692
   6   2.0000     -14.173514      -385.6809
   7   2.0000     -14.166988      -385.5033
   8   2.0000     -14.153476      -385.1357
   9   2.0000     -14.147591      -384.9755
  10   2.0000     -14.119328      -384.2064
  11   2.0000     -10.107931      -275.0508
  12   2.0000     -10.092164      -274.6217
  13   2.0000     -10.090473      -274.5757
  14   2.0000     -10.088415      -274.5197
  15   2.0000     -10.064443      -273.8674
  16   2.0000     -10.062598      -273.8172
  17   2.0000     -10.059742      -273.7395
  18   2.0000     -10.049767      -273.4681
  19   2.0000     -10.047938      -273.4183
  20   2.0000     -10.039271      -273.1824
  21   2.0000     -10.030774      -272.9512
  22   2.0000     -10.010780      -272.4072
  23   2.0000     -10.005424      -272.2614
  24   2.0000      -9.996908      -272.0297
  25   2.0000      -1.097696       -29.8698
  26   2.0000      -1.000402       -27.2223
  27   2.0000      -0.992619       -27.0105
  28   2.0000      -0.955741       -26.0070
  29   2.0000      -0.929430       -25.2911
  30   2.0000      -0.917421       -24.9643
  31   2.0000      -0.905316       -24.6349
  32   2.0000      -0.891321       -24.2541
  33   2.0000      -0.856125       -23.2963
  34   2.0000      -0.823875       -22.4188
  35   2.0000      -0.788239       -21.4491
  36   2.0000      -0.734077       -19.9753
  37   2.0000      -0.688015       -18.7218
  38   2.0000      -0.684677       -18.6310
  39   2.0000      -0.661884       -18.0108
  40   2.0000      -0.642930       -17.4950
  41   2.0000      -0.629540       -17.1307
  42   2.0000      -0.626158       -17.0386
  43   2.0000      -0.596906       -16.2426
  44   2.0000      -0.572123       -15.5682
  45   2.0000      -0.559682       -15.2297
  46   2.0000      -0.534361       -14.5407
  47   2.0000      -0.513005       -13.9596
  48   2.0000      -0.495617       -13.4864
  49   2.0000      -0.483667       -13.1612
  50   2.0000      -0.469884       -12.7862
  51   2.0000      -0.462367       -12.5816
  52   2.0000      -0.450401       -12.2560
  53   2.0000      -0.443582       -12.0705
  54   2.0000      -0.425273       -11.5723
  55   2.0000      -0.418610       -11.3910
  56   2.0000      -0.408218       -11.1082
  57   2.0000      -0.404036       -10.9944
  58   2.0000      -0.400273       -10.8920
  59   2.0000      -0.396035       -10.7767
  60   2.0000      -0.380689       -10.3591
  61   2.0000      -0.379998       -10.3403
  62   2.0000      -0.378187       -10.2910
  63   2.0000      -0.372953       -10.1486
  64   2.0000      -0.370625       -10.0852
  65   2.0000      -0.364375        -9.9151
  66   2.0000      -0.356676        -9.7057
  67   2.0000      -0.347109        -9.4453
  68   2.0000      -0.339808        -9.2466
  69   2.0000      -0.338622        -9.2144
  70   2.0000      -0.336917        -9.1680
  71   2.0000      -0.322340        -8.7713
  72   2.0000      -0.316512        -8.6127
  73   2.0000      -0.309712        -8.4277
  74   2.0000      -0.305273        -8.3069
  75   2.0000      -0.301388        -8.2012
  76   2.0000      -0.299286        -8.1440
  77   2.0000      -0.288734        -7.8569
  78   2.0000      -0.280509        -7.6330
  79   2.0000      -0.275314        -7.4917
  80   2.0000      -0.273374        -7.4389
  81   2.0000      -0.252606        -6.8738
  82   2.0000      -0.234577        -6.3832
  83   2.0000      -0.226087        -6.1521
  84   2.0000      -0.224181        -6.1003
  85   2.0000      -0.219751        -5.9797
  86   2.0000      -0.217823        -5.9273
  87   2.0000      -0.206454        -5.6179
  88   2.0000      -0.193914        -5.2767
  89   2.0000      -0.185624        -5.0511
  90   2.0000      -0.141066        -3.8386
  91   2.0000      -0.139493        -3.7958
  92   2.0000      -0.075654        -2.0587
  93   0.0000      -0.057232        -1.5574
  94   0.0000       0.008004         0.2178
  95   0.0000       0.015553         0.4232
  96   0.0000       0.053982         1.4689
  97   0.0000       0.055520         1.5108

MULLIKEN ATOMIC CHARGES
-----------------------
   0 C :   -0.344319
   1 O :   -0.158264
   2 C :    0.057027
   3 O :   -0.471346
   4 C :   -0.056393
   5 C :   -0.227270
   6 O :   -0.436339
   7 C :   -0.197247
   8 O :   -0.180707
   9 C :   -0.352688
  10 N :   -0.005373
  11 C :    0.084112
  12 C :    0.284997
  13 C :   -0.689656
  14 C :   -0.562655
  15 N :   -0.360530
  16 C :   -0.331700
  17 O :   -0.406109
  18 C :    0.322790
  19 N :   -0.265612
  20 N :   -0.281384
  21 C :    0.324681
  22 C :   -0.652427
  23 O :   -0.099536
  24 N :   -0.156081
  25 H :    0.149991
  26 H :    0.149601
  27 H :    0.150658
  28 H :    0.141933
  29 H :    0.149764
  30 H :    0.178889
  31 H :    0.291108
  32 H :    0.166978
  33 H :    0.192444
  34 H :    0.171770
  35 H :    0.182515
  36 H :    0.176061
  37 H :    0.177248
  38 H :    0.319235
  39 H :    0.186369
  40 H :    0.183826
  41 H :    0.193638
Sum of atomic charges:   -2.0000000

LOEWDIN ATOMIC CHARGES
----------------------
   0 C :   -0.072897
   1 O :   -0.646909
   2 C :    0.354672
   3 O :   -0.561644
   4 C :    0.092910
   5 C :    0.192995
   6 O :   -0.677693
   7 C :    0.292710
   8 O :   -0.664929
   9 C :   -0.069041
  10 N :   -0.566544
  11 C :    0.304446
  12 C :    0.087512
  13 C :   -0.370794
  14 C :   -0.359907
  15 N :   -0.664789
  16 C :    0.318680
  17 O :   -0.545203
  18 C :    0.357218
  19 N :   -0.427711
  20 N :   -0.429090
  21 C :    0.331984
  22 C :   -0.331934
  23 O :   -0.450049
  24 N :   -0.607489
  25 H :    0.164049
  26 H :    0.163470
  27 H :    0.168850
  28 H :    0.159095
  29 H :    0.169861
  30 H :    0.174327
  31 H :    0.288181
  32 H :    0.156713
  33 H :    0.178687
  34 H :    0.165797
  35 H :    0.169065
  36 H :    0.165588
  37 H :    0.165666
  38 H :    0.280700
  39 H :    0.180125
  40 H :    0.179694
  41 H :    0.183627

  Mayer bond orders larger than 0.100000
B(  0-C ,  1-O ) :   0.8658 B(  0-C , 25-H ) :   0.9677 B(  0-C , 26-H ) :   0.9678
B(  0-C , 27-H ) :   0.9733 B(  1-O ,  2-C ) :   1.0472 B(  2-C ,  3-O ) :   1.8290
B(  2-C ,  4-C ) :   1.2803 B(  2-C , 24-N ) :   0.1191 B(  4-C ,  5-C ) :   0.7447
B(  4-C ,  6-O ) :  -0.1664 B(  4-C , 24-N ) :   0.8745 B(  5-C ,  6-O ) :   1.9555
B(  5-C ,  7-C ) :   1.2446 B(  7-C ,  8-O ) :   1.1554 B(  7-C , 10-N ) :   1.0045
B(  8-O ,  9-C ) :   0.8434 B(  9-C , 28-H ) :   0.9626 B(  9-C , 29-H ) :   0.9700
B(  9-C , 30-H ) :   0.9632 B( 10-N , 11-C ) :   0.9965 B( 10-N , 16-C ) :   0.1384
B( 10-N , 31-H ) :   0.8580 B( 11-C , 12-C ) :   0.7474 B( 11-C , 17-O ) :   0.1131
B( 11-C , 24-N ) :   1.8507 B( 12-C , 13-C ) :   0.8613 B( 12-C , 14-C ) :   0.9255
B( 12-C , 15-N ) :   0.9023 B( 13-C , 32-H ) :   0.9745 B( 13-C , 33-H ) :   0.9846
B( 13-C , 34-H ) :   0.9753 B( 14-C , 35-H ) :   0.9776 B( 14-C , 36-H ) :   0.9663
B( 14-C , 37-H ) :   0.9638 B( 15-N , 16-C ) :   0.9721 B( 15-N , 38-H ) :   0.8767
B( 16-C , 17-O ) :   1.9818 B( 16-C , 18-C ) :   0.8773 B( 17-O , 18-C ) :  -0.1500
B( 18-C , 19-N ) :   1.5515 B( 18-C , 23-O ) :   1.0258 B( 19-N , 20-N ) :   1.3202
B( 20-N , 21-C ) :   1.7111 B( 21-C , 22-C ) :   0.8136 B( 21-C , 23-O ) :   1.0321
B( 22-C , 39-H ) :   0.9491 B( 22-C , 40-H ) :   0.9525 B( 22-C , 41-H ) :   0.9987

Dispersion correction           -0.019644783
FINAL SINGLE POINT ENERGY     -1268.789316940526

DIPOLE MOMENT
-------------
                                X             Y             Z
Electronic contribution:      4.25311      -0.73718       9.26042
Nuclear contribution   :     -0.51644      -2.06040     -14.86529
                        -----------------------------------------
Total Dipole Moment    :      3.73668      -2.79758      -5.60487
                        -----------------------------------------
Magnitude (a.u.)       :      7.29409
Magnitude (Debye)      :     18.54011

Rotational constants in cm-1:     0.012232     0.004676     0.003950
Rotational constants in MHz :   366.708966   140.185877   118.408153

                             ****ORCA TERMINATED NORMALLY****
TOTAL RUN TIME: 0 days 0 hours 3 minutes 18 seconds 828 msec
