   * xtb version 6.5.1 (579679a) compiled by 'ehlert@majestix' on 2022-07-11
          program call               : /lustre/hpc/kemi/ree/PhD/git/ReactivityQM/dep/xtb-6.5.1/bin/xtb --gfn 1 /lustre/hpc/kemi/ree/PhD/git/ReactivityQM/calculations/R02methylcation/reac01prodE13/conf17/R02methylcation_reac01prodE13_conf17_gfn1.xyz --opt --vfukui --chrg -2 --uhf 0 --alpb DMSO

   ID    Z sym.   atoms
    1    6 C      1, 3, 5, 6, 8, 10, 12-15, 17, 19, 22, 23
    2    8 O      2, 4, 7, 9, 18, 24
    3    7 N      11, 16, 20, 21, 25
    4    1 H      26-42

      * Solvation model:               ALPB
        Solvent                        DMSO
        Solvent mass                       7.8130E+01 g/mol
          :  Hamiltonian                  GFN1-xTB          :
 * total energy  :   -83.5670012 Eh     change       -0.2517083E-08 Eh
 * total energy  :   -83.5801005 Eh     change       -0.1309928E-01 Eh
 * total energy  :   -83.5850865 Eh     change       -0.4986028E-02 Eh
 * total energy  :   -83.5860141 Eh     change       -0.9276199E-03 Eh
 * total energy  :   -83.5870328 Eh     change       -0.1018639E-02 Eh
 * total energy  :   -83.5876754 Eh     change       -0.6425790E-03 Eh
 * total energy  :   -83.5882224 Eh     change       -0.5470850E-03 Eh
 * total energy  :   -83.5885866 Eh     change       -0.3641736E-03 Eh
 * total energy  :   -83.5887449 Eh     change       -0.1582982E-03 Eh
 * total energy  :   -83.5888550 Eh     change       -0.1100852E-03 Eh
 * total energy  :   -83.5959745 Eh     change       -0.2860223E-04 Eh
 * total energy  :   -83.5959919 Eh     change       -0.1739843E-04 Eh
 * total energy  :   -83.5960172 Eh     change       -0.2524213E-04 Eh
 * total energy  :   -83.5960318 Eh     change       -0.1465616E-04 Eh
 * total energy  :   -83.5960455 Eh     change       -0.1371358E-04 Eh
 * total energy  :   -83.5960480 Eh     change       -0.2419527E-05 Eh
 * total energy  :   -83.5960598 Eh     change       -0.1181152E-04 Eh
 * total energy  :   -83.5960656 Eh     change       -0.5796630E-05 Eh
 * total energy  :   -83.5960695 Eh     change       -0.3913396E-05 Eh
   *** GEOMETRY OPTIMIZATION CONVERGED AFTER 88 ITERATIONS ***

 final structure:
================
42
 xtb: 6.5.1 (579679a)
C           -5.65870893215671        1.75310286712329        1.87857090521124
O           -4.53671732500979        0.95283941746955        1.58079784850248
C           -3.52866471488632        1.59371496231419        0.85727950650937
O           -3.68803548623308        2.79732327399505        0.56247244028037
C           -2.40619856899946        0.79565148777694        0.53637767628789
C           -2.23124635566567       -0.63471000462911        0.86489669738257
O           -3.11900615046697       -1.33208952237822        1.45371638314509
C           -1.02009849063707       -1.17874187374342        0.42502192478740
O           -0.61161209873791       -2.49805190306613        0.64410751628938
C           -1.46364728523330       -3.50063364861088        0.11513840875227
N           -0.02197080319475       -0.40828261000616       -0.20031046392780
C           -0.33154100370106        0.90362658795829       -0.52710544976685
C            0.76272061809079        1.65899351212101       -1.26069706583982
C            0.63313575783392        3.16430260947659       -1.00599276885744
C            0.67801026447628        1.36618745998386       -2.76311606817735
N            2.07172384081677        1.17974424647978       -0.78391727758051
C            2.13774065747658        0.85153660023892        0.59140133785918
O            1.62306136472643        1.58283886650961        1.46648857655612
C            2.93730017263948       -0.29559598276488        0.88902126736913
N            3.23400640470728       -0.79303633235018        2.08973528755073
N            4.01679317123970       -1.89559964877768        1.87055325016744
C            4.16029413910231       -2.02211173864691        0.59397088239809
C            4.94164512399358       -3.05996072368673       -0.12276125915247
O            3.51127053395302       -1.06108704450149       -0.10924468533676
N           -1.40852415803440        1.48397436103096       -0.15173595225897
H           -6.14261099330768        2.12263350757018        0.96532807303991
H           -5.38506794931177        2.61960348479771        2.49492953100616
H           -6.36679913154983        1.13240232995326        2.43039884324188
H           -1.61392186872689       -3.36916488852754       -0.96337190709455
H           -0.97557930042501       -4.46162394231339        0.28861209959904
H           -2.44171761482636       -3.49908822435919        0.61305268989806
H            0.61121454545246       -0.90762162990798       -0.80333108537833
H            1.40063371141562        3.70307377553994       -1.55944406261947
H            0.74832870684383        3.37536664491882        0.05768661091371
H           -0.35014554257037        3.50733894554260       -1.32892536166715
H           -0.27035740962897        1.72762975000381       -3.15939399775871
H            1.49098886472983        1.86027210176032       -3.29322635221705
H            0.74506931119787        0.29439037971758       -2.94458542441892
H            2.45022146598535        0.45182854127966       -1.37385944710608
H            4.28878112996570       -3.67177669708508       -0.74542015820416
H            5.68142805980649       -2.59247916562359       -0.77215790693782
H            5.44780333884321       -3.69672013258835        0.59903993755160

          :  Hamiltonian                  GFN1-xTB          :
         :: total energy             -83.596069476132 Eh    ::
         :: gradient norm              0.000942154779 Eh/a0 ::
         :: HOMO-LUMO gap              0.232040031121 eV    ::
         :: SCC energy               -84.319456607565 Eh    ::
         :: -> Gsolv                  -0.303236617940 Eh    ::
         :: repulsion energy           0.749956052094 Eh    ::

    * Orbital Energies and Occupations

         #    Occupation            Energy/Eh            Energy/eV
      -------------------------------------------------------------
         1        2.0000           -0.8024011             -21.8344
       ...           ...                  ...                  ...
        56        2.0000           -0.4321338             -11.7590
        57        2.0000           -0.4292910             -11.6816
        58        2.0000           -0.4263956             -11.6028
        59        2.0000           -0.4058632             -11.0441
        60        2.0000           -0.4050925             -11.0231
        61        2.0000           -0.4024343             -10.9508
        62        2.0000           -0.3977139             -10.8223
        63        2.0000           -0.3932066             -10.6997
        64        2.0000           -0.3881720             -10.5627
        65        2.0000           -0.3780020             -10.2860
        66        2.0000           -0.3389333              -9.2228
        67        2.0000           -0.3331635              -9.0658
        68        1.9778           -0.2711365              -7.3780 (HOMO)
        69        0.0222           -0.2626091              -7.1460 (LUMO)
        70                         -0.2091146              -5.6903
        71                         -0.1993516              -5.4246
        72                         -0.1641416              -4.4665
        73                         -0.1392012              -3.7879
        74                         -0.1227528              -3.3403
        75                         -0.1067282              -2.9042
        76                         -0.1063384              -2.8936
        77                         -0.1029835              -2.8023
        78                         -0.0959461              -2.6108
        79                         -0.0714026              -1.9430
       ...                                ...                  ...
       134                          0.7127421              19.3947
      -------------------------------------------------------------
                  HL-Gap            0.0085273 Eh            0.2320 eV

Wiberg/Mayer (AO) data.
largest (>0.10) Wiberg bond orders for each atom

     #   Z sym  total        # sym  WBO       # sym  WBO       # sym  WBO
 ---------------------------------------------------------------------------
     1   6 C    3.922 --    28 H    0.987    27 H    0.980    26 H    0.980
                             2 O    0.953
     2   8 O    2.079 --     3 C    0.956     1 C    0.953
     3   6 C    3.800 --     4 O    1.455     5 C    1.275     2 O    0.956
     4   8 O    1.710 --     3 C    1.455
     5   6 C    3.820 --     3 C    1.275    25 N    1.132     6 C    1.075
     6   6 C    3.944 --     7 O    1.378     8 C    1.346     5 C    1.075
     7   8 O    1.671 --     6 C    1.378     8 C    0.119
     8   6 C    3.772 --     6 C    1.346    11 N    1.023     9 O    0.944
                             7 O    0.119
     9   8 O    2.029 --     8 C    0.944    10 C    0.939
    10   6 C    3.911 --    30 H    0.986    29 H    0.983    31 H    0.978
                             9 O    0.939
    11   7 N    3.355 --    12 C    1.086     8 C    1.023    32 H    0.913
    12   6 C    3.934 --    25 N    1.640    11 N    1.086    13 C    0.971
    13   6 C    3.954 --    14 C    0.996    15 C    0.989    12 C    0.971
                            16 N    0.936
    14   6 C    3.996 --    13 C    0.996    33 H    0.988    35 H    0.986
                            34 H    0.981
    15   6 C    3.993 --    13 C    0.989    37 H    0.986    36 H    0.985
                            38 H    0.984
    16   7 N    3.140 --    17 C    1.051    13 C    0.936    39 H    0.929
    17   6 C    3.879 --    18 O    1.446    19 C    1.150    16 N    1.051
    18   8 O    1.767 --    17 C    1.446
    19   6 C    3.794 --    20 N    1.416    17 C    1.150    24 O    0.972
    20   7 N    2.830 --    19 C    1.416    21 N    1.182
    21   7 N    2.981 --    22 C    1.635    20 N    1.182
    22   6 C    3.852 --    21 N    1.635    24 O    1.042    23 C    1.024
    23   6 C    3.994 --    22 C    1.024    42 H    0.986    41 H    0.972
                            40 H    0.970
    24   8 O    2.216 --    22 C    1.042    19 C    0.972
    25   7 N    3.007 --    12 C    1.640     5 C    1.132
    26   1 H    1.021 --     1 C    0.980
    27   1 H    1.021 --     1 C    0.980
    28   1 H    1.020 --     1 C    0.987
    29   1 H    1.014 --    10 C    0.983
    30   1 H    1.020 --    10 C    0.986
    31   1 H    1.039 --    10 C    0.978
    32   1 H    0.967 --    11 N    0.913
    33   1 H    1.010 --    14 C    0.988
    34   1 H    1.028 --    14 C    0.981
    35   1 H    1.020 --    14 C    0.986
    36   1 H    1.007 --    15 C    0.985
    37   1 H    1.003 --    15 C    0.986
    38   1 H    1.004 --    15 C    0.984
    39   1 H    0.969 --    16 N    0.929
    40   1 H    1.000 --    23 C    0.970
    41   1 H    1.001 --    23 C    0.972
    42   1 H    1.004 --    23 C    0.986
 ---------------------------------------------------------------------------

           -------------------------------------------------
          | TOTAL ENERGY              -83.596069476132 Eh   |
          | GRADIENT NORM               0.000942154779 Eh/α |
          | HOMO-LUMO GAP               0.232040031121 eV   |
           -------------------------------------------------

 * finished run on 2023/06/21 at 17:25:39.581
