   * xtb version 6.5.1 (579679a) compiled by 'ehlert@majestix' on 2022-07-11
          program call               : /lustre/hpc/kemi/ree/PhD/git/ReactivityQM/dep/xtb-6.5.1/bin/xtb --gfn 1 /lustre/hpc/kemi/ree/PhD/git/ReactivityQM/calculations/R03/reac01prodN02/conf04/R03_reac01prodN02_conf04_gfn1.xyz --opt --vfukui --chrg 1 --uhf 0 --alpb DMSO

   ID    Z sym.   atoms
    1    6 C      1-3, 5-7, 9, 10
    2    7 N      4
    3    9 F      8
    4    1 H      11-21

      * Solvation model:               ALPB
        Solvent                        DMSO
        Solvent mass                       7.8130E+01 g/mol
          :  Hamiltonian                  GFN1-xTB          :
 * total energy  :   -30.7613061 Eh     change       -0.1079563E-09 Eh
 * total energy  :   -30.7665193 Eh     change       -0.5213195E-02 Eh
 * total energy  :   -30.7688980 Eh     change       -0.2378685E-02 Eh
 * total energy  :   -30.7694350 Eh     change       -0.5369680E-03 Eh
 * total energy  :   -30.7703200 Eh     change       -0.8850170E-03 Eh
 * total energy  :   -30.7709049 Eh     change       -0.5849049E-03 Eh
 * total energy  :   -30.7714945 Eh     change       -0.5895883E-03 Eh
 * total energy  :   -30.7725800 Eh     change       -0.1085525E-02 Eh
 * total energy  :   -30.7731243 Eh     change       -0.5442808E-03 Eh
 * total energy  :   -30.7738513 Eh     change       -0.7269375E-03 Eh
 * total energy  :   -30.7816320 Eh     change       -0.3263932E-04 Eh
 * total energy  :   -30.7816766 Eh     change       -0.4458879E-04 Eh
 * total energy  :   -30.7816991 Eh     change       -0.2256233E-04 Eh
 * total energy  :   -30.7817573 Eh     change       -0.5814128E-04 Eh
 * total energy  :   -30.7818015 Eh     change       -0.4418462E-04 Eh
 * total energy  :   -30.7818210 Eh     change       -0.1956608E-04 Eh
 * total energy  :   -30.7818486 Eh     change       -0.2759884E-04 Eh
 * total energy  :   -30.7818570 Eh     change       -0.8390852E-05 Eh
 * total energy  :   -30.7818613 Eh     change       -0.4270217E-05 Eh
   *** GEOMETRY OPTIMIZATION CONVERGED AFTER 76 ITERATIONS ***

 final structure:
================
21
 xtb: 6.5.1 (579679a)
C           -0.31581258593796       -1.54580553163563       -1.48949113396390
C            0.47214587111462       -0.60794076891035       -0.62274485539153
C           -1.72241045865060        0.85346096316626        0.57235072004659
N           -2.71902471558127        0.07202857221035        0.36688906030920
C            1.41460303658044        0.25656858478016       -1.18051893889636
C            2.18556698743238        1.08113655475018       -0.37635301697280
C            2.00562682599521        1.02757911056390        0.99870150849940
F            2.75942843788479        1.81203353285709        1.77570389133455
C            1.07906055013830        0.19501811812954        1.59088833889177
C            0.28918440494081       -0.61157221280133        0.76727033980374
H           -1.30266727830464       -1.72369365853078       -1.06460122921663
H            0.19787820269357       -2.50732010288049       -1.55292203346259
H           -0.42551781346642       -1.14775865465531       -2.49711119849212
H           -1.45070023707903        1.11936827045607        1.58280878788401
H           -1.26543282303170        1.37001804898079       -0.25949777649792
H           -3.04400691447874       -0.14014719411581       -0.56405143379582
H           -3.20274849845187       -0.38363304863222        1.12549024126661
H            1.55048125265973        0.27857452111287       -2.25516804410642
H            2.92068665933798        1.75247641837327       -0.80193318469890
H            0.96314402212518        0.17367554392787        2.66641083866756
H           -0.38948492592081       -1.32406706714679        1.21788011879225

          :  Hamiltonian                  GFN1-xTB          :
         :: total energy             -30.781861296898 Eh    ::
         :: gradient norm              0.000710282519 Eh/a0 ::
         :: HOMO-LUMO gap              1.859851246879 eV    ::
         :: SCC energy               -31.215076701192 Eh    ::
         :: -> Gsolv                  -0.103945667478 Eh    ::
         :: repulsion energy           0.443949846960 Eh    ::

    * Orbital Energies and Occupations

         #    Occupation            Energy/Eh            Energy/eV
      -------------------------------------------------------------
         1        2.0000           -0.8833180             -24.0363
       ...           ...                  ...                  ...
        15        2.0000           -0.5942086             -16.1692
        16        2.0000           -0.5861353             -15.9496
        17        2.0000           -0.5752188             -15.6525
        18        2.0000           -0.5587440             -15.2042
        19        2.0000           -0.5566050             -15.1460
        20        2.0000           -0.5550933             -15.1049
        21        2.0000           -0.5490708             -14.9410
        22        2.0000           -0.5224993             -14.2179
        23        2.0000           -0.5201517             -14.1540
        24        2.0000           -0.5093609             -13.8604
        25        2.0000           -0.4914831             -13.3739
        26        2.0000           -0.4724603             -12.8563
        27        2.0000           -0.4531997             -12.3322 (HOMO)
        28                         -0.3848515             -10.4723 (LUMO)
        29                         -0.2920992              -7.9484
        30                         -0.2841448              -7.7320
        31                         -0.1840636              -5.0086
        32                         -0.1675127              -4.5583
        33                         -0.1650486              -4.4912
        34                         -0.1551265              -4.2212
        35                         -0.1371799              -3.7329
        36                         -0.1186367              -3.2283
        37                         -0.1095042              -2.9798
        38                         -0.1058295              -2.8798
       ...                                ...                  ...
        62                          0.6216195              16.9151
      -------------------------------------------------------------
                  HL-Gap            0.0683483 Eh            1.8599 eV

Wiberg/Mayer (AO) data.
largest (>0.10) Wiberg bond orders for each atom

     #   Z sym  total        # sym  WBO       # sym  WBO       # sym  WBO
 ---------------------------------------------------------------------------
     1   6 C    3.993 --     2 C    1.029    13 H    0.980    11 H    0.976
                            12 H    0.960
     2   6 C    3.986 --     5 C    1.401    10 C    1.358     1 C    1.029
     3   6 C    3.862 --     4 N    1.732    15 H    0.967    14 H    0.966
                            10 C    0.102
     4   7 N    3.560 --     3 C    1.732    16 H    0.871    17 H    0.867
     5   6 C    3.992 --     6 C    1.457     2 C    1.401    18 H    0.969
                             9 C    0.108
     6   6 C    3.991 --     5 C    1.457     7 C    1.371    19 H    0.967
     7   6 C    3.868 --     9 C    1.424     6 C    1.371     8 F    0.939
     8   9 F    1.071 --     7 C    0.939
     9   6 C    3.991 --     7 C    1.424    10 C    1.385    20 H    0.966
                             5 C    0.108
    10   6 C    3.993 --     9 C    1.385     2 C    1.358    21 H    0.967
                             3 C    0.102
    11   1 H    1.001 --     1 C    0.976
    12   1 H    0.998 --     1 C    0.960
    13   1 H    0.999 --     1 C    0.980
    14   1 H    0.999 --     3 C    0.966
    15   1 H    0.997 --     3 C    0.967
    16   1 H    0.904 --     4 N    0.871
    17   1 H    0.895 --     4 N    0.867
    18   1 H    0.997 --     5 C    0.969
    19   1 H    0.995 --     6 C    0.967
    20   1 H    0.994 --     9 C    0.966
    21   1 H    0.999 --    10 C    0.967
 ---------------------------------------------------------------------------

           -------------------------------------------------
          | TOTAL ENERGY              -30.781861296898 Eh   |
          | GRADIENT NORM               0.000710282519 Eh/α |
          | HOMO-LUMO GAP               1.859851246879 eV   |
           -------------------------------------------------

 * finished run on 2023/06/20 at 15:14:11.324
