   * xtb version 6.5.1 (579679a) compiled by 'ehlert@majestix' on 2022-07-11
          program call               : /lustre/hpc/kemi/ree/PhD/git/ReactivityQM/dep/xtb-6.5.1/bin/xtb --gfn 1 /lustre/hpc/kemi/ree/PhD/git/ReactivityQM/calculations/R01/reac02prodN11/conf02/R01_reac02prodN11_conf02_gfn1.xyz --opt --vfukui --chrg 1 --uhf 0 --alpb DMSO

   ID    Z sym.   atoms
    1    6 C      1, 3, 5, 6, 8, 11-15
    2    8 O      2, 4, 7, 9
    3    7 N      10, 16, 17
    4    1 H      18-33

      * Solvation model:               ALPB
        Solvent                        DMSO
        Solvent mass                       7.8130E+01 g/mol
          :  Hamiltonian                  GFN1-xTB          :
 * total energy  :   -57.7946931 Eh     change       -0.3036860E-10 Eh
 * total energy  :   -57.8057227 Eh     change       -0.1102958E-01 Eh
 * total energy  :   -57.8097025 Eh     change       -0.3979735E-02 Eh
 * total energy  :   -57.8105856 Eh     change       -0.8831530E-03 Eh
 * total energy  :   -57.8110722 Eh     change       -0.4865806E-03 Eh
 * total energy  :   -57.8112776 Eh     change       -0.2053575E-03 Eh
 * total energy  :   -57.8114386 Eh     change       -0.1610615E-03 Eh
 * total energy  :   -57.8115639 Eh     change       -0.1252708E-03 Eh
 * total energy  :   -57.8116636 Eh     change       -0.9969804E-04 Eh
 * total energy  :   -57.8117377 Eh     change       -0.7411541E-04 Eh
 * total energy  :   -57.8668408 Eh     change       -0.4750319E-04 Eh
 * total energy  :   -57.8668683 Eh     change       -0.2755343E-04 Eh
 * total energy  :   -57.8668900 Eh     change       -0.2162063E-04 Eh
 * total energy  :   -57.8669095 Eh     change       -0.1951090E-04 Eh
 * total energy  :   -57.8669190 Eh     change       -0.9507690E-05 Eh
 * total energy  :   -57.8669280 Eh     change       -0.9052817E-05 Eh
 * total energy  :   -57.8669342 Eh     change       -0.6131177E-05 Eh
 * total energy  :   -57.8669381 Eh     change       -0.3921086E-05 Eh
 * total energy  :   -57.8669423 Eh     change       -0.4201516E-05 Eh
   *** GEOMETRY OPTIMIZATION CONVERGED AFTER 83 ITERATIONS ***

 final structure:
================
33
 xtb: 6.5.1 (579679a)
C            3.90907303263939        2.54366545819514        0.71397792345910
O            2.78792880319316        1.69135274183664        0.45195926072730
C            3.06212496267549        0.47368453345909       -0.01406835686774
O            4.18275332000219        0.07536137606102       -0.22167876972454
C            1.82213347658060       -0.32607876646834       -0.24681798660446
C            1.81406981384343       -1.58872549108189       -0.77004035600762
O            2.90254063064880       -2.26239030375666       -1.13330683507144
C            0.54867566610903       -2.28839953086412       -0.96058986337400
O            0.50497054667413       -3.42348011828270       -1.41186399981447
N           -0.59525230635357       -1.57960269345309       -0.60688358343003
C           -1.84653910459751       -2.30635761756460       -0.81497716496813
C           -0.49803213486788       -0.32126170572137       -0.06237022303666
C           -1.69688646950249        0.53364673363575        0.33184135723510
C           -2.44837028600449        1.07097667826396       -0.88729527798480
C           -1.22221496644513        1.69752023311958        1.20636085601775
N           -2.67154208696349       -0.24335863164334        1.18889775088172
N            0.63894825760793        0.26821634742149        0.09782317935140
H            4.53056920937786        2.63465679256871       -0.18108441078967
H            3.50104871070240        3.51296570189879        0.99346953996547
H            4.50648517913362        2.13318762944121        1.53221328213480
H            2.63719357448800       -3.13923902723496       -1.46915335851180
H           -2.19367845645342       -0.74502894608312        1.93027436531474
H           -2.61371541123270       -1.64129097833669       -1.19504577099171
H           -1.65624358318630       -3.09033563854208       -1.54855761304884
H           -2.16320819622052       -2.76360017915692        0.12048892132782
H           -3.26445362685318        1.71342855823455       -0.56101242810948
H           -2.85792615986628        0.27104422171100       -1.49850382281066
H           -1.75853584219257        1.65661940401140       -1.49431486596239
H           -2.07681538958508        2.28953690718824        1.52782710514484
H           -0.54764156381749        2.33006688839182        0.63144634637902
H           -0.69055604019054        1.32331414626823        2.07932573590672
H           -3.32495815284158        0.40266910166318        1.62005732161881
H           -3.22194640650266       -0.90276382517999        0.65160074163957

          :  Hamiltonian                  GFN1-xTB          :
         :: total energy             -57.866942295713 Eh    ::
         :: gradient norm              0.000799178674 Eh/a0 ::
         :: HOMO-LUMO gap              2.953956976427 eV    ::
         :: SCC energy               -58.446278211236 Eh    ::
         :: -> Gsolv                  -0.137855030335 Eh    ::
         :: repulsion energy           0.598653490383 Eh    ::

    * Orbital Energies and Occupations

         #    Occupation            Energy/Eh            Energy/eV
      -------------------------------------------------------------
         1        2.0000           -0.8981102             -24.4388
       ...           ...                  ...                  ...
        35        2.0000           -0.5533683             -15.0579
        36        2.0000           -0.5486093             -14.9284
        37        2.0000           -0.5466184             -14.8742
        38        2.0000           -0.5453924             -14.8409
        39        2.0000           -0.5348083             -14.5529
        40        2.0000           -0.5287943             -14.3892
        41        2.0000           -0.5201739             -14.1547
        42        2.0000           -0.5034661             -13.7000
        43        2.0000           -0.4958978             -13.4941
        44        2.0000           -0.4927679             -13.4089
        45        2.0000           -0.4791141             -13.0374
        46        2.0000           -0.4630393             -12.5999
        47        2.0000           -0.4464727             -12.1491 (HOMO)
        48                         -0.3379168              -9.1952 (LUMO)
        49                         -0.3077569              -8.3745
        50                         -0.2528538              -6.8805
        51                         -0.2087167              -5.6795
        52                         -0.1752343              -4.7684
        53                         -0.1718481              -4.6762
        54                         -0.1598869              -4.3507
        55                         -0.1468551              -3.9961
        56                         -0.1423818              -3.8744
        57                         -0.1367867              -3.7222
        58                         -0.1194766              -3.2511
       ...                                ...                  ...
       100                          0.7365300              20.0420
      -------------------------------------------------------------
                  HL-Gap            0.1085559 Eh            2.9540 eV

Wiberg/Mayer (AO) data.
largest (>0.10) Wiberg bond orders for each atom

     #   Z sym  total        # sym  WBO       # sym  WBO       # sym  WBO
 ---------------------------------------------------------------------------
     1   6 C    3.867 --    19 H    0.986    18 H    0.979    20 H    0.979
                             2 O    0.893
     2   8 O    2.201 --     3 C    1.116     1 C    0.893     4 O    0.137
     3   6 C    3.855 --     4 O    1.667     2 O    1.116     5 C    0.995
     4   8 O    1.932 --     3 C    1.667     2 O    0.137
     5   6 C    3.960 --     6 C    1.490    17 N    1.182     3 C    0.995
     6   6 C    3.922 --     5 C    1.490     7 O    1.127     8 C    1.066
     7   8 O    2.104 --     6 C    1.127    21 H    0.800
     8   6 C    3.910 --     9 O    1.579    10 N    1.116     6 C    1.066
     9   8 O    1.925 --     8 C    1.579    10 N    0.135
    10   7 N    3.500 --    12 C    1.163     8 C    1.116    11 C    0.928
                             9 O    0.135
    11   6 C    3.917 --    23 H    0.973    25 H    0.973    24 H    0.966
                            10 N    0.928
    12   6 C    3.941 --    17 N    1.586    10 N    1.163    13 C    0.979
    13   6 C    3.884 --    15 C    1.000    14 C    0.991    12 C    0.979
                            16 N    0.874
    14   6 C    3.981 --    13 C    0.991    26 H    0.979    28 H    0.976
                            27 H    0.974
    15   6 C    3.981 --    13 C    1.000    31 H    0.981    29 H    0.981
                            30 H    0.976
    16   7 N    3.564 --    33 H    0.886    22 H    0.886    32 H    0.883
                            13 C    0.874
    17   7 N    3.040 --    12 C    1.586     5 C    1.182
    18   1 H    1.007 --     1 C    0.979
    19   1 H    1.010 --     1 C    0.986
    20   1 H    1.006 --     1 C    0.979
    21   1 H    0.840 --     7 O    0.800
    22   1 H    0.904 --    16 N    0.886
    23   1 H    1.001 --    11 C    0.973
    24   1 H    1.000 --    11 C    0.966
    25   1 H    0.995 --    11 C    0.973
    26   1 H    0.992 --    14 C    0.979
    27   1 H    0.998 --    14 C    0.974
    28   1 H    0.995 --    14 C    0.976
    29   1 H    0.995 --    15 C    0.981
    30   1 H    1.008 --    15 C    0.976
    31   1 H    1.001 --    15 C    0.981
    32   1 H    0.904 --    16 N    0.883
    33   1 H    0.920 --    16 N    0.886
 ---------------------------------------------------------------------------

           -------------------------------------------------
          | TOTAL ENERGY              -57.866942295713 Eh   |
          | GRADIENT NORM               0.000799178674 Eh/α |
          | HOMO-LUMO GAP               2.953956976427 eV   |
           -------------------------------------------------

 * finished run on 2023/06/20 at 15:11:37.360
