   * xtb version 6.5.1 (579679a) compiled by 'ehlert@majestix' on 2022-07-11
          program call               : /lustre/hpc/kemi/ree/PhD/git/ReactivityQM/dep/xtb-6.5.1/bin/xtb --gfn 1 /lustre/hpc/kemi/ree/PhD/git/ReactivityQM/calculations/R02methylcation/reac01prodE12/conf04/R02methylcation_reac01prodE12_conf04_gfn1.xyz --opt --vfukui --chrg -2 --uhf 0 --alpb DMSO

   ID    Z sym.   atoms
    1    6 C      1, 3, 5, 6, 8, 9, 12-15, 17, 19, 22, 23
    2    8 O      2, 4, 7, 10, 18, 24
    3    7 N      11, 16, 20, 21, 25
    4    1 H      26-42

      * Solvation model:               ALPB
        Solvent                        DMSO
        Solvent mass                       7.8130E+01 g/mol
          :  Hamiltonian                  GFN1-xTB          :
 * total energy  :   -83.6008857 Eh     change       -0.1645816E-08 Eh
 * total energy  :   -83.6164682 Eh     change       -0.1558251E-01 Eh
 * total energy  :   -83.6231961 Eh     change       -0.6727858E-02 Eh
 * total energy  :   -83.6246695 Eh     change       -0.1473430E-02 Eh
 * total energy  :   -83.6256892 Eh     change       -0.1019697E-02 Eh
 * total energy  :   -83.6262142 Eh     change       -0.5249849E-03 Eh
 * total energy  :   -83.6266326 Eh     change       -0.4184306E-03 Eh
 * total energy  :   -83.6268622 Eh     change       -0.2295653E-03 Eh
 * total energy  :   -83.6270343 Eh     change       -0.1720745E-03 Eh
 * total energy  :   -83.6272185 Eh     change       -0.1842312E-03 Eh
 * total energy  :   -83.6286310 Eh     change       -0.9500246E-05 Eh
 * total energy  :   -83.6286377 Eh     change       -0.6696592E-05 Eh
 * total energy  :   -83.6286431 Eh     change       -0.5327758E-05 Eh
 * total energy  :   -83.6286485 Eh     change       -0.5403733E-05 Eh
 * total energy  :   -83.6286548 Eh     change       -0.6301012E-05 Eh
 * total energy  :   -83.6286619 Eh     change       -0.7161504E-05 Eh
 * total energy  :   -83.6286693 Eh     change       -0.7366846E-05 Eh
 * total energy  :   -83.6286760 Eh     change       -0.6736848E-05 Eh
 * total energy  :   -83.6286789 Eh     change       -0.2847007E-05 Eh
   *** GEOMETRY OPTIMIZATION CONVERGED AFTER 44 ITERATIONS ***

 final structure:
================
42
 xtb: 6.5.1 (579679a)
C           -6.23797228716949        0.10386923474866        2.14358367329358
O           -5.21480232023731        0.45828120861935        1.23820715457664
C           -4.08796558744906       -0.35460231929761        1.26902018558883
O           -4.06305754042058       -1.29633895791695        2.07818710983755
C           -3.06572941716642       -0.00912439138931        0.34244829631014
C           -3.10698467641291        1.06851517212690       -0.58147488707100
O           -4.00911523280796        1.93327142820445       -0.64050052016747
C           -1.95928041467679        1.12180656355264       -1.66365126386101
C           -1.63765957010614        2.63387202813779       -1.92925605381584
O           -2.19405499165003        0.42087185684933       -2.73921640478975
N           -0.68212041737822        0.60650829105163       -0.92324976837482
C           -0.87819319237060       -0.56918537942789       -0.22745986490708
C            0.30058996327819       -1.53727777584544       -0.17898057416903
C            0.36807883453784       -2.29546002024346       -1.51273052814367
C            0.14826793094263       -2.50977713598286        0.99457165729735
N            1.52482867212270       -0.73679250586565        0.00142855663304
C            2.76487998677503       -1.23652908825010        0.05316714327420
O            3.07546178223495       -2.41831270076758       -0.02719156915671
C            3.77171881280571       -0.15063591892384        0.23017524744380
N            3.52039081110913        1.11925728047752        0.34645815736938
N            4.72481596453945        1.74927063055153        0.47802190487623
C            5.63125192533428        0.82396058863444        0.43244858632754
C            7.09826217539282        0.99130183986850        0.53104002888044
O            5.09632015102946       -0.39757532950942        0.27895689955946
N           -1.94876552206742       -0.88490644693379        0.39334560025094
H           -6.61152012062325       -0.90934740714176        1.94939031752177
H           -7.05293933431967        0.81722159595725        2.01181311722102
H           -5.88667001621581        0.14647098419161        3.18196685905436
H           -0.83595071597624        2.70437109617717       -2.66292095781215
H           -1.33621234256621        3.14082617483738       -1.01253843333606
H           -2.52864538035051        3.11552139898552       -2.33242048604831
H            0.06078003425262        0.53186179979602       -1.60770399679796
H           -0.55357813563013       -2.86178346166553       -1.64645891916364
H            1.20940307755186       -2.98556223979500       -1.52837332432561
H            0.47072383678109       -1.59085371437039       -2.33788505039125
H            0.93395370348292       -3.26277891966746        0.97982357618682
H            0.19349659973981       -1.96497024492657        1.93745303390984
H           -0.82217505971483       -3.00190077938331        0.92422395090527
H            1.41897259060511        0.26633265518734        0.08686614980245
H            7.47511499492590        0.47668242343583        1.41470350232779
H            7.34182051370457        2.04848297180198        0.59727855161129
H            7.58425791416316        0.55823451410945       -0.34256665772959

          :  Hamiltonian                  GFN1-xTB          :
         :: total energy             -83.628678875714 Eh    ::
         :: gradient norm              0.000274299730 Eh/a0 ::
         :: HOMO-LUMO gap              0.244219902392 eV    ::
         :: SCC energy               -84.366672659906 Eh    ::
         :: -> Gsolv                  -0.300977120806 Eh    ::
         :: repulsion energy           0.763467488978 Eh    ::

    * Orbital Energies and Occupations

         #    Occupation            Energy/Eh            Energy/eV
      -------------------------------------------------------------
         1        2.0000           -0.8513030             -23.1651
       ...           ...                  ...                  ...
        56        2.0000           -0.4422779             -12.0350
        57        2.0000           -0.4376893             -11.9101
        58        2.0000           -0.4349241             -11.8349
        59        2.0000           -0.4267646             -11.6129
        60        2.0000           -0.4240189             -11.5381
        61        2.0000           -0.4201706             -11.4334
        62        2.0000           -0.3994464             -10.8695
        63        2.0000           -0.3936763             -10.7125
        64        2.0000           -0.3702396             -10.0747
        65        2.0000           -0.3543588              -9.6426
        66        2.0000           -0.3307566              -9.0003
        67        2.0000           -0.3096363              -8.4256
        68        1.9824           -0.3018552              -8.2139 (HOMO)
        69        0.0176           -0.2928803              -7.9697 (LUMO)
        70                         -0.2462956              -6.7020
        71                         -0.2016139              -5.4862
        72                         -0.1897896              -5.1644
        73                         -0.1806216              -4.9150
        74                         -0.1379103              -3.7527
        75                         -0.1087244              -2.9585
        76                         -0.0977506              -2.6599
        77                         -0.0965216              -2.6265
        78                         -0.0860219              -2.3408
        79                         -0.0725211              -1.9734
       ...                                ...                  ...
       134                          0.7343521              19.9827
      -------------------------------------------------------------
                  HL-Gap            0.0089749 Eh            0.2442 eV

Wiberg/Mayer (AO) data.
largest (>0.10) Wiberg bond orders for each atom

     #   Z sym  total        # sym  WBO       # sym  WBO       # sym  WBO
 ---------------------------------------------------------------------------
     1   6 C    3.919 --    27 H    0.987    26 H    0.980    28 H    0.980
                             2 O    0.949
     2   8 O    2.105 --     3 C    0.973     1 C    0.949
     3   6 C    3.852 --     4 O    1.493     5 C    1.246     2 O    0.973
     4   8 O    1.791 --     3 C    1.493
     5   6 C    3.881 --     6 C    1.272     3 C    1.246    25 N    1.048
     6   6 C    3.888 --     7 O    1.530     5 C    1.272     8 C    0.881
     7   8 O    1.810 --     6 C    1.530
     8   6 C    3.915 --    10 O    1.221     9 C    0.938     6 C    0.881
                            11 N    0.777
     9   6 C    3.985 --    30 H    0.991    29 H    0.989    31 H    0.986
                             8 C    0.938
    10   8 O    1.494 --     8 C    1.221
    11   7 N    3.166 --    12 C    1.135    32 H    0.935     8 C    0.777
                            25 N    0.145
    12   6 C    3.954 --    25 N    1.675    11 N    1.135    13 C    0.962
    13   6 C    3.915 --    15 C    0.994    14 C    0.984    12 C    0.962
                            16 N    0.902
    14   6 C    3.993 --    33 H    0.986    13 C    0.984    35 H    0.984
                            34 H    0.983
    15   6 C    3.995 --    13 C    0.994    37 H    0.987    36 H    0.985
                            38 H    0.983
    16   7 N    3.377 --    17 C    1.296    13 C    0.902    39 H    0.896
                            18 O    0.186
    17   6 C    3.918 --    18 O    1.559    16 N    1.296    19 C    0.983
    18   8 O    1.876 --    17 C    1.559    16 N    0.186
    19   6 C    3.859 --    20 N    1.611    24 O    1.058    17 C    0.983
    20   7 N    3.000 --    19 C    1.611    21 N    1.189
    21   7 N    2.980 --    22 C    1.617    20 N    1.189
    22   6 C    3.872 --    21 N    1.617    24 O    1.079    23 C    1.030
    23   6 C    3.988 --    22 C    1.030    41 H    0.983    42 H    0.966
                            40 H    0.964
    24   8 O    2.318 --    22 C    1.079    19 C    1.058
    25   7 N    3.006 --    12 C    1.675     5 C    1.048    11 N    0.145
    26   1 H    1.021 --     1 C    0.980
    27   1 H    1.020 --     1 C    0.987
    28   1 H    1.021 --     1 C    0.980
    29   1 H    1.018 --     9 C    0.989
    30   1 H    1.017 --     9 C    0.991
    31   1 H    1.027 --     9 C    0.986
    32   1 H    0.985 --    11 N    0.935
    33   1 H    1.008 --    14 C    0.986
    34   1 H    1.013 --    14 C    0.983
    35   1 H    1.009 --    14 C    0.984
    36   1 H    1.013 --    15 C    0.985
    37   1 H    1.012 --    15 C    0.987
    38   1 H    1.026 --    15 C    0.983
    39   1 H    0.970 --    16 N    0.896
    40   1 H    0.998 --    23 C    0.964
    41   1 H    1.000 --    23 C    0.983
    42   1 H    0.998 --    23 C    0.966
 ---------------------------------------------------------------------------

           -------------------------------------------------
          | TOTAL ENERGY              -83.628678875714 Eh   |
          | GRADIENT NORM               0.000274299730 Eh/α |
          | HOMO-LUMO GAP               0.244219902392 eV   |
           -------------------------------------------------

 * finished run on 2023/06/21 at 17:25:41.224
