   * xtb version 6.5.1 (579679a) compiled by 'ehlert@majestix' on 2022-07-11
          program call               : /lustre/hpc/kemi/ree/PhD/git/ReactivityQM/dep/xtb-6.5.1/bin/xtb --gfn 1 /lustre/hpc/kemi/ree/PhD/git/ReactivityQM/calculations/RaltegravirCLI/reac02prodE06/conf09/RaltegravirCLI_reac02prodE06_conf09_gfn1.xyz --opt --vfukui --chrg -1 --uhf 0 --alpb DMSO

   ID    Z sym.   atoms
    1    6 C      1, 3-6, 9, 10, 13-18, 20-22, 24
    2    7 N      2, 7, 8, 12
    3    8 O      11, 23, 25
    4    9 F      19
    5    1 H      26-47

      * Solvation model:               ALPB
        Solvent                        DMSO
        Solvent mass                       7.8130E+01 g/mol
          :  Hamiltonian                  GFN1-xTB          :
 * total energy  :   -80.1744336 Eh     change       -0.3010143E-09 Eh
 * total energy  :   -80.1811456 Eh     change       -0.6711977E-02 Eh
 * total energy  :   -80.1828645 Eh     change       -0.1718960E-02 Eh
 * total energy  :   -80.1832566 Eh     change       -0.3920650E-03 Eh
 * total energy  :   -80.1836513 Eh     change       -0.3946938E-03 Eh
 * total energy  :   -80.1839211 Eh     change       -0.2698353E-03 Eh
 * total energy  :   -80.1841781 Eh     change       -0.2570405E-03 Eh
 * total energy  :   -80.1844123 Eh     change       -0.2341746E-03 Eh
 * total energy  :   -80.1846566 Eh     change       -0.2442889E-03 Eh
 * total energy  :   -80.1849037 Eh     change       -0.2471288E-03 Eh
 * total energy  :   -80.1881304 Eh     change       -0.2024946E-04 Eh
 * total energy  :   -80.1881474 Eh     change       -0.1700674E-04 Eh
 * total energy  :   -80.1881627 Eh     change       -0.1529823E-04 Eh
 * total energy  :   -80.1881763 Eh     change       -0.1360424E-04 Eh
 * total energy  :   -80.1881883 Eh     change       -0.1191257E-04 Eh
 * total energy  :   -80.1881977 Eh     change       -0.9454628E-05 Eh
 * total energy  :   -80.1882053 Eh     change       -0.7638216E-05 Eh
 * total energy  :   -80.1882118 Eh     change       -0.6443816E-05 Eh
 * total energy  :   -80.1882144 Eh     change       -0.2609626E-05 Eh
   *** GEOMETRY OPTIMIZATION CONVERGED AFTER 94 ITERATIONS ***

 final structure:
================
47
 xtb: 6.5.1 (579679a)
C            4.21932553742532       -1.96044803991714        1.52157570441018
N            3.01013040348265       -1.26796599149774        1.08471951963076
C            2.92848490800652       -0.51922944028847       -0.06872110085466
C            4.12941628593849       -0.31469917074434       -0.98764589473950
C            5.00380650647632        0.81072903177241       -0.41408084981942
C            3.63069882280784        0.09579515343557       -2.38404530350024
N            4.92594464429000       -1.53508804784416       -1.09331637760232
N            1.84827249534735        0.10212261312158       -0.40688525556406
C            0.69832534890433        0.04508538914032        0.34362744984864
C           -0.41294499544797        0.85749703507213       -0.20195632881683
O           -0.32263531767313        1.42973704572169       -1.29771294939285
N           -1.51318683400544        0.98129509971467        0.57900164462108
C           -2.69579608728153        1.67435935535638        0.12806661148465
C           -3.81770326333825        0.70795967553051       -0.45212920738986
C           -3.17980945094704       -0.12542528982553       -1.58826936921276
C           -4.33038629899921       -0.19266735800017        0.64238245762865
C           -5.57918686494364       -0.06894298522477        1.18208501115237
C           -6.47454738882509        0.87445610068487        0.67399409575827
F           -7.73141398603479        0.97378432593916        1.22992057989640
C           -6.15252882195676        1.67288507745110       -0.42333199469446
C           -4.91571426574157        1.58538478305336       -0.99970895633838
C            0.70879839830031       -0.73412906229944        1.48403884101223
O           -0.37594599011044       -0.90851119357580        2.29523926916758
C            1.88640025956057       -1.43409153190237        1.89653425520573
O            1.91776513270151       -2.13529762154934        2.92014057239069
H            4.10622845253285       -2.20928393521567        2.57737839641188
H            5.09011972856847       -1.32472466286860        1.39083180688702
H            4.35757400415424       -2.87597781930048        0.94680118800814
H            4.41080007790832        1.71746879565650       -0.29505540662950
H            5.41604335768395        0.53276197268384        0.55437068287089
H            5.82975171198801        1.01751493908645       -1.09311055230886
H            4.48260952801217        0.21637784256502       -3.05068906933602
H            2.97240120396371       -0.67287635647534       -2.78763627432296
H            3.08163533814924        1.03588644607107       -2.33213777567757
H            5.81669465926527       -1.31460663265551       -1.51394462771159
H            4.46046662130270       -2.19730254098029       -1.70063539166895
H           -1.58319713933765        0.46588143984556        1.44130146186508
H           -2.41150530383882        2.39233288127926       -0.64869362962177
H           -3.13041171358307        2.21877338073111        0.97115505887291
H           -2.42481380977635       -0.80375148547073       -1.18907131922693
H           -2.71319524515209        0.52460192430767       -2.32996313211012
H           -3.95342953660051       -0.71813325421474       -2.07670437000962
H           -3.64198197007650       -0.94123653712534        1.02175848761857
H           -5.89530573243933       -0.71712491888722        1.99364909429809
H           -6.90284990120490        2.34367872484672       -0.83048077544771
H           -4.67347014410958        2.18671680476888       -1.87029633575025
H           -0.09973136534344       -1.49157296197933        3.02592005870142

          :  Hamiltonian                  GFN1-xTB          :
         :: total energy             -80.188214400035 Eh    ::
         :: gradient norm              0.000188581361 Eh/a0 ::
         :: HOMO-LUMO gap              0.263526650101 eV    ::
         :: SCC energy               -81.044159852999 Eh    ::
         :: -> Gsolv                  -0.102390579645 Eh    ::
         :: repulsion energy           0.886587830814 Eh    ::

    * Orbital Energies and Occupations

         #    Occupation            Energy/Eh            Energy/eV
      -------------------------------------------------------------
         1        2.0000           -0.8010554             -21.7978
       ...           ...                  ...                  ...
        56        2.0000           -0.4562185             -12.4143
        57        2.0000           -0.4413332             -12.0093
        58        2.0000           -0.4409108             -11.9978
        59        2.0000           -0.4387917             -11.9401
        60        2.0000           -0.4310001             -11.7281
        61        2.0000           -0.4219936             -11.4830
        62        2.0000           -0.4165062             -11.3337
        63        2.0000           -0.4094222             -11.1409
        64        2.0000           -0.4042634             -11.0006
        65        2.0000           -0.4024868             -10.9522
        66        2.0000           -0.3951842             -10.7535
        67        2.0000           -0.3947187             -10.7408
        68        1.9878           -0.2981241              -8.1124 (HOMO)
        69        0.0122           -0.2884397              -7.8488 (LUMO)
        70                         -0.2498917              -6.7999
        71                         -0.2101334              -5.7180
        72                         -0.1992486              -5.4218
        73                         -0.1281052              -3.4859
        74                         -0.1257163              -3.4209
        75                         -0.1205878              -3.2814
        76                         -0.1158004              -3.1511
        77                         -0.1099671              -2.9924
        78                         -0.0928782              -2.5273
        79                         -0.0891558              -2.4261
       ...                                ...                  ...
       144                          0.7036312              19.1468
      -------------------------------------------------------------
                  HL-Gap            0.0096844 Eh            0.2635 eV

Wiberg/Mayer (AO) data.
largest (>0.10) Wiberg bond orders for each atom

     #   Z sym  total        # sym  WBO       # sym  WBO       # sym  WBO
 ---------------------------------------------------------------------------
     1   6 C    3.935 --    27 H    0.979    28 H    0.978    26 H    0.976
                             2 N    0.938
     2   7 N    3.425 --     3 C    1.151    24 C    1.088     1 C    0.938
                            25 O    0.113
     3   6 C    3.905 --     8 N    1.586     2 N    1.151     4 C    0.975
     4   6 C    3.966 --     6 C    0.990     5 C    0.984     7 N    0.982
                             3 C    0.975
     5   6 C    3.993 --    29 H    0.986     4 C    0.984    31 H    0.984
                            30 H    0.980
     6   6 C    3.995 --     4 C    0.990    32 H    0.987    33 H    0.985
                            34 H    0.982
     7   7 N    2.977 --     4 C    0.982    36 H    0.943    35 H    0.942
     8   7 N    3.024 --     3 C    1.586     9 C    1.176
     9   6 C    3.898 --    22 C    1.415     8 N    1.176    10 C    1.043
    10   6 C    3.899 --    11 O    1.502    12 N    1.233     9 C    1.043
    11   8 O    1.809 --    10 C    1.502    12 N    0.158
    12   7 N    3.358 --    10 C    1.233    13 C    0.968    37 H    0.898
                            11 O    0.158
    13   6 C    3.926 --    39 H    0.980    38 H    0.975    12 N    0.968
                            14 C    0.898
    14   6 C    3.983 --    16 C    1.024    21 C    1.021    15 C    0.978
                            13 C    0.898
    15   6 C    3.990 --    42 H    0.988    40 H    0.986    41 H    0.985
                            14 C    0.978
    16   6 C    3.911 --    17 C    1.599    14 C    1.024    43 H    0.974
    17   6 C    3.994 --    16 C    1.599    18 C    1.309    44 H    0.971
    18   6 C    3.652 --    20 C    1.317    17 C    1.309    19 F    0.858
    19   9 F    0.949 --    18 C    0.858
    20   6 C    3.993 --    21 C    1.589    18 C    1.317    45 H    0.971
    21   6 C    3.855 --    20 C    1.589    14 C    1.021    46 H    0.976
    22   6 C    3.853 --     9 C    1.415    24 C    1.161    23 O    1.035
    23   8 O    2.024 --    22 C    1.035    47 H    0.815
    24   6 C    3.870 --    25 O    1.484    22 C    1.161     2 N    1.088
    25   8 O    1.816 --    24 C    1.484     2 N    0.113
    26   1 H    1.013 --     1 C    0.976
    27   1 H    1.022 --     1 C    0.979
    28   1 H    1.019 --     1 C    0.978
    29   1 H    1.005 --     5 C    0.986
    30   1 H    1.006 --     5 C    0.980
    31   1 H    1.001 --     5 C    0.984
    32   1 H    1.005 --     6 C    0.987
    33   1 H    1.009 --     6 C    0.985
    34   1 H    1.018 --     6 C    0.982
    35   1 H    0.957 --     7 N    0.942
    36   1 H    0.959 --     7 N    0.943
    37   1 H    0.960 --    12 N    0.898
    38   1 H    1.020 --    13 C    0.975
    39   1 H    1.024 --    13 C    0.980
    40   1 H    1.010 --    15 C    0.986
    41   1 H    1.014 --    15 C    0.985
    42   1 H    1.020 --    15 C    0.988
    43   1 H    1.004 --    16 C    0.974
    44   1 H    1.006 --    17 C    0.971
    45   1 H    1.006 --    20 C    0.971
    46   1 H    1.003 --    21 C    0.976
    47   1 H    0.862 --    23 O    0.815
 ---------------------------------------------------------------------------

           -------------------------------------------------
          | TOTAL ENERGY              -80.188214400035 Eh   |
          | GRADIENT NORM               0.000188581361 Eh/α |
          | HOMO-LUMO GAP               0.263526650101 eV   |
           -------------------------------------------------

 * finished run on 2023/06/20 at 15:03:37.951
