                         Program Version 5.0.1 -  RELEASE  -
|  1> # ORCA input file
|  2> ! SP r2SCAN-3c CPCM
|  3>
|  4> %maxcore 1875.0
|  5> %pal nprocs 4 end
|  6> %cpcm smd true SMDsolvent "DMSO" end
|  7>
|  8> *xyz 0 1
|  9> C       1.243878   -0.062289   -0.129486
| 10> B      -0.319307    0.016054    0.045537
| 11> O      -0.891867    1.211919    0.389333
| 12> O      -1.066676   -1.112472   -0.163056
| 13> H       1.750295    0.720245    0.433287
| 14> H       1.630523   -1.029725    0.188165
| 15> H       1.508786    0.063518   -1.180304
| 16> H      -1.840980    1.255057    0.480694
| 17> H      -2.014652   -1.062307   -0.064169
| 18> **                         ****END OF INPUT****

CARTESIAN COORDINATES (ANGSTROEM)
---------------------------------
  C      1.243878   -0.062289   -0.129486
  B     -0.319307    0.016054    0.045537
  O     -0.891867    1.211919    0.389333
  O     -1.066676   -1.112472   -0.163056
  H      1.750295    0.720245    0.433287
  H      1.630523   -1.029725    0.188165
  H      1.508786    0.063518   -1.180304
  H     -1.840980    1.255057    0.480694
  H     -2.014652   -1.062307   -0.064169

 Total Charge           Charge          ....    0
 Multiplicity           Mult            ....    1
 Number of Electrons    NEL             ....   32
 Basis Dimension        Dim             ....  111

ORBITAL ENERGIES
----------------

  NO   OCC          E(Eh)            E(eV)
   0   2.0000     -18.955016      -515.7922
   1   2.0000     -18.954707      -515.7838
   2   2.0000      -9.993086      -271.9257
   3   2.0000      -6.652543      -181.0249
   4   2.0000      -0.996868       -27.1261
   5   2.0000      -0.962668       -26.1955
   6   2.0000      -0.657662       -17.8959
   7   2.0000      -0.524469       -14.2715
   8   2.0000      -0.511261       -13.9121
   9   2.0000      -0.384953       -10.4751
  10   2.0000      -0.374671       -10.1953
  11   2.0000      -0.349046        -9.4980
  12   2.0000      -0.327733        -8.9181
  13   2.0000      -0.305642        -8.3169
  14   2.0000      -0.297703        -8.1009
  15   2.0000      -0.286790        -7.8040
  16   0.0000       0.033358         0.9077
  17   0.0000       0.040962         1.1146
  18   0.0000       0.084546         2.3006
  19   0.0000       0.106237         2.8908
  20   0.0000       0.136024         3.7014

MULLIKEN ATOMIC CHARGES
-----------------------
   0 C :   -0.694958
   1 B :    0.593089
   2 O :   -0.532591
   3 O :   -0.526276
   4 H :    0.161817
   5 H :    0.163914
   6 H :    0.177272
   7 H :    0.328615
   8 H :    0.329117
Sum of atomic charges:    0.0000000

LOEWDIN ATOMIC CHARGES
----------------------
   0 C :   -0.495080
   1 B :    0.270119
   2 O :   -0.434699
   3 O :   -0.434533
   4 H :    0.172632
   5 H :    0.174506
   6 H :    0.183163
   7 H :    0.281872
   8 H :    0.282020

  Mayer bond orders larger than 0.100000
B(  0-C ,  1-B ) :   1.0700 B(  0-C ,  4-H ) :   0.9507 B(  0-C ,  5-H ) :   0.9479
B(  0-C ,  6-H ) :   0.9340 B(  1-B ,  2-O ) :   1.0940 B(  1-B ,  3-O ) :   1.0876
B(  2-O ,  7-H ) :   0.8810 B(  3-O ,  8-H ) :   0.8809

Dispersion correction           -0.001359430
FINAL SINGLE POINT ENERGY      -216.501797288538

DIPOLE MOMENT
-------------
                                X             Y             Z
Electronic contribution:     -3.44992       0.17399       0.39971
Nuclear contribution   :      2.42787      -0.12435      -0.32447
                        -----------------------------------------
Total Dipole Moment    :     -1.02205       0.04964       0.07524
                        -----------------------------------------
Magnitude (a.u.)       :      1.02602
Magnitude (Debye)      :      2.60794

Rotational constants in cm-1:     0.324775     0.270075     0.151560
Rotational constants in MHz :  9736.524323  8096.640165  4543.655899

                             ****ORCA TERMINATED NORMALLY****
TOTAL RUN TIME: 0 days 0 hours 0 minutes 11 seconds 706 msec
