   * xtb version 6.5.1 (579679a) compiled by 'ehlert@majestix' on 2022-07-11
          program call               : /lustre/hpc/kemi/ree/PhD/applications/universalRXNpredictor/dep/xtb-6.5.1/bin/xtb --gfn 2 /lustre/hpc/kemi/ree/PhD/applications/universalRXNpredictor/src/uniRXNpred/test/calc/methyl_cation/methyl_cation.xyz --opt --vfukui --lmo --chrg 1 --uhf 0 --alpb DMSO

   ID    Z sym.   atoms
    1    6 C      1
    2    1 H      2-4

      * Solvation model:               ALPB
        Solvent                        DMSO
        Solvent mass                       7.8130E+01 g/mol
          :  Hamiltonian                  GFN2-xTB          :
 * total energy  :    -3.1339349 Eh     change       -0.7371881E-13 Eh
 * total energy  :    -3.1357104 Eh     change       -0.1775467E-02 Eh
 * total energy  :    -3.1358065 Eh     change       -0.9610190E-04 Eh
 * total energy  :    -3.1328868 Eh     change        0.2919686E-02 Eh
 * total energy  :    -3.1354945 Eh     change       -0.2607648E-02 Eh
 * total energy  :    -3.1358135 Eh     change       -0.3190624E-03 Eh
 * total energy  :    -3.1358169 Eh     change       -0.3404837E-05 Eh
   *** GEOMETRY OPTIMIZATION CONVERGED AFTER 7 ITERATIONS ***

 final structure:
================
4
 xtb: 6.5.1 (579679a)
C            0.00030752131623       -0.00007588952835        0.00132760573040
H            1.07437264700912       -0.24786190039441        0.00700586203386
H           -0.75192316713291       -0.80606876622570       -0.01207800293462
H           -0.32275700119244        1.05400655614846        0.00374453517037

          :  Hamiltonian                  GFN2-xTB          :
         :: total energy              -3.135816932689 Eh    ::
         :: gradient norm              0.000540802358 Eh/a0 ::
         :: HOMO-LUMO gap              2.138959239345 eV    ::
         :: SCC energy                -3.181659827555 Eh    ::
         :: -> dispersion             -0.000199455713 Eh    ::
         :: -> Gsolv                  -0.118113790961 Eh    ::
         :: repulsion energy           0.045842892649 Eh    ::

    * Orbital Energies and Occupations

         #    Occupation            Energy/Eh            Energy/eV
      -------------------------------------------------------------
         1        2.0000           -0.7245638             -19.7164
         2        2.0000           -0.6097868             -16.5931
         3        2.0000           -0.6097081             -16.5910 (HOMO)
         4                         -0.5311028             -14.4520 (LUMO)
         5                         -0.0196421              -0.5345
         6                          0.1351803               3.6784
         7                          0.1359607               3.6997
      -------------------------------------------------------------
                  HL-Gap            0.0786053 Eh            2.1390 eV

     #   Z          covCN         q      C6AA      α(0)
     1   6 C        2.769    -0.003    28.076     8.678
     2   1 H        0.923     0.334     0.615     1.227
     3   1 H        0.923     0.334     0.615     1.227
     4   1 H        0.923     0.334     0.616     1.227

Wiberg/Mayer (AO) data.
largest (>0.10) Wiberg bond orders for each atom

     #   Z sym  total        # sym  WBO       # sym  WBO       # sym  WBO
 ---------------------------------------------------------------------------
     1   6 C    2.659 --     4 H    0.886     3 H    0.886     2 H    0.886
     2   1 H    0.888 --     1 C    0.886
     3   1 H    0.888 --     1 C    0.886
     4   1 H    0.888 --     1 C    0.886
 ---------------------------------------------------------------------------

molecular dipole:
                 x           y           z       tot (Debye)
 q only:       -0.000      -0.000      -0.001
   full:       -0.000      -0.000       0.000       0.001

           -------------------------------------------------
          | TOTAL ENERGY               -3.135816932689 Eh   |
          | GRADIENT NORM               0.000540802358 Eh/α |
          | HOMO-LUMO GAP               2.138959239345 eV   |
           -------------------------------------------------

 * finished run on 2022/12/12 at 12:39:40.171
