                         Program Version 5.0.1 -  RELEASE  -
|  1> # ORCA input file
|  2> ! OPT NumFreq r2SCAN-3c CPCM
|  3>
|  4> %maxcore 7500.0
|  5> %pal nprocs True end
|  6> %cpcm smd true SMDsolvent "DMSO" end
|  7>
|  8> *xyz 1 1
|  9> C       0.000308   -0.000076    0.001328
| 10> H       1.074373   -0.247862    0.007006
| 11> H      -0.751923   -0.806069   -0.012078
| 12> H      -0.322757    1.054007    0.003745
| 13> **                         ****END OF INPUT****
 Total Charge           Charge          ....    1
 Multiplicity           Mult            ....    1
 Number of Electrons    NEL             ....    8
Dispersion correction           -0.000168539
FINAL SINGLE POINT ENERGY       -39.584709529030
Dispersion correction            ... Starting D4
Dispersion correction           -0.000168562
FINAL SINGLE POINT ENERGY       -39.584989731371
Dispersion correction            ... Starting D4
Dispersion correction           -0.000168567
FINAL SINGLE POINT ENERGY       -39.584916330860
Dispersion correction            ... Starting D4
Dispersion correction           -0.000168562
FINAL SINGLE POINT ENERGY       -39.584999098151
Dispersion correction            ... Starting D4
                    ***********************HURRAY********************

CARTESIAN COORDINATES (ANGSTROEM)
---------------------------------
  C      0.000144    0.000248    0.000096
  H      1.061997   -0.245095    0.007330
  H     -0.743332   -0.797525   -0.011538
  H     -0.318809    1.042372    0.004113

 Multiplicity           Mult            ....    1
 Number of Electrons    NEL             ....    8
 Basis Dimension        Dim             ....   34

ORBITAL ENERGIES
----------------

  NO   OCC          E(Eh)            E(eV)
   0   2.0000     -10.230191      -278.3777
   1   2.0000      -0.743558       -20.2332
   2   2.0000      -0.484224       -13.1764
   3   2.0000      -0.484059       -13.1719
   4   0.0000      -0.242786        -6.6066
   5   0.0000       0.100188         2.7262
   6   0.0000       0.163016         4.4359
   7   0.0000       0.163422         4.4469
   8   0.0000       0.215927         5.8757

MULLIKEN ATOMIC CHARGES
-----------------------
   0 C :    0.204073
   1 H :    0.265333
   2 H :    0.265183
   3 H :    0.265410
Sum of atomic charges:    1.0000000

LOEWDIN ATOMIC CHARGES
----------------------
   0 C :    0.344831
   1 H :    0.218326
   2 H :    0.218493
   3 H :    0.218350

  Mayer bond orders larger than 0.100000
B(  0-C ,  1-H ) :   0.9184 B(  0-C ,  2-H ) :   0.9184 B(  0-C ,  3-H ) :   0.9183

Dispersion correction           -0.000168562
FINAL SINGLE POINT ENERGY       -39.584999120886

DIPOLE MOMENT
-------------
                                X             Y             Z
Electronic contribution:      0.00051       0.00063       0.00017
Nuclear contribution   :     -0.00043      -0.00074      -0.00029
                        -----------------------------------------
Total Dipole Moment    :      0.00008      -0.00011      -0.00011
                        -----------------------------------------
Magnitude (a.u.)       :      0.00018
Magnitude (Debye)      :      0.00046

VIBRATIONAL FREQUENCIES
-----------------------

Scaling factor for frequencies =  1.000000000 (already applied!)

   0:         0.00 cm**-1
   1:         0.00 cm**-1
   2:         0.00 cm**-1
   3:         0.00 cm**-1
   4:         0.00 cm**-1
   5:         0.00 cm**-1
   6:      1380.04 cm**-1
   7:      1389.30 cm**-1
   8:      1441.70 cm**-1
   9:      3075.05 cm**-1
  10:      3283.35 cm**-1
  11:      3284.30 cm**-1

IR SPECTRUM
-----------

 Mode   freq       eps      Int      T**2         TX        TY        TZ
       cm**-1   L/(mol*cm) km/mol    a.u.
----------------------------------------------------------------------------
  6:   1380.04   0.005530   27.95  0.001251  ( 0.023944 -0.026024 -0.000092)
  7:   1389.30   0.005735   28.98  0.001288  ( 0.026234  0.024495  0.000212)
  8:   1441.70   0.003718   18.79  0.000805  (-0.000036  0.000183 -0.028367)
  9:   3075.05   0.000004    0.02  0.000000  ( 0.000447  0.000503  0.000026)
 10:   3283.35   0.013048   65.94  0.001240  ( 0.035199 -0.001007  0.000304)
 11:   3284.30   0.013187   66.64  0.001253  (-0.001692 -0.035356 -0.000266)

--------------------------
THERMOCHEMISTRY AT 298.15K
--------------------------

Temperature         ... 298.15 K
Pressure            ... 1.00 atm
Total Mass          ... 15.03 AMU

Throughout the following assumptions are being made:
  (1) The electronic state is orbitally nondegenerate
  (2) There are no thermally accessible electronically excited states
  (3) Hindered rotations indicated by low frequency modes are not
      treated as such but are treated as vibrations and this may
      cause some error
  (4) All equations used are the standard statistical mechanics
      equations for an ideal gas
  (5) All vibrations are strictly harmonic

freq.    1380.04  E(vib)   ...       0.01
freq.    1389.30  E(vib)   ...       0.00
freq.    1441.70  E(vib)   ...       0.00
freq.    3075.05  E(vib)   ...       0.00
freq.    3283.35  E(vib)   ...       0.00
freq.    3284.30  E(vib)   ...       0.00

------------
INNER ENERGY
------------

The inner energy is: U= E(el) + E(ZPE) + E(vib) + E(rot) + E(trans)
    E(el)   - is the total energy from the electronic structure calculation
              = E(kin-el) + E(nuc-el) + E(el-el) + E(nuc-nuc)
    E(ZPE)  - the the zero temperature vibrational energy from the frequency calculation
    E(vib)  - the the finite temperature correction to E(ZPE) due to population
              of excited vibrational states
    E(rot)  - is the rotational thermal energy
    E(trans)- is the translational thermal energy

Summary of contributions to the inner energy U:
Electronic energy                ...    -39.58499912 Eh
Zero point energy                ...      0.03156114 Eh      19.80 kcal/mol
Thermal vibrational correction   ...      0.00002211 Eh       0.01 kcal/mol
Thermal rotational correction    ...      0.00141627 Eh       0.89 kcal/mol
Thermal translational correction ...      0.00141627 Eh       0.89 kcal/mol
-----------------------------------------------------------------------
Total thermal energy                    -39.55058333 Eh

Summary of corrections to the electronic energy:
(perhaps to be used in another calculation)
Total thermal correction                  0.00285465 Eh       1.79 kcal/mol
Non-thermal (ZPE) correction              0.03156114 Eh      19.80 kcal/mol
-----------------------------------------------------------------------
Total correction                          0.03441579 Eh      21.60 kcal/mol

--------
ENTHALPY
--------

The enthalpy is H = U + kB*T
                kB is Boltzmann's constant
Total free energy                 ...    -39.55058333 Eh
Thermal Enthalpy correction       ...      0.00094421 Eh       0.59 kcal/mol
-----------------------------------------------------------------------
Total Enthalpy                    ...    -39.54963912 Eh

Note: Only C1 symmetry has been detected, increase convergence thresholds
      if your molecule has a higher symmetry. Symmetry factor of 1.0 is
      used for the rotational entropy correction.

Note: Rotational entropy computed according to Herzberg
Infrared and Raman Spectra, Chapter V,1, Van Nostrand Reinhold, 1945
Point Group:  C1, Symmetry Number:   1
Rotational constants in cm-1:     9.384839     9.380290     4.691282

Vibrational entropy computed according to the QRRHO of S. Grimme
Chem.Eur.J. 2012 18 9955

-------
ENTROPY
-------

The entropy contributions are T*S = T*(S(el)+S(vib)+S(rot)+S(trans))
     S(el)   - electronic entropy
     S(vib)  - vibrational entropy
     S(rot)  - rotational entropy
     S(trans)- translational entropy
The entropies will be listed as multiplied by the temperature to get
units of energy

Electronic entropy                ...      0.00000000 Eh      0.00 kcal/mol
Vibrational entropy               ...      0.00002538 Eh      0.02 kcal/mol
Rotational entropy                ...      0.00666721 Eh      4.18 kcal/mol
Translational entropy             ...      0.01618771 Eh     10.16 kcal/mol
-----------------------------------------------------------------------
Final entropy term                ...      0.02288030 Eh     14.36 kcal/mol

In case the symmetry of your molecule has not been determined correctly
or in case you have a reason to use a different symmetry number we print
out the resulting rotational entropy values for sn=1,12 :
 --------------------------------------------------------
|  sn= 1 | S(rot)=       0.00666721 Eh      4.18 kcal/mol|
|  sn= 2 | S(rot)=       0.00601276 Eh      3.77 kcal/mol|
|  sn= 3 | S(rot)=       0.00562993 Eh      3.53 kcal/mol|
|  sn= 4 | S(rot)=       0.00535830 Eh      3.36 kcal/mol|
|  sn= 5 | S(rot)=       0.00514761 Eh      3.23 kcal/mol|
|  sn= 6 | S(rot)=       0.00497547 Eh      3.12 kcal/mol|
|  sn= 7 | S(rot)=       0.00482992 Eh      3.03 kcal/mol|
|  sn= 8 | S(rot)=       0.00470385 Eh      2.95 kcal/mol|
|  sn= 9 | S(rot)=       0.00459264 Eh      2.88 kcal/mol|
|  sn=10 | S(rot)=       0.00449316 Eh      2.82 kcal/mol|
|  sn=11 | S(rot)=       0.00440317 Eh      2.76 kcal/mol|
|  sn=12 | S(rot)=       0.00432101 Eh      2.71 kcal/mol|
 --------------------------------------------------------

-------------------
GIBBS FREE ENERGY
-------------------

The Gibbs free energy is G = H - T*S

Total enthalpy                    ...    -39.54963912 Eh
Total entropy correction          ...     -0.02288030 Eh    -14.36 kcal/mol
-----------------------------------------------------------------------
Final Gibbs free energy         ...    -39.57251943 Eh

For completeness - the Gibbs free energy minus the electronic energy
G-E(el)                           ...      0.01247969 Eh      7.83 kcal/mol

                             ****ORCA TERMINATED NORMALLY****
TOTAL RUN TIME: 0 days 0 hours 1 minutes 47 seconds 33 msec
