   * xtb version 6.5.1 (579679a) compiled by 'ehlert@majestix' on 2022-07-11
          program call               : /lustre/hpc/kemi/ree/PhD/git/ReactivityQM/dep/xtb-6.5.1/bin/xtb --gfn 1 /lustre/hpc/kemi/ree/PhD/git/ReactivityQM/calculations/R01/reac02prodE05/conf13/R01_reac02prodE05_conf13_gfn1.xyz --opt --vfukui --chrg -1 --uhf 0 --alpb DMSO

   ID    Z sym.   atoms
    1    6 C      1, 3, 5, 6, 8, 11-15
    2    8 O      2, 4, 7, 9
    3    7 N      10, 16, 17
    4    1 H      18-33

      * Solvation model:               ALPB
        Solvent                        DMSO
        Solvent mass                       7.8130E+01 g/mol
          :  Hamiltonian                  GFN1-xTB          :
 * total energy  :   -58.5429083 Eh     change       -0.1471534E-10 Eh
 * total energy  :   -58.5512385 Eh     change       -0.8330171E-02 Eh
 * total energy  :   -58.5537743 Eh     change       -0.2535789E-02 Eh
 * total energy  :   -58.5540968 Eh     change       -0.3225133E-03 Eh
 * total energy  :   -58.5542943 Eh     change       -0.1975235E-03 Eh
 * total energy  :   -58.5543569 Eh     change       -0.6251225E-04 Eh
 * total energy  :   -58.5544097 Eh     change       -0.5288077E-04 Eh
 * total energy  :   -58.5544415 Eh     change       -0.3173423E-04 Eh
 * total energy  :   -58.5544626 Eh     change       -0.2113445E-04 Eh
 * total energy  :   -58.5544766 Eh     change       -0.1404598E-04 Eh
 * total energy  :   -58.5545337 Eh     change       -0.1089090E-04 Eh
 * total energy  :   -58.5545444 Eh     change       -0.1071018E-04 Eh
 * total energy  :   -58.5545539 Eh     change       -0.9565257E-05 Eh
 * total energy  :   -58.5545617 Eh     change       -0.7778891E-05 Eh
 * total energy  :   -58.5545693 Eh     change       -0.7548417E-05 Eh
 * total energy  :   -58.5545756 Eh     change       -0.6371975E-05 Eh
 * total energy  :   -58.5545791 Eh     change       -0.3475980E-05 Eh
 * total energy  :   -58.5545849 Eh     change       -0.5763330E-05 Eh
 * total energy  :   -58.5545880 Eh     change       -0.3108643E-05 Eh
   *** GEOMETRY OPTIMIZATION CONVERGED AFTER 22 ITERATIONS ***

 final structure:
================
33
 xtb: 6.5.1 (579679a)
C            4.91671590611252        0.04760979999096       -0.95214069189414
O            3.74589291695734       -0.21439287113737       -0.18000292686545
C            2.58905872478576        0.28114533980443       -0.67493728240562
O            2.57941008406880        0.90879330517737       -1.71554883838222
C            1.38027557969681       -0.02277177127504        0.14007965354661
C            1.41721586460845       -0.42473399280848        1.48236547103240
O            2.59144574701923       -0.66797720600382        2.20817996788822
C            0.20878180089483       -0.44215377807178        2.24150880244050
O            0.09825478210585       -0.67617363294576        3.45781359956506
N           -0.93045365178170       -0.05575699856486        1.52507198472497
C           -0.97608115598565       -0.25719080102205        0.07974006516964
C           -1.20574190523350       -1.75834175307282       -0.22832120118241
C           -2.10532879831057        0.65583113828956       -0.50417791837712
C           -2.09258662993677        0.61820392715650       -2.03798663993003
C           -3.50415046337588        0.29032268808278        0.00291474827500
N           -1.82344433206490        2.03321223845499       -0.09056924714207
N            0.25992767531830        0.15903004609206       -0.54850813011450
H            4.80764942337007       -0.36428326123374       -1.95924412942150
H            5.09165778962101        1.12476688178957       -1.02389138264171
H            5.74933957960271       -0.43239322880071       -0.44205583852180
H            3.31159913868860       -0.91460584702145        1.61491694103641
H           -1.78615394881865       -0.30505521500257        2.00092666766606
H           -1.24292786236953       -1.91884720925597       -1.30391186829142
H           -2.13186795068324       -2.11065371877695        0.22127580633252
H           -0.37845344991760       -2.33876586072493        0.18017748233135
H           -1.07812010819891        0.77513705124715       -2.40811177938468
H           -2.73607724274304        1.40787217338462       -2.42770076011377
H           -2.45772523563013       -0.33924351173671       -2.40830229395027
H           -4.22207058896835        1.02574944350994       -0.36260877429879
H           -3.80670601741133       -0.69235256850753       -0.35596196343632
H           -3.54430216732053        0.29208619363670        1.09153351828597
H           -1.86081148188413        2.07128384076333        0.92357766964649
H           -0.86422002221662        2.24465115858043       -0.36171671158895

          :  Hamiltonian                  GFN1-xTB          :
         :: total energy             -58.554587975763 Eh    ::
         :: gradient norm              0.000387494827 Eh/a0 ::
         :: HOMO-LUMO gap              1.400814154339 eV    ::
         :: SCC energy               -59.087598526528 Eh    ::
         :: -> Gsolv                  -0.099860628560 Eh    ::
         :: repulsion energy           0.553093192316 Eh    ::

    * Orbital Energies and Occupations

         #    Occupation            Energy/Eh            Energy/eV
      -------------------------------------------------------------
         1        2.0000           -0.8115471             -22.0833
       ...           ...                  ...                  ...
        36        2.0000           -0.4775322             -12.9943
        37        2.0000           -0.4754818             -12.9385
        38        2.0000           -0.4736075             -12.8875
        39        2.0000           -0.4645653             -12.6415
        40        2.0000           -0.4533970             -12.3376
        41        2.0000           -0.4501874             -12.2502
        42        2.0000           -0.4388768             -11.9424
        43        2.0000           -0.4237537             -11.5309
        44        2.0000           -0.3981229             -10.8335
        45        2.0000           -0.3889576             -10.5841
        46        2.0000           -0.3788568             -10.3092
        47        2.0000           -0.3690190             -10.0415
        48        2.0000           -0.3153662              -8.5816 (HOMO)
        49                         -0.2638872              -7.1807 (LUMO)
        50                         -0.1876529              -5.1063
        51                         -0.1248274              -3.3967
        52                         -0.1148942              -3.1264
        53                         -0.1098395              -2.9889
        54                         -0.1043105              -2.8384
        55                         -0.0967202              -2.6319
        56                         -0.0684160              -1.8617
        57                         -0.0654946              -1.7822
        58                         -0.0614704              -1.6727
        59                         -0.0594949              -1.6189
       ...                                ...                  ...
       100                          0.7367609              20.0483
      -------------------------------------------------------------
                  HL-Gap            0.0514790 Eh            1.4008 eV

Wiberg/Mayer (AO) data.
largest (>0.10) Wiberg bond orders for each atom

     #   Z sym  total        # sym  WBO       # sym  WBO       # sym  WBO
 ---------------------------------------------------------------------------
     1   6 C    3.886 --    20 H    0.987    19 H    0.981    18 H    0.980
                             2 O    0.908
     2   8 O    2.185 --     3 C    1.062     1 C    0.908     4 O    0.119
     3   6 C    3.814 --     4 O    1.648     2 O    1.062     5 C    1.009
     4   8 O    1.901 --     3 C    1.648     2 O    0.119
     5   6 C    3.970 --    17 N    1.423     6 C    1.324     3 C    1.009
     6   6 C    3.859 --     5 C    1.324     8 C    1.196     7 O    0.968
                            17 N    0.185
     7   8 O    1.942 --     6 C    0.968    21 H    0.852
     8   6 C    3.916 --     9 O    1.487     6 C    1.196    10 N    1.081
     9   8 O    1.786 --     8 C    1.487    10 N    0.103
    10   7 N    3.200 --     8 C    1.081    11 C    0.939    22 H    0.922
                             9 O    0.103
    11   6 C    3.941 --    17 N    0.998    12 C    0.970    13 C    0.945
                            10 N    0.939
    12   6 C    3.995 --    25 H    0.985    24 H    0.984    23 H    0.984
                            11 C    0.970
    13   6 C    3.964 --    15 C    1.001    14 C    1.001    16 N    0.983
                            11 C    0.945
    14   6 C    3.996 --    13 C    1.001    27 H    0.987    28 H    0.985
                            26 H    0.981
    15   6 C    3.996 --    13 C    1.001    29 H    0.985    30 H    0.985
                            31 H    0.982
    16   7 N    2.955 --    13 C    0.983    32 H    0.949    33 H    0.946
    17   7 N    2.937 --     5 C    1.423    11 C    0.998     6 C    0.185
    18   1 H    1.012 --     1 C    0.980
    19   1 H    1.012 --     1 C    0.981
    20   1 H    1.013 --     1 C    0.987
    21   1 H    0.896 --     7 O    0.852
    22   1 H    0.971 --    10 N    0.922
    23   1 H    1.012 --    12 C    0.984
    24   1 H    1.007 --    12 C    0.984
    25   1 H    1.009 --    12 C    0.985
    26   1 H    1.028 --    14 C    0.981
    27   1 H    1.011 --    14 C    0.987
    28   1 H    1.007 --    14 C    0.985
    29   1 H    1.009 --    15 C    0.985
    30   1 H    1.007 --    15 C    0.985
    31   1 H    1.004 --    15 C    0.982
    32   1 H    0.982 --    16 N    0.949
    33   1 H    0.985 --    16 N    0.946
 ---------------------------------------------------------------------------

           -------------------------------------------------
          | TOTAL ENERGY              -58.554587975763 Eh   |
          | GRADIENT NORM               0.000387494827 Eh/α |
          | HOMO-LUMO GAP               1.400814154339 eV   |
           -------------------------------------------------

 * finished run on 2023/06/20 at 15:00:32.458
