   * xtb version 6.5.1 (579679a) compiled by 'ehlert@majestix' on 2022-07-11
          program call               : /lustre/hpc/kemi/ree/PhD/git/ReactivityQM/dep/xtb-6.5.1/bin/xtb --gfn 1 /lustre/hpc/kemi/ree/PhD/git/ReactivityQM/calculations/R02oxygendeprot/reac01prodE11/conf03/R02oxygendeprot_reac01prodE11_conf03_gfn1.xyz --opt --vfukui --chrg -2 --uhf 0 --alpb DMSO

   ID    Z sym.   atoms
    1    6 C      1, 3, 5, 7-10, 12, 14, 17-19, 22, 24
    2    8 O      2, 4, 13, 20, 23, 25
    3    7 N      6, 11, 15, 16, 21
    4    1 H      26-42

      * Solvation model:               ALPB
        Solvent                        DMSO
        Solvent mass                       7.8130E+01 g/mol
          :  Hamiltonian                  GFN1-xTB          :
 * total energy  :   -83.6539029 Eh     change       -0.3815614E-10 Eh
 * total energy  :   -83.6640359 Eh     change       -0.1013299E-01 Eh
 * total energy  :   -83.6672282 Eh     change       -0.3192346E-02 Eh
 * total energy  :   -83.6677506 Eh     change       -0.5224009E-03 Eh
 * total energy  :   -83.6681091 Eh     change       -0.3585086E-03 Eh
 * total energy  :   -83.6682478 Eh     change       -0.1386670E-03 Eh
 * total energy  :   -83.6683618 Eh     change       -0.1139892E-03 Eh
 * total energy  :   -83.6684256 Eh     change       -0.6380641E-04 Eh
 * total energy  :   -83.6684631 Eh     change       -0.3756376E-04 Eh
 * total energy  :   -83.6684865 Eh     change       -0.2336673E-04 Eh
 * total energy  :   -83.6685192 Eh     change       -0.9289289E-05 Eh
 * total energy  :   -83.6685256 Eh     change       -0.6419770E-05 Eh
 * total energy  :   -83.6685337 Eh     change       -0.8110847E-05 Eh
 * total energy  :   -83.6685435 Eh     change       -0.9779227E-05 Eh
 * total energy  :   -83.6685523 Eh     change       -0.8813714E-05 Eh
 * total energy  :   -83.6685604 Eh     change       -0.8131358E-05 Eh
 * total energy  :   -83.6685687 Eh     change       -0.8246478E-05 Eh
 * total energy  :   -83.6685767 Eh     change       -0.7976350E-05 Eh
 * total energy  :   -83.6685790 Eh     change       -0.2325533E-05 Eh
   *** GEOMETRY OPTIMIZATION CONVERGED AFTER 22 ITERATIONS ***

 final structure:
================
42
 xtb: 6.5.1 (579679a)
C            6.81197740344867        1.66586153528803        0.70443815132546
O            5.54484291125887        1.76317470038806        0.07451990193926
C            4.66776304454737        0.76004261252637        0.35128063566068
O            4.98799399368833       -0.14754577416011        1.11292611496767
C            3.38516968234301        0.87044326266896       -0.32163456515025
N            2.53056349493951       -0.17784729907683       -0.02098342561492
C            1.36371255093979       -0.24074333409552       -0.54691572677592
C            0.46122468675740       -1.43707487314902       -0.30071711020663
C            0.77585536266089       -2.04474208654971        1.07461122751714
C            0.75602834148338       -2.44922533904896       -1.42293741751161
N           -0.92419183914917       -0.97702174537640       -0.37949417402572
C           -1.98431450240761       -1.87971664339541       -0.14396417873666
O           -1.83238554997361       -3.11726276985548       -0.22129733774824
C           -3.21629071926714       -1.24702501825420        0.12381493841636
N           -4.38650931963573       -1.83555564662518        0.33477061828727
N           -5.32099020693381       -0.96199492914119        0.55452697638620
C           -4.70738275631657        0.37468793740793        0.48576571940713
C           -5.35859540989685        1.18726496793245       -0.64617975726644
C           -4.87486107932412        1.08891602804904        1.83697855130045
O           -3.33114963623819        0.15737672089503        0.20695116373359
N            0.91888367033537        0.71120344598554       -1.44084329246227
C            1.65225661058553        1.79923701390821       -1.82537484575359
O            1.18131607286760        2.60343911087799       -2.63023902638212
C            3.03110723653490        1.91443577785113       -1.21480220640119
O            3.74355270614869        2.88722244156667       -1.53508571441134
H            7.32703223209055        0.74764184220818        0.40355115928473
H            7.39373359116210        2.53171359122415        0.39030581229558
H            6.70727734581809        1.66793551139338        1.79424855457819
H            1.84288397672181       -2.25610170392969        1.14343363498167
H            0.50665750579151       -1.34188700286369        1.86259255407068
H            0.21850993192256       -2.96942552200389        1.21594481771699
H            1.82483648866540       -2.66111044168504       -1.44571368199449
H            0.21695876628763       -3.38034480439094       -1.26000537710411
H            0.45838324222589       -2.03133371433799       -2.38426443581726
H           -1.07504363489600       -0.08486285012749        0.07703112541679
H           -5.23431868197464        0.65653645571284       -1.58894775513913
H           -6.42097840648066        1.30945473221877       -0.44517601998443
H           -4.89151043181516        2.16755864747559       -0.72486730512017
H           -4.39263692170785        0.50139545535362        2.61660322748259
H           -4.42046720500958        2.07748597040935        1.80304047938446
H           -5.93337711319527        1.18633503387248        2.06924360097332
H           -0.00351643500464        0.61145570285021       -1.83982461151817

          :  Hamiltonian                  GFN1-xTB          :
         :: total energy             -83.668578990325 Eh    ::
         :: gradient norm              0.000206750131 Eh/a0 ::
         :: HOMO-LUMO gap              1.349212173585 eV    ::
         :: SCC energy               -84.405358436428 Eh    ::
         :: -> Gsolv                  -0.251938241731 Eh    ::
         :: repulsion energy           0.762229625229 Eh    ::

    * Orbital Energies and Occupations

         #    Occupation            Energy/Eh            Energy/eV
      -------------------------------------------------------------
         1        2.0000           -0.7916206             -21.5411
       ...           ...                  ...                  ...
        56        2.0000           -0.4450951             -12.1117
        57        2.0000           -0.4423697             -12.0375
        58        2.0000           -0.4291776             -11.6785
        59        2.0000           -0.4289324             -11.6718
        60        2.0000           -0.4274066             -11.6303
        61        2.0000           -0.4088209             -11.1246
        62        2.0000           -0.4042431             -11.0000
        63        2.0000           -0.3994379             -10.8693
        64        2.0000           -0.3869521             -10.5295
        65        2.0000           -0.3688037             -10.0357
        66        2.0000           -0.3645956              -9.9212
        67        2.0000           -0.3550031              -9.6601
        68        2.0000           -0.3107592              -8.4562 (HOMO)
        69                         -0.2611766              -7.1070 (LUMO)
        70                         -0.2332799              -6.3479
        71                         -0.2245251              -6.1096
        72                         -0.1881589              -5.1201
        73                         -0.1207301              -3.2852
        74                         -0.1183647              -3.2209
        75                         -0.1006285              -2.7382
        76                         -0.1004352              -2.7330
        77                         -0.0969825              -2.6390
        78                         -0.0946133              -2.5746
        79                         -0.0944619              -2.5704
       ...                                ...                  ...
       134                          0.7587011              20.6453
      -------------------------------------------------------------
                  HL-Gap            0.0495826 Eh            1.3492 eV

Wiberg/Mayer (AO) data.
largest (>0.10) Wiberg bond orders for each atom

     #   Z sym  total        # sym  WBO       # sym  WBO       # sym  WBO
 ---------------------------------------------------------------------------
     1   6 C    3.902 --    27 H    0.987    26 H    0.980    28 H    0.980
                             2 O    0.929
     2   8 O    2.155 --     3 C    1.039     1 C    0.929     4 O    0.107
     3   6 C    3.849 --     4 O    1.569     5 C    1.124     2 O    1.039
     4   8 O    1.846 --     3 C    1.569     2 O    0.107
     5   6 C    3.918 --    24 C    1.277     6 N    1.146     3 C    1.124
                            25 O    0.130
     6   7 N    3.026 --     7 C    1.634     5 C    1.146
     7   6 C    3.929 --     6 N    1.634    21 N    1.096     8 C    0.977
     8   6 C    3.958 --     9 C    0.988    10 C    0.980     7 C    0.977
                            11 N    0.954
     9   6 C    3.994 --     8 C    0.988    30 H    0.987    29 H    0.984
                            31 H    0.984
    10   6 C    3.992 --    32 H    0.988    34 H    0.987     8 C    0.980
                            33 H    0.978
    11   7 N    3.180 --    12 C    1.058     8 C    0.954    35 H    0.919
    12   6 C    3.924 --    13 O    1.450    14 C    1.235    11 N    1.058
    13   8 O    1.791 --    12 C    1.450
    14   6 C    3.844 --    15 N    1.393    12 C    1.235    20 O    0.922
                            16 N    0.156
    15   7 N    3.024 --    16 N    1.473    14 C    1.393
    16   7 N    2.879 --    15 N    1.473    17 C    0.981    14 C    0.156
    17   6 C    3.899 --    16 N    0.981    19 C    0.978    18 C    0.978
                            20 O    0.924
    18   6 C    3.994 --    37 H    0.988    38 H    0.987    36 H    0.985
                            17 C    0.978
    19   6 C    3.994 --    41 H    0.988    40 H    0.987    39 H    0.985
                            17 C    0.978
    20   8 O    2.052 --    17 C    0.924    14 C    0.922
    21   7 N    3.435 --    22 C    1.172     7 C    1.096    42 H    0.894
                            23 O    0.136
    22   6 C    3.882 --    23 O    1.566    21 N    1.172    24 C    0.971
    23   8 O    1.846 --    22 C    1.566    21 N    0.136
    24   6 C    3.944 --    25 O    1.508     5 C    1.277    22 C    0.971
    25   8 O    1.814 --    24 C    1.508     5 C    0.130
    26   1 H    1.015 --     1 C    0.980
    27   1 H    1.016 --     1 C    0.987
    28   1 H    1.015 --     1 C    0.980
    29   1 H    1.019 --     9 C    0.984
    30   1 H    1.007 --     9 C    0.987
    31   1 H    1.016 --     9 C    0.984
    32   1 H    1.009 --    10 C    0.988
    33   1 H    1.024 --    10 C    0.978
    34   1 H    1.009 --    10 C    0.987
    35   1 H    0.968 --    11 N    0.919
    36   1 H    1.015 --    18 C    0.985
    37   1 H    1.011 --    18 C    0.988
    38   1 H    1.008 --    18 C    0.987
    39   1 H    1.015 --    19 C    0.985
    40   1 H    1.008 --    19 C    0.987
    41   1 H    1.011 --    19 C    0.988
    42   1 H    0.955 --    21 N    0.894
 ---------------------------------------------------------------------------

           -------------------------------------------------
          | TOTAL ENERGY              -83.668578990325 Eh   |
          | GRADIENT NORM               0.000206750131 Eh/α |
          | HOMO-LUMO GAP               1.349212173585 eV   |
           -------------------------------------------------

 * finished run on 2023/06/21 at 17:12:38.501
