   * xtb version 6.5.1 (579679a) compiled by 'ehlert@majestix' on 2022-07-11
          program call               : /lustre/hpc/kemi/ree/PhD/git/ReactivityQM/dep/xtb-6.5.1/bin/xtb --gfn 1 /lustre/hpc/kemi/ree/PhD/git/ReactivityQM/calculations/R02oxygendeprot/reac01prodN14/conf20/R02oxygendeprot_reac01prodN14_conf20_gfn1.xyz --opt --vfukui --chrg 0 --uhf 0 --alpb DMSO

   ID    Z sym.   atoms
    1    6 C      1, 3, 5, 6, 8, 9, 12-15, 17, 19, 22, 23
    2    8 O      2, 4, 7, 10, 18, 24
    3    7 N      11, 16, 20, 21, 25
    4    1 H      26-42

      * Solvation model:               ALPB
        Solvent                        DMSO
        Solvent mass                       7.8130E+01 g/mol
          :  Hamiltonian                  GFN1-xTB          :
 * total energy  :   -82.8920883 Eh     change       -0.1136868E-12 Eh
 * total energy  :   -82.9084633 Eh     change       -0.1637500E-01 Eh
 * total energy  :   -82.9185173 Eh     change       -0.1005405E-01 Eh
 * total energy  :   -82.9205065 Eh     change       -0.1989186E-02 Eh
 * total energy  :   -82.9221904 Eh     change       -0.1683890E-02 Eh
 * total energy  :   -82.9231289 Eh     change       -0.9385278E-03 Eh
 * total energy  :   -82.9240863 Eh     change       -0.9573492E-03 Eh
 * total energy  :   -82.9248214 Eh     change       -0.7350788E-03 Eh
 * total energy  :   -82.9254754 Eh     change       -0.6540658E-03 Eh
 * total energy  :   -82.9260410 Eh     change       -0.5655746E-03 Eh
 * total energy  :   -82.9768735 Eh     change       -0.1859918E-04 Eh
 * total energy  :   -82.9768900 Eh     change       -0.1649009E-04 Eh
 * total energy  :   -82.9769045 Eh     change       -0.1443273E-04 Eh
 * total energy  :   -82.9769194 Eh     change       -0.1492005E-04 Eh
 * total energy  :   -82.9769263 Eh     change       -0.6878892E-05 Eh
 * total energy  :   -82.9769318 Eh     change       -0.5580514E-05 Eh
 * total energy  :   -82.9769375 Eh     change       -0.5710852E-05 Eh
 * total energy  :   -82.9769411 Eh     change       -0.3599175E-05 Eh
 * total energy  :   -82.9769457 Eh     change       -0.4528644E-05 Eh
   *** GEOMETRY OPTIMIZATION CONVERGED AFTER 92 ITERATIONS ***

 final structure:
================
42
 xtb: 6.5.1 (579679a)
C           -5.40363968587378       -2.58775672202306        1.50772083932203
O           -4.24932743440984       -1.89447920260337        1.03246314192532
C           -4.14415070925119       -0.60205646388162        1.39614772086736
O           -4.97857779770013       -0.04260412034146        2.07881282539993
C           -2.93334917418217        0.01634443007729        0.87792501600520
C           -2.53872512117063        1.32442872464668        1.09552969079788
O           -2.90152494281707        2.33289130194722        1.62766703771374
C           -1.13775925152744        2.46244948274213       -0.70916249265700
C           -2.31064647907177        2.42705623724566       -1.61731093710368
O           -0.26761907532008        3.27409328871077       -0.67535726620085
N           -1.11468465885447        1.38590070434963        0.30196479390476
C           -1.01264791188829       -0.00247153373708       -0.21053409910145
C            0.18944437073434       -0.47183534155973       -0.98028412479028
C            0.24858298495358        0.19108086914707       -2.36346543701140
C            0.10814811049959       -1.99823638807804       -1.11268892222496
N            1.37812080916151       -0.10412266512973       -0.19885332765497
C            2.64138524869204       -0.38197886980137       -0.60237210295559
O            2.95910508787896       -0.82374207580719       -1.68982644010480
C            3.61225549261067       -0.05612671384998        0.47222015227466
N            3.31620515449105        0.37202757944309        1.66304763227491
N            4.49358969190318        0.52737005381880        2.32847868528367
C            5.43446493533268        0.18203151201839        1.50137764722605
C            6.89309497111354        0.17266967081521        1.74757851692683
O            4.94030249656138       -0.19706407451196        0.31374257352535
N           -2.01410418925209       -0.70402567088211        0.12340068046302
H           -5.41461811956555       -2.60215177235954        2.60097170416935
H           -5.33843527025808       -3.60295384700504        1.12016033824475
H           -6.31416780916457       -2.10361953254081        1.14477852930082
H           -2.07867484724553        2.96486564449900       -2.53355027935104
H           -3.13141892291045        2.94057350183461       -1.11138118862452
H           -2.62235028091161        1.40852520424889       -1.83350955221672
H           -0.37935742888958        1.60822900152934        0.97029834382121
H            1.04962737577022       -0.24978278311387       -2.95382774019823
H           -0.69632847894912        0.03375689231436       -2.88032744177145
H            0.43199249000570        1.25876223470421       -2.26464283261668
H            0.08934889042659       -2.45714470238375       -0.12567475051249
H           -0.80221287560364       -2.26684028560002       -1.64582239753626
H            0.97026299260031       -2.36654097505946       -1.66514956840137
H            1.25180711715919        0.13277223290680        0.77328970815022
H            7.09968037272881        0.57797441238035        2.73512244112798
H            7.40276749400890        0.76882628056152        0.99098827570100
H            7.27413637819305       -0.84709651967111        1.68656860660038

          :  Hamiltonian                  GFN1-xTB          :
         :: total energy             -82.976945669995 Eh    ::
         :: gradient norm              0.000612764864 Eh/a0 ::
         :: HOMO-LUMO gap              2.603898233113 eV    ::
         :: SCC energy               -83.774434554060 Eh    ::
         :: -> Gsolv                  -0.058027110085 Eh    ::
         :: repulsion energy           0.824159376998 Eh    ::

    * Orbital Energies and Occupations

         #    Occupation            Energy/Eh            Energy/eV
      -------------------------------------------------------------
         1        2.0000           -0.8673963             -23.6031
       ...           ...                  ...                  ...
        55        2.0000           -0.5085235             -13.8376
        56        2.0000           -0.5080125             -13.8237
        57        2.0000           -0.5065505             -13.7839
        58        2.0000           -0.4947443             -13.4627
        59        2.0000           -0.4876281             -13.2690
        60        2.0000           -0.4854804             -13.2106
        61        2.0000           -0.4726964             -12.8627
        62        2.0000           -0.4682613             -12.7420
        63        2.0000           -0.4648163             -12.6483
        64        2.0000           -0.4615091             -12.5583
        65        2.0000           -0.4553733             -12.3913
        66        2.0000           -0.4519714             -12.2988
        67        2.0000           -0.4208991             -11.4532 (HOMO)
        68                         -0.3252076              -8.8493 (LUMO)
        69                         -0.3150788              -8.5737
        70                         -0.3055840              -8.3154
        71                         -0.2754101              -7.4943
        72                         -0.2591200              -7.0510
        73                         -0.2029245              -5.5219
        74                         -0.1688740              -4.5953
        75                         -0.1610539              -4.3825
        76                         -0.1474447              -4.0122
        77                         -0.1431543              -3.8954
        78                         -0.1413311              -3.8458
       ...                                ...                  ...
       134                          0.8426976              22.9310
      -------------------------------------------------------------
                  HL-Gap            0.0956915 Eh            2.6039 eV

Wiberg/Mayer (AO) data.
largest (>0.10) Wiberg bond orders for each atom

     #   Z sym  total        # sym  WBO       # sym  WBO       # sym  WBO
 ---------------------------------------------------------------------------
     1   6 C    3.879 --    27 H    0.986    26 H    0.980    28 H    0.980
                             2 O    0.906
     2   8 O    2.170 --     3 C    1.074     1 C    0.906     4 O    0.120
     3   6 C    3.865 --     4 O    1.615     5 C    1.082     2 O    1.074
     4   8 O    1.891 --     3 C    1.615     2 O    0.120
     5   6 C    3.885 --     6 C    1.351    25 N    1.112     3 C    1.082
                             7 O    0.139
     6   6 C    3.867 --     7 O    1.685     5 C    1.351    11 N    0.664
     7   8 O    2.032 --     6 C    1.685     5 C    0.139
     8   6 C    3.830 --    10 O    1.811     9 C    1.026    11 N    0.893
     9   6 C    3.983 --     8 C    1.026    31 H    0.971    29 H    0.970
                            30 H    0.932
    10   8 O    2.040 --     8 C    1.811
    11   7 N    3.548 --     8 C    0.893    32 H    0.869    12 C    0.862
                             6 C    0.664
    12   6 C    3.889 --    25 N    1.781    13 C    0.990    11 N    0.862
    13   6 C    3.935 --    12 C    0.990    15 C    0.984    14 C    0.979
                            16 N    0.919
    14   6 C    3.986 --    34 H    0.985    35 H    0.981    13 C    0.979
                            33 H    0.975
    15   6 C    3.987 --    36 H    0.985    13 C    0.984    37 H    0.984
                            38 H    0.982
    16   7 N    3.323 --    17 C    1.233    13 C    0.919    39 H    0.895
                            18 O    0.173
    17   6 C    3.914 --    18 O    1.607    16 N    1.233    19 C    0.991
    18   8 O    1.922 --    17 C    1.607    16 N    0.173
    19   6 C    3.876 --    20 N    1.607    24 O    1.065    17 C    0.991
    20   7 N    3.020 --    19 C    1.607    21 N    1.203
    21   7 N    2.981 --    22 C    1.602    20 N    1.203
    22   6 C    3.870 --    21 N    1.602    24 O    1.084    23 C    1.032
    23   6 C    3.986 --    22 C    1.032    40 H    0.982    41 H    0.965
                            42 H    0.961
    24   8 O    2.332 --    22 C    1.084    19 C    1.065
    25   7 N    3.063 --    12 C    1.781     5 C    1.112
    26   1 H    1.009 --     1 C    0.980
    27   1 H    1.012 --     1 C    0.986
    28   1 H    1.009 --     1 C    0.980
    29   1 H    0.994 --     9 C    0.970
    30   1 H    0.991 --     9 C    0.932
    31   1 H    0.997 --     9 C    0.971
    32   1 H    0.920 --    11 N    0.869
    33   1 H    1.009 --    14 C    0.975
    34   1 H    1.002 --    14 C    0.985
    35   1 H    1.003 --    14 C    0.981
    36   1 H    1.004 --    15 C    0.985
    37   1 H    1.005 --    15 C    0.984
    38   1 H    1.005 --    15 C    0.982
    39   1 H    0.952 --    16 N    0.895
    40   1 H    0.998 --    23 C    0.982
    41   1 H    0.996 --    23 C    0.965
    42   1 H    0.996 --    23 C    0.961
 ---------------------------------------------------------------------------

           -------------------------------------------------
          | TOTAL ENERGY              -82.976945669995 Eh   |
          | GRADIENT NORM               0.000612764864 Eh/α |
          | HOMO-LUMO GAP               2.603898233113 eV   |
           -------------------------------------------------

 * finished run on 2023/06/21 at 17:33:20.750
