   * xtb version 6.5.1 (579679a) compiled by 'ehlert@majestix' on 2022-07-11
          program call               : /lustre/hpc/kemi/ree/PhD/git/ReactivityQM/dep/xtb-6.5.1/bin/xtb --gfn 1 /lustre/hpc/kemi/ree/PhD/git/ReactivityQM/calculations/R02oxygendeprot/reac01prodE08/conf02/R02oxygendeprot_reac01prodE08_conf02_gfn1.xyz --opt --vfukui --chrg -2 --uhf 0 --alpb DMSO

   ID    Z sym.   atoms
    1    6 C      1, 3, 5, 7-10, 12, 14, 15, 18, 19, 22, 24
    2    8 O      2, 4, 13, 20, 23, 25
    3    7 N      6, 11, 16, 17, 21
    4    1 H      26-42

      * Solvation model:               ALPB
        Solvent                        DMSO
        Solvent mass                       7.8130E+01 g/mol
          :  Hamiltonian                  GFN1-xTB          :
 * total energy  :   -83.6235214 Eh     change       -0.1161027E-10 Eh
 * total energy  :   -83.6384153 Eh     change       -0.1489391E-01 Eh
 * total energy  :   -83.6441813 Eh     change       -0.5765986E-02 Eh
 * total energy  :   -83.6451947 Eh     change       -0.1013367E-02 Eh
 * total energy  :   -83.6458162 Eh     change       -0.6214772E-03 Eh
 * total energy  :   -83.6461416 Eh     change       -0.3254411E-03 Eh
 * total energy  :   -83.6465199 Eh     change       -0.3783214E-03 Eh
 * total energy  :   -83.6470370 Eh     change       -0.5170735E-03 Eh
 * total energy  :   -83.6477481 Eh     change       -0.7111226E-03 Eh
 * total energy  :   -83.6486466 Eh     change       -0.8984869E-03 Eh
 * total energy  :   -83.6653733 Eh     change       -0.1643494E-04 Eh
 * total energy  :   -83.6653890 Eh     change       -0.1562022E-04 Eh
 * total energy  :   -83.6653969 Eh     change       -0.7922989E-05 Eh
 * total energy  :   -83.6654080 Eh     change       -0.1113987E-04 Eh
 * total energy  :   -83.6654186 Eh     change       -0.1056255E-04 Eh
 * total energy  :   -83.6654269 Eh     change       -0.8358419E-05 Eh
 * total energy  :   -83.6654345 Eh     change       -0.7592445E-05 Eh
 * total energy  :   -83.6654430 Eh     change       -0.8450865E-05 Eh
 * total energy  :   -83.6654477 Eh     change       -0.4689792E-05 Eh
   *** GEOMETRY OPTIMIZATION CONVERGED AFTER 38 ITERATIONS ***

 final structure:
================
42
 xtb: 6.5.1 (579679a)
C            6.76007455972368        0.10859156043879        0.42093422583477
O            5.42498905828709        0.17176322689120        0.88113660490526
C            4.46010580778388       -0.11591776344151       -0.05969712800170
O            4.81306973320548       -0.40572705305555       -1.20826519519766
C            3.10447313173130       -0.04065823507627        0.41278649007971
N            2.16076482086535       -0.32111465325631       -0.57422698675918
C            0.90441496734016       -0.26465089787060       -0.25618366870998
C           -0.07958796373315       -0.62573461991618       -1.37732176594627
C            0.35503848247739       -0.00310491542574       -2.70642949801826
C           -0.13151428816914       -2.15272004432279       -1.51042144203678
N           -1.42670268596759       -0.17818071070272       -1.00046145343374
C           -1.70725600757282        1.09558192784077       -0.67893037837009
O           -1.11320538345681        2.08613164373094       -1.08230159279212
C           -2.86111646963673        1.22259526960727        0.34291528075303
C           -3.42483728979984        2.64058023805929        0.38359304320284
N           -2.31169791249068        0.83309700779786        1.65929831652977
N           -3.08579312386635       -0.27307618266120        2.09228269225052
C           -3.95566066026767       -0.51129688155647        1.20414330988498
C           -5.01284574111591       -1.55242354137088        1.25859314078573
O           -3.90350529672535        0.28322469774665        0.09192968812425
N            0.37665223838123        0.02491521307280        0.95083765145463
C            1.20959130103864        0.31180302258089        1.97847837870818
O            0.75011231915371        0.59756571459058        3.10836696446495
C            2.70814999041285        0.28758362835627        1.73771311613542
O            3.48766213695147        0.55304311236600        2.68848451161618
H            7.00336799599667       -0.89212491283753        0.04586129126094
H            7.40765488711186        0.34458845389166        1.26581378941273
H            6.93661476765393        0.83126281958952       -0.38433606078491
H           -0.32826692011371       -0.29146570309956       -3.50430507934370
H            0.37904158900700        1.08350743700515       -2.63616977525878
H            1.35754071867870       -0.35854661616958       -2.94694113115375
H            0.86746847116790       -2.52834832831891       -1.73064502074947
H           -0.47604625627729       -2.60190096371540       -0.57878939719652
H           -0.80587727588226       -2.44961743354536       -2.31262505018647
H           -1.99374968407213       -0.88083071298525       -0.55090337164128
H           -4.15551252570456        2.71993815592982        1.18503535169197
H           -3.90539099507036        2.87232522639545       -0.56459734383941
H           -2.61507905073059        3.34713139725817        0.55808806435710
H           -4.89494532330442       -2.15216621856145        2.15785871888446
H           -4.95156662530822       -2.19366909643070        0.38028712662413
H           -5.99673831187365       -1.08397170105615        1.26328682230715
H           -1.32989018581734        0.46201643223605        1.52736776014284

          :  Hamiltonian                  GFN1-xTB          :
         :: total energy             -83.665447679348 Eh    ::
         :: gradient norm              0.000656529173 Eh/a0 ::
         :: HOMO-LUMO gap              2.199364685478 eV    ::
         :: SCC energy               -84.397257218369 Eh    ::
         :: -> Gsolv                  -0.296029695409 Eh    ::
         :: repulsion energy           0.759740268778 Eh    ::

    * Orbital Energies and Occupations

         #    Occupation            Energy/Eh            Energy/eV
      -------------------------------------------------------------
         1        2.0000           -0.8055297             -21.9196
       ...           ...                  ...                  ...
        56        2.0000           -0.4410532             -12.0017
        57        2.0000           -0.4364503             -11.8764
        58        2.0000           -0.4301322             -11.7045
        59        2.0000           -0.4244374             -11.5495
        60        2.0000           -0.4119314             -11.2092
        61        2.0000           -0.4035234             -10.9804
        62        2.0000           -0.4011175             -10.9150
        63        2.0000           -0.3866763             -10.5220
        64        2.0000           -0.3685492             -10.0287
        65        2.0000           -0.3661469              -9.9634
        66        2.0000           -0.3577164              -9.7340
        67        2.0000           -0.3148472              -8.5674
        68        2.0000           -0.3120521              -8.4914 (HOMO)
        69                         -0.2312269              -6.2920 (LUMO)
        70                         -0.2235848              -6.0841
        71                         -0.2224205              -6.0524
        72                         -0.1797836              -4.8922
        73                         -0.1443809              -3.9288
        74                         -0.1286701              -3.5013
        75                         -0.1098623              -2.9895
        76                         -0.1095067              -2.9798
        77                         -0.1050568              -2.8587
        78                         -0.0954041              -2.5961
        79                         -0.0691644              -1.8821
       ...                                ...                  ...
       134                          0.7595592              20.6687
      -------------------------------------------------------------
                  HL-Gap            0.0808252 Eh            2.1994 eV

Wiberg/Mayer (AO) data.
largest (>0.10) Wiberg bond orders for each atom

     #   Z sym  total        # sym  WBO       # sym  WBO       # sym  WBO
 ---------------------------------------------------------------------------
     1   6 C    3.914 --    27 H    0.987    28 H    0.980    26 H    0.980
                             2 O    0.943
     2   8 O    2.127 --     3 C    0.999     1 C    0.943
     3   6 C    3.846 --     4 O    1.528     5 C    1.179     2 O    0.999
     4   8 O    1.814 --     3 C    1.528
     5   6 C    3.917 --    24 C    1.269     3 C    1.179     6 N    1.129
                            25 O    0.113
     6   7 N    2.997 --     7 C    1.553     5 C    1.129
     7   6 C    3.958 --     6 N    1.553    21 N    1.265     8 C    0.949
     8   6 C    3.921 --     9 C    0.996    10 C    0.991     7 C    0.949
                            11 N    0.909
     9   6 C    3.995 --     8 C    0.996    29 H    0.988    31 H    0.984
                            30 H    0.981
    10   6 C    3.995 --     8 C    0.991    34 H    0.987    33 H    0.984
                            32 H    0.984
    11   7 N    3.340 --    12 C    1.284    35 H    0.915     8 C    0.909
                            13 O    0.164
    12   6 C    3.899 --    13 O    1.593    11 N    1.284    14 C    0.915
    13   8 O    1.893 --    12 C    1.593    11 N    0.164
    14   6 C    3.879 --    15 C    0.992    16 N    0.953    12 C    0.915
                            20 O    0.908
    15   6 C    3.995 --    14 C    0.992    36 H    0.986    37 H    0.985
                            38 H    0.983
    16   7 N    3.033 --    17 N    1.015    14 C    0.953    42 H    0.853
    17   7 N    2.992 --    18 C    1.770    16 N    1.015    20 O    0.113
    18   6 C    3.896 --    17 N    1.770    19 C    1.021    20 O    1.003
    19   6 C    3.993 --    18 C    1.021    39 H    0.985    40 H    0.971
                            41 H    0.969
    20   8 O    2.124 --    18 C    1.003    14 C    0.908    17 N    0.113
    21   7 N    3.035 --    22 C    1.287     7 C    1.265    23 O    0.133
                            42 H    0.106
    22   6 C    3.910 --    23 O    1.477    21 N    1.287    24 C    0.975
    23   8 O    1.762 --    22 C    1.477    21 N    0.133
    24   6 C    3.934 --    25 O    1.480     5 C    1.269    22 C    0.975
    25   8 O    1.773 --    24 C    1.480     5 C    0.113
    26   1 H    1.019 --     1 C    0.980
    27   1 H    1.019 --     1 C    0.987
    28   1 H    1.019 --     1 C    0.980
    29   1 H    1.007 --     9 C    0.988
    30   1 H    1.023 --     9 C    0.981
    31   1 H    1.025 --     9 C    0.984
    32   1 H    1.013 --    10 C    0.984
    33   1 H    1.005 --    10 C    0.984
    34   1 H    1.004 --    10 C    0.987
    35   1 H    0.960 --    11 N    0.915
    36   1 H    1.009 --    15 C    0.986
    37   1 H    1.006 --    15 C    0.985
    38   1 H    1.013 --    15 C    0.983
    39   1 H    1.003 --    19 C    0.985
    40   1 H    1.001 --    19 C    0.971
    41   1 H    1.002 --    19 C    0.969
    42   1 H    1.016 --    16 N    0.853    21 N    0.106
 ---------------------------------------------------------------------------

           -------------------------------------------------
          | TOTAL ENERGY              -83.665447679348 Eh   |
          | GRADIENT NORM               0.000656529173 Eh/α |
          | HOMO-LUMO GAP               2.199364685478 eV   |
           -------------------------------------------------

 * finished run on 2023/06/21 at 17:10:38.664
