   * xtb version 6.5.1 (579679a) compiled by 'ehlert@majestix' on 2022-07-11
          program call               : /lustre/hpc/kemi/ree/PhD/git/ReactivityQM/dep/xtb-6.5.1/bin/xtb --gfn 1 /lustre/hpc/kemi/ree/PhD/git/ReactivityQM/calculations/R03/reac02prodE10/conf13/R03_reac02prodE10_conf13_gfn1.xyz --opt --vfukui --chrg -1 --uhf 0 --alpb DMSO

   ID    Z sym.   atoms
    1    6 C      1, 3, 5, 7-10, 12, 14, 17-19, 22, 23, 25
    2    8 O      2, 4, 13, 20, 24, 26
    3    7 N      6, 11, 15, 16, 21
    4    1 H      27-46

      * Solvation model:               ALPB
        Solvent                        DMSO
        Solvent mass                       7.8130E+01 g/mol
          :  Hamiltonian                  GFN1-xTB          :
 * total energy  :   -86.9862018 Eh     change       -0.2916067E-10 Eh
 * total energy  :   -86.9987675 Eh     change       -0.1256567E-01 Eh
 * total energy  :   -87.0037206 Eh     change       -0.4953105E-02 Eh
 * total energy  :   -87.0044398 Eh     change       -0.7192393E-03 Eh
 * total energy  :   -87.0050916 Eh     change       -0.6518375E-03 Eh
 * total energy  :   -87.0053011 Eh     change       -0.2094891E-03 Eh
 * total energy  :   -87.0054918 Eh     change       -0.1907087E-03 Eh
 * total energy  :   -87.0056102 Eh     change       -0.1183946E-03 Eh
 * total energy  :   -87.0056698 Eh     change       -0.5960532E-04 Eh
 * total energy  :   -87.0057077 Eh     change       -0.3790773E-04 Eh
 * total energy  :   -87.0060335 Eh     change       -0.2178525E-04 Eh
 * total energy  :   -87.0060481 Eh     change       -0.1454423E-04 Eh
 * total energy  :   -87.0060580 Eh     change       -0.9950581E-05 Eh
 * total energy  :   -87.0060718 Eh     change       -0.1380794E-04 Eh
 * total energy  :   -87.0060832 Eh     change       -0.1137442E-04 Eh
 * total energy  :   -87.0060911 Eh     change       -0.7855970E-05 Eh
 * total energy  :   -87.0060977 Eh     change       -0.6626118E-05 Eh
 * total energy  :   -87.0061020 Eh     change       -0.4316581E-05 Eh
 * total energy  :   -87.0061048 Eh     change       -0.2790092E-05 Eh
   *** GEOMETRY OPTIMIZATION CONVERGED AFTER 38 ITERATIONS ***

 final structure:
================
46
 xtb: 6.5.1 (579679a)
C           -5.08689184259204        3.25104877912865        0.54755268797217
O           -4.17849455659444        2.16342169028769        0.48004222236097
C           -4.53261473076026        1.15382400355971       -0.38546672818289
O           -5.57049153227395        1.23053881543069       -1.04196733312924
C           -3.57475568885807        0.07309044892695       -0.40040856230664
N           -2.46860826859172        0.19799036678897        0.41457422824388
C           -1.55584675235555       -0.71169974152468        0.48283481987686
C           -0.40730449894338       -0.44424759480420        1.45792224035326
C           -0.53155526425710       -1.40459854717145        2.65263192636169
C           -0.51480817826750        1.00664585484229        1.96293855238362
N            0.85670391722882       -0.63944188628688        0.73849665037567
C            2.08471701303085       -0.27573981927310        1.38800904642094
O            2.22114763937287       -0.32926624680649        2.63766642041909
C            3.06979477278564        0.05248469086908        0.46121157659710
N            2.93319288735569        0.14133552538413       -0.91261011160797
N            4.13824806935630        0.53756116398486       -1.32695507037023
C            4.37551011964192        0.73020076505691       -2.73822124017289
C            4.99701394619985        0.69661891537764       -0.34711051536171
C            6.41247630825853        1.12412247658606       -0.43843228818083
O            4.40486213777386        0.41122729318352        0.82655538737331
N           -1.62677630056681       -1.87638599600100       -0.25628505095174
C           -0.67197149413617       -2.97969776309880       -0.20425204203001
C           -2.72491294246171       -2.11544912092918       -1.10622216800157
O           -2.80379359031660       -3.18106788697909       -1.75245006372072
C           -3.69887366515641       -1.09070431423368       -1.17085921799236
O           -4.76031206459641       -1.31764276230870       -2.00349029869477
H           -5.18923347640500        3.73632946151614       -0.42916579882910
H           -4.68346171298055        3.96167425465710        1.26845433874964
H           -6.07578258079400        2.91430364019135        0.87740263003242
H            0.17048102633353       -1.12438711355814        3.43604682036434
H           -0.32455915862295       -2.43078770504135        2.35676426599664
H           -1.54403047134742       -1.35234625240086        3.05350168942419
H            0.29043037188429        1.21408939222676        2.66583362668088
H           -1.46980586944340        1.15710314428886        2.46484794389987
H           -0.44724098546287        1.70199157518550        1.12676291221469
H            0.81404514584890       -0.22927581933107       -0.18951020613757
H            4.75757572566270        1.73507442476653       -2.90984296504179
H            3.43183553365368        0.59270450158204       -3.26077484313881
H            5.10557243744745        0.00145391584976       -3.08816794642538
H            6.84832327184086        1.13431580845504        0.55823384057374
H            6.98124886620277        0.44230091546896       -1.07178259011495
H            6.48698932155562        2.12289951967676       -0.87118856387198
H           -0.52371851871087       -3.35432521337809       -1.21861088554738
H            0.28245772543841       -2.65045750043082        0.19645048573144
H           -1.07556876826796       -3.78904560894803        0.40888826443246
H           -4.62121232411979       -2.18778345077816       -2.41501508703859

          :  Hamiltonian                  GFN1-xTB          :
         :: total energy             -87.006104801300 Eh    ::
         :: gradient norm              0.000459905934 Eh/a0 ::
         :: HOMO-LUMO gap              0.040310371043 eV    ::
         :: SCC energy               -87.797082282644 Eh    ::
         :: -> Gsolv                  -0.127729387841 Eh    ::
         :: repulsion energy           0.819429791787 Eh    ::

    * Orbital Energies and Occupations

         #    Occupation            Energy/Eh            Energy/eV
      -------------------------------------------------------------
         1        2.0000           -0.8395611             -22.8456
       ...           ...                  ...                  ...
        59        2.0000           -0.4720913             -12.8463
        60        2.0000           -0.4657006             -12.6724
        61        2.0000           -0.4620871             -12.5740
        62        2.0000           -0.4463523             -12.1459
        63        2.0000           -0.4368525             -11.8874
        64        2.0000           -0.4289794             -11.6731
        65        2.0000           -0.4196946             -11.4205
        66        2.0000           -0.4170797             -11.3493
        67        2.0000           -0.4042172             -10.9993
        68        2.0000           -0.4041533             -10.9976
        69        2.0000           -0.3881679             -10.5626
        70        2.0000           -0.3839500             -10.4478
        71        1.3712           -0.2906105              -7.9079 (HOMO)
        72        0.6288           -0.2891291              -7.8676 (LUMO)
        73                         -0.2611924              -7.1074
        74                         -0.2394946              -6.5170
        75                         -0.1953776              -5.3165
        76                         -0.1536739              -4.1817
        77                         -0.1464702              -3.9857
        78                         -0.1390870              -3.7847
        79                         -0.1216802              -3.3111
        80                         -0.1182729              -3.2184
        81                         -0.1109567              -3.0193
        82                         -0.1006255              -2.7382
       ...                                ...                  ...
       144                          0.7182459              19.5445
      -------------------------------------------------------------
                  HL-Gap            0.0014814 Eh            0.0403 eV

Wiberg/Mayer (AO) data.
largest (>0.10) Wiberg bond orders for each atom

     #   Z sym  total        # sym  WBO       # sym  WBO       # sym  WBO
 ---------------------------------------------------------------------------
     1   6 C    3.902 --    28 H    0.987    27 H    0.980    29 H    0.980
                             2 O    0.931
     2   8 O    2.103 --     3 C    1.006     1 C    0.931     4 O    0.102
     3   6 C    3.743 --     4 O    1.541     5 C    1.129     2 O    1.006
     4   8 O    1.765 --     3 C    1.541     2 O    0.102
     5   6 C    3.812 --    25 C    1.311     6 N    1.151     3 C    1.129
     6   7 N    3.009 --     7 C    1.598     5 C    1.151
     7   6 C    3.902 --     6 N    1.598    21 N    1.137     8 C    0.972
     8   6 C    3.956 --    10 C    0.990     9 C    0.986     7 C    0.972
                            11 N    0.951
     9   6 C    3.992 --    32 H    0.988     8 C    0.986    31 H    0.982
                            30 H    0.978
    10   6 C    3.993 --     8 C    0.990    35 H    0.986    34 H    0.985
                            33 H    0.983
    11   7 N    3.100 --    12 C    0.993     8 C    0.951    36 H    0.929
    12   6 C    3.805 --    13 O    1.397    14 C    1.315    11 N    0.993
    13   8 O    1.655 --    12 C    1.397
    14   6 C    3.561 --    12 C    1.315    15 N    1.180    20 O    0.883
    15   7 N    2.681 --    14 C    1.180    16 N    1.159    18 C    0.199
    16   7 N    3.639 --    18 C    1.408    15 N    1.159    17 C    0.940
    17   6 C    3.936 --    38 H    0.983    37 H    0.980    39 H    0.978
                            16 N    0.940
    18   6 C    3.793 --    16 N    1.408    20 O    1.082    19 C    1.028
                            15 N    0.199
    19   6 C    3.987 --    18 C    1.028    40 H    0.981    41 H    0.967
                            42 H    0.966
    20   8 O    2.126 --    18 C    1.082    14 C    0.883
    21   7 N    3.361 --     7 C    1.137    23 C    1.047    22 C    0.943
    22   6 C    3.940 --    45 H    0.979    43 H    0.978    44 H    0.974
                            21 N    0.943
    23   6 C    3.834 --    24 O    1.450    25 C    1.214    21 N    1.047
    24   8 O    1.756 --    23 C    1.450
    25   6 C    3.738 --     5 C    1.311    23 C    1.214    26 O    1.035
    26   8 O    1.985 --    25 C    1.035    46 H    0.833
    27   1 H    1.014 --     1 C    0.980
    28   1 H    1.016 --     1 C    0.987
    29   1 H    1.014 --     1 C    0.980
    30   1 H    1.025 --     9 C    0.978
    31   1 H    1.008 --     9 C    0.982
    32   1 H    1.007 --     9 C    0.988
    33   1 H    1.015 --    10 C    0.983
    34   1 H    1.019 --    10 C    0.985
    35   1 H    1.013 --    10 C    0.986
    36   1 H    0.979 --    11 N    0.929
    37   1 H    0.999 --    17 C    0.980
    38   1 H    1.006 --    17 C    0.983
    39   1 H    0.999 --    17 C    0.978
    40   1 H    0.998 --    19 C    0.981
    41   1 H    0.996 --    19 C    0.967
    42   1 H    0.996 --    19 C    0.966
    43   1 H    1.014 --    22 C    0.978
    44   1 H    1.026 --    22 C    0.974
    45   1 H    1.005 --    22 C    0.979
    46   1 H    0.877 --    26 O    0.833
 ---------------------------------------------------------------------------

           -------------------------------------------------
          | TOTAL ENERGY              -87.006104801300 Eh   |
          | GRADIENT NORM               0.000459905934 Eh/α |
          | HOMO-LUMO GAP               0.040310371043 eV   |
           -------------------------------------------------

 * finished run on 2023/06/20 at 15:29:56.720
