   * xtb version 6.5.1 (579679a) compiled by 'ehlert@majestix' on 2022-07-11
          program call               : /lustre/hpc/kemi/ree/PhD/git/ReactivityQM/dep/xtb-6.5.1/bin/xtb --gfn 1 /lustre/hpc/kemi/ree/PhD/git/ReactivityQM/calculations/R02oxygendeprot/reac01prodE13/conf02/R02oxygendeprot_reac01prodE13_conf02_gfn1.xyz --opt --vfukui --chrg -2 --uhf 0 --alpb DMSO

   ID    Z sym.   atoms
    1    6 C      1, 3, 5, 6, 8, 10, 12-15, 17, 19, 22, 23
    2    8 O      2, 4, 7, 9, 18, 24
    3    7 N      11, 16, 20, 21, 25
    4    1 H      26-42

      * Solvation model:               ALPB
        Solvent                        DMSO
        Solvent mass                       7.8130E+01 g/mol
          :  Hamiltonian                  GFN1-xTB          :
 * total energy  :   -83.5666990 Eh     change       -0.3211696E-08 Eh
 * total energy  :   -83.5790109 Eh     change       -0.1231189E-01 Eh
 * total energy  :   -83.5835679 Eh     change       -0.4556935E-02 Eh
 * total energy  :   -83.5844819 Eh     change       -0.9140746E-03 Eh
 * total energy  :   -83.5855677 Eh     change       -0.1085803E-02 Eh
 * total energy  :   -83.5863082 Eh     change       -0.7405177E-03 Eh
 * total energy  :   -83.5869973 Eh     change       -0.6890703E-03 Eh
 * total energy  :   -83.5875691 Eh     change       -0.5717858E-03 Eh
 * total energy  :   -83.5879055 Eh     change       -0.3363821E-03 Eh
 * total energy  :   -83.5880925 Eh     change       -0.1870083E-03 Eh
 * total energy  :   -83.5950006 Eh     change       -0.4918758E-05 Eh
 * total energy  :   -83.5950140 Eh     change       -0.1348048E-04 Eh
 * total energy  :   -83.5950224 Eh     change       -0.8350542E-05 Eh
 * total energy  :   -83.5950303 Eh     change       -0.7913098E-05 Eh
 * total energy  :   -83.5950386 Eh     change       -0.8260965E-05 Eh
 * total energy  :   -83.5950448 Eh     change       -0.6236943E-05 Eh
 * total energy  :   -83.5950457 Eh     change       -0.8752849E-06 Eh
 * total energy  :   -83.5950502 Eh     change       -0.4504797E-05 Eh
 * total energy  :   -83.5950533 Eh     change       -0.3164414E-05 Eh
   *** GEOMETRY OPTIMIZATION CONVERGED AFTER 63 ITERATIONS ***

 final structure:
================
42
 xtb: 6.5.1 (579679a)
C           -5.30450177746997        2.21025502828789       -1.59338576540988
O           -4.04017886382393        1.64027416727029       -1.33968599113117
C           -3.81899894861856        1.26288490418119        0.00568316377569
O           -4.72997637475276        1.47393019493941        0.82282760014760
C           -2.54088439862871        0.69847603324574        0.20967995097672
C           -2.06906649489610        0.21429237078669        1.52664995793206
O           -2.79264718257514        0.23204508541803        2.56691441231356
C           -0.76434620993599       -0.30159013111285        1.51450661679100
O           -0.11112159675158       -0.75850843962829        2.65832256258614
C            0.05376816288403       -2.16429410796780        2.75812312664566
N            0.05007003595456       -0.27469169120093        0.35961352238285
C           -0.54457239437103        0.11107587947895       -0.83682008869741
C            0.38038774062750        0.05549555423535       -2.04012374779712
C            0.35233359742810       -1.34654906270836       -2.65885500722286
C           -0.02921953805731        1.10485264445423       -3.07780259349086
N            1.75693588267371        0.31537199491031       -1.57449714573884
C            1.84103218743139        1.23456690315111       -0.49271710118496
O            1.29656199298337        2.35854528879420       -0.54910980005162
C            2.68905031384166        0.81456018892801        0.58178440144164
N            3.00467466194141        1.48474578652418        1.68622047504645
N            3.77438454414080        0.64099528375817        2.44581959433129
C            3.89122855870740       -0.46665183096602        1.79494872124492
C            4.63842831225273       -1.67943985286088        2.20866925267434
O            3.24001444009035       -0.45203404493480        0.60621663005815
N           -1.71868943594101        0.61300822127482       -0.91027881987405
H           -5.45501111569733        3.13404135036752       -1.01848336739644
H           -5.35107375715940        2.44268410522645       -2.65872744581810
H           -6.11690959196334        1.51507572317578       -1.34415333033418
H            0.71775274232638       -2.54735911198874        1.97380340970971
H            0.50552703182020       -2.36994249114570        3.73002215248368
H           -0.90807159538048       -2.68784314865963        2.68968574211979
H            0.74446754737269       -1.00326190666663        0.29890818920210
H            0.62596735565879       -2.09402705198928       -1.91507197179792
H            1.05319683889416       -1.40948616603315       -3.49017925645399
H           -0.64890095822482       -1.57087402835771       -3.02556741170820
H            0.60722013384694        1.02749661846790       -3.95799701832896
H           -1.06748147964511        0.94515673890575       -3.36996083575317
H            0.06933816703449        2.10579865718765       -2.65588306717827
H            2.23932108478902       -0.54894484340001       -1.36585315590194
H            5.06948524503142       -1.52335755661058        3.19450310117505
H            5.43593270056817       -1.89347317554454        1.49763808026769
H            3.97457343556849       -2.54330108116104        2.23626725795217

          :  Hamiltonian                  GFN1-xTB          :
         :: total energy             -83.595053338819 Eh    ::
         :: gradient norm              0.000589058264 Eh/a0 ::
         :: HOMO-LUMO gap              0.363140968244 eV    ::
         :: SCC energy               -84.317131993543 Eh    ::
         :: -> Gsolv                  -0.309777749716 Eh    ::
         :: repulsion energy           0.750013908896 Eh    ::

    * Orbital Energies and Occupations

         #    Occupation            Energy/Eh            Energy/eV
      -------------------------------------------------------------
         1        2.0000           -0.8032679             -21.8580
       ...           ...                  ...                  ...
        56        2.0000           -0.4303600             -11.7107
        57        2.0000           -0.4262220             -11.5981
        58        2.0000           -0.4227210             -11.5028
        59        2.0000           -0.4095513             -11.1445
        60        2.0000           -0.4054002             -11.0315
        61        2.0000           -0.4026151             -10.9557
        62        2.0000           -0.3985282             -10.8445
        63        2.0000           -0.3948779             -10.7452
        64        2.0000           -0.3881508             -10.5621
        65        2.0000           -0.3774996             -10.2723
        66        2.0000           -0.3377756              -9.1913
        67        2.0000           -0.3324551              -9.0466
        68        1.9982           -0.2744331              -7.4677 (HOMO)
        69        0.0018           -0.2610880              -7.1046 (LUMO)
        70                         -0.2088529              -5.6832
        71                         -0.2001901              -5.4475
        72                         -0.1641111              -4.4657
        73                         -0.1408048              -3.8315
        74                         -0.1246112              -3.3908
        75                         -0.1104163              -3.0046
        76                         -0.1072915              -2.9195
        77                         -0.1039243              -2.8279
        78                         -0.0958435              -2.6080
        79                         -0.0721662              -1.9637
       ...                                ...                  ...
       134                          0.7364191              20.0390
      -------------------------------------------------------------
                  HL-Gap            0.0133452 Eh            0.3631 eV

Wiberg/Mayer (AO) data.
largest (>0.10) Wiberg bond orders for each atom

     #   Z sym  total        # sym  WBO       # sym  WBO       # sym  WBO
 ---------------------------------------------------------------------------
     1   6 C    3.923 --    27 H    0.987    26 H    0.980    28 H    0.980
                             2 O    0.955
     2   8 O    2.055 --     1 C    0.955     3 C    0.928
     3   6 C    3.804 --     4 O    1.480     5 C    1.281     2 O    0.928
     4   8 O    1.741 --     3 C    1.480
     5   6 C    3.848 --     3 C    1.281    25 N    1.135     6 C    1.068
     6   6 C    3.953 --     7 O    1.404     8 C    1.334     5 C    1.068
     7   8 O    1.665 --     6 C    1.404     8 C    0.122
     8   6 C    3.772 --     6 C    1.334    11 N    1.014     9 O    0.948
                             7 O    0.122
     9   8 O    2.021 --     8 C    0.948    10 C    0.941
    10   6 C    3.927 --    30 H    0.985    31 H    0.982    29 H    0.981
                             9 O    0.941
    11   7 N    3.370 --    12 C    1.078     8 C    1.014    32 H    0.912
    12   6 C    3.936 --    25 N    1.645    11 N    1.078    13 C    0.971
    13   6 C    3.955 --    15 C    0.996    14 C    0.989    12 C    0.971
                            16 N    0.935
    14   6 C    3.993 --    13 C    0.989    34 H    0.986    35 H    0.985
                            33 H    0.984
    15   6 C    3.996 --    13 C    0.996    36 H    0.988    37 H    0.986
                            38 H    0.981
    16   7 N    3.120 --    17 C    1.037    13 C    0.935    39 H    0.933
    17   6 C    3.889 --    18 O    1.452    19 C    1.140    16 N    1.037
    18   8 O    1.774 --    17 C    1.452
    19   6 C    3.827 --    20 N    1.430    17 C    1.140    24 O    0.975
    20   7 N    2.854 --    19 C    1.430    21 N    1.177
    21   7 N    2.981 --    22 C    1.640    20 N    1.177
    22   6 C    3.859 --    21 N    1.640    24 O    1.041    23 C    1.024
    23   6 C    3.994 --    22 C    1.024    40 H    0.986    42 H    0.971
                            41 H    0.970
    24   8 O    2.226 --    22 C    1.041    19 C    0.975
    25   7 N    3.010 --    12 C    1.645     5 C    1.135
    26   1 H    1.021 --     1 C    0.980
    27   1 H    1.021 --     1 C    0.987
    28   1 H    1.021 --     1 C    0.980
    29   1 H    1.016 --    10 C    0.981
    30   1 H    1.021 --    10 C    0.985
    31   1 H    1.016 --    10 C    0.982
    32   1 H    0.968 --    11 N    0.912
    33   1 H    1.004 --    14 C    0.984
    34   1 H    1.003 --    14 C    0.986
    35   1 H    1.007 --    14 C    0.985
    36   1 H    1.010 --    15 C    0.988
    37   1 H    1.020 --    15 C    0.986
    38   1 H    1.028 --    15 C    0.981
    39   1 H    0.971 --    16 N    0.933
    40   1 H    1.004 --    23 C    0.986
    41   1 H    1.001 --    23 C    0.970
    42   1 H    1.002 --    23 C    0.971
 ---------------------------------------------------------------------------

           -------------------------------------------------
          | TOTAL ENERGY              -83.595053338819 Eh   |
          | GRADIENT NORM               0.000589058264 Eh/α |
          | HOMO-LUMO GAP               0.363140968244 eV   |
           -------------------------------------------------

 * finished run on 2023/06/21 at 17:14:31.471
