   * xtb version 6.5.1 (579679a) compiled by 'ehlert@majestix' on 2022-07-11
          program call               : /lustre/hpc/kemi/ree/PhD/git/ReactivityQM/dep/xtb-6.5.1/bin/xtb --gfn 1 /lustre/hpc/kemi/ree/PhD/git/ReactivityQM/calculations/RaltegravirCLI/reac02prodN08/conf19/RaltegravirCLI_reac02prodN08_conf19_gfn1.xyz --opt --vfukui --chrg 1 --uhf 0 --alpb DMSO

   ID    Z sym.   atoms
    1    6 C      1, 3-6, 9, 10, 13-18, 20-22, 24
    2    7 N      2, 7, 8, 12
    3    8 O      11, 23, 25
    4    9 F      19
    5    1 H      26-47

      * Solvation model:               ALPB
        Solvent                        DMSO
        Solvent mass                       7.8130E+01 g/mol
          :  Hamiltonian                  GFN1-xTB          :
 * total energy  :   -79.4701942 Eh     change       -0.9238477E-10 Eh
 * total energy  :   -79.4795441 Eh     change       -0.9349939E-02 Eh
 * total energy  :   -79.4822904 Eh     change       -0.2746314E-02 Eh
 * total energy  :   -79.4826459 Eh     change       -0.3554736E-03 Eh
 * total energy  :   -79.4829154 Eh     change       -0.2695098E-03 Eh
 * total energy  :   -79.4830134 Eh     change       -0.9803189E-04 Eh
 * total energy  :   -79.4831302 Eh     change       -0.1168009E-03 Eh
 * total energy  :   -79.4832378 Eh     change       -0.1075285E-03 Eh
 * total energy  :   -79.4833415 Eh     change       -0.1036970E-03 Eh
 * total energy  :   -79.4834286 Eh     change       -0.8711699E-04 Eh
 * total energy  :   -79.4840577 Eh     change       -0.1586343E-04 Eh
 * total energy  :   -79.4840799 Eh     change       -0.2218915E-04 Eh
 * total energy  :   -79.4840912 Eh     change       -0.1132619E-04 Eh
 * total energy  :   -79.4841204 Eh     change       -0.2921351E-04 Eh
 * total energy  :   -79.4841433 Eh     change       -0.2288492E-04 Eh
 * total energy  :   -79.4841701 Eh     change       -0.2683085E-04 Eh
 * total energy  :   -79.4841787 Eh     change       -0.8555467E-05 Eh
 * total energy  :   -79.4841882 Eh     change       -0.9537222E-05 Eh
 * total energy  :   -79.4841924 Eh     change       -0.4208374E-05 Eh
   *** GEOMETRY OPTIMIZATION CONVERGED AFTER 44 ITERATIONS ***

 final structure:
================
47
 xtb: 6.5.1 (579679a)
C            4.13099120939079        0.97243086892444        2.25532332500622
N            2.92733534880040        0.74389937562086        1.44931009314194
C            2.90945820586824       -0.01441149761695        0.30547006048022
C            4.15891046204900       -0.69005778745244       -0.24492007906280
C            4.96748554519480        0.33956235947483       -1.04889173203692
C            3.73866961984097       -1.84206184937441       -1.17446655407630
N            4.97646921271814       -1.21327784688905        0.84184740795235
N            1.82998717274698       -0.16637850637286       -0.39695465597505
C            0.64366363551900        0.39762132856319       -0.02692726266537
C           -0.48616329556563        0.09805024761278       -0.94624750891115
O           -0.42599960706911       -0.73266692964172       -1.83266178361794
N           -1.62375574310713        0.84729517757209       -0.74418621814507
C           -2.78938583560809        0.60871872372596       -1.50259590441046
C           -3.80486176803592       -0.40869747869119       -0.72721674171561
C           -3.01241460870752       -1.70396337686926       -0.46048067080670
C           -4.18943178949859        0.28324117635900        0.50871171614053
C           -5.43314909024112        0.81108907500827        0.69630157919208
C           -6.39669113712009        0.62643206734028       -0.30309854295099
F           -7.58901055685238        1.13229626147542       -0.12122524173388
C           -6.14927607956023       -0.09229260579753       -1.47909260631894
C           -4.90752948725703       -0.62437034098705       -1.67171681937252
C            0.58039409583772        1.11613870967422        1.13278673467713
O           -0.54125516351787        1.67466163946001        1.62489775737351
C            1.77126668430434        1.31524020481183        1.94126637839416
O            1.73171773199800        1.96459659262517        2.98246956806635
H            4.99267323871619        1.11085460720064        1.61104891860819
H            3.96938925037177        1.86714147477793        2.85621122436004
H            4.29959084964422        0.11684735243386        2.90712065197066
H            4.34755081667808        0.75746029115657       -1.84120733797419
H            5.31607800572255        1.15060095821708       -0.41217675436211
H            5.83258393737958       -0.14741584643949       -1.49665648853685
H            4.62830768012298       -2.35352470423657       -1.53768689768907
H            3.17378249108906       -1.45936380405111       -2.02347104658288
H            3.11744867467115       -2.55282568352193       -0.63186833292474
H            4.52322239204399       -2.01751706657134        1.25498378446430
H            5.87160505165556       -1.50998936728050        0.47868642524451
H           -1.66918591473812        1.51702694574041        0.00758317893339
H           -3.33302597987874        1.53524230017492       -1.67353482488651
H           -2.52592719299688        0.12048826614638       -2.44248425056474
H           -3.67810832790088       -2.43923377082229       -0.01327349029518
H           -2.19567624032739       -1.49552639270246        0.22689241095328
H           -2.60976840404398       -2.09587197938651       -1.39273955892528
H           -3.42340885855468        0.40327083741453        1.26635979889172
H           -5.69605282340715        1.35050046976211        1.59783154008809
H           -6.94863999422467       -0.23047253433756       -2.19688853963576
H           -4.69443339587259       -1.20162671663274       -2.56428526497272
H           -0.31542801827574        2.13084077440365        2.46153555521006

          :  Hamiltonian                  GFN1-xTB          :
         :: total energy             -79.484192418370 Eh    ::
         :: gradient norm              0.000383681832 Eh/a0 ::
         :: HOMO-LUMO gap              0.221546499552 eV    ::
         :: SCC energy               -80.368260990012 Eh    ::
         :: -> Gsolv                  -0.103073131474 Eh    ::
         :: repulsion energy           0.915140601029 Eh    ::

    * Orbital Energies and Occupations

         #    Occupation            Energy/Eh            Energy/eV
      -------------------------------------------------------------
         1        2.0000           -0.9367429             -25.4901
       ...           ...                  ...                  ...
        55        2.0000           -0.5186021             -14.1119
        56        2.0000           -0.5153361             -14.0230
        57        2.0000           -0.5139366             -13.9849
        58        2.0000           -0.5070313             -13.7970
        59        2.0000           -0.5000080             -13.6059
        60        2.0000           -0.4927682             -13.4089
        61        2.0000           -0.4876365             -13.2693
        62        2.0000           -0.4773857             -12.9903
        63        2.0000           -0.4717247             -12.8363
        64        2.0000           -0.4623767             -12.5819
        65        2.0000           -0.4495177             -12.2320
        66        2.0000           -0.4336324             -11.7997
        67        1.9728           -0.4193383             -11.4108 (HOMO)
        68        0.0272           -0.4111966             -11.1892 (LUMO)
        69                         -0.3295990              -8.9688
        70                         -0.3285970              -8.9416
        71                         -0.2858699              -7.7789
        72                         -0.2505885              -6.8189
        73                         -0.2424717              -6.5980
        74                         -0.1643278              -4.4716
        75                         -0.1531366              -4.1671
        76                         -0.1466206              -3.9897
        77                         -0.1378396              -3.7508
        78                         -0.1363997              -3.7116
       ...                                ...                  ...
       144                          0.7068970              19.2356
      -------------------------------------------------------------
                  HL-Gap            0.0081417 Eh            0.2215 eV

Wiberg/Mayer (AO) data.
largest (>0.10) Wiberg bond orders for each atom

     #   Z sym  total        # sym  WBO       # sym  WBO       # sym  WBO
 ---------------------------------------------------------------------------
     1   6 C    3.916 --    26 H    0.978    27 H    0.976    28 H    0.974
                             2 N    0.923
     2   7 N    3.521 --     3 C    1.175    24 C    1.142     1 C    0.923
                            25 O    0.135
     3   6 C    3.916 --     8 N    1.559     2 N    1.175     4 C    0.976
     4   6 C    3.962 --     6 C    0.985     7 N    0.985     5 C    0.980
                             3 C    0.976
     5   6 C    3.992 --    29 H    0.985    31 H    0.982     4 C    0.980
                            30 H    0.979
     6   6 C    3.989 --     4 C    0.985    32 H    0.985    34 H    0.985
                            33 H    0.982
     7   7 N    2.965 --     4 C    0.985    35 H    0.938    36 H    0.935
     8   7 N    3.029 --     3 C    1.559     9 C    1.197
     9   6 C    3.964 --    22 C    1.491     8 N    1.197    10 C    1.013
    10   6 C    3.887 --    11 O    1.628    12 N    1.149     9 C    1.013
    11   8 O    1.920 --    10 C    1.628    12 N    0.132
    12   7 N    3.371 --    10 C    1.149    13 C    1.049    37 H    0.875
                            11 O    0.132
    13   6 C    3.929 --    12 N    1.049    38 H    0.976    39 H    0.963
                            14 C    0.759
    14   6 C    3.980 --    16 C    1.104    21 C    1.103    15 C    0.937
                            13 C    0.759
    15   6 C    3.969 --    40 H    0.982    41 H    0.980    42 H    0.980
                            14 C    0.937
    16   6 C    3.942 --    17 C    1.593    14 C    1.104    43 H    0.963
    17   6 C    3.984 --    16 C    1.593    18 C    1.298    44 H    0.957
    18   6 C    3.818 --    20 C    1.299    17 C    1.298    19 F    1.023
    19   9 F    1.175 --    18 C    1.023
    20   6 C    3.983 --    21 C    1.592    18 C    1.299    45 H    0.957
    21   6 C    3.937 --    20 C    1.592    14 C    1.103    46 H    0.964
    22   6 C    3.909 --     9 C    1.491    24 C    1.081    23 O    1.081
    23   8 O    2.073 --    22 C    1.081    47 H    0.790
    24   6 C    3.918 --    25 O    1.548     2 N    1.142    22 C    1.081
    25   8 O    1.895 --    24 C    1.548     2 N    0.135
    26   1 H    1.021 --     1 C    0.978
    27   1 H    1.007 --     1 C    0.976
    28   1 H    1.014 --     1 C    0.974
    29   1 H    1.003 --     5 C    0.985
    30   1 H    1.004 --     5 C    0.979
    31   1 H    0.999 --     5 C    0.982
    32   1 H    1.003 --     6 C    0.985
    33   1 H    1.013 --     6 C    0.982
    34   1 H    1.006 --     6 C    0.985
    35   1 H    0.953 --     7 N    0.938
    36   1 H    0.950 --     7 N    0.935
    37   1 H    0.934 --    12 N    0.875
    38   1 H    0.998 --    13 C    0.976
    39   1 H    1.003 --    13 C    0.963
    40   1 H    0.997 --    15 C    0.982
    41   1 H    0.999 --    15 C    0.980
    42   1 H    1.002 --    15 C    0.980
    43   1 H    0.995 --    16 C    0.963
    44   1 H    0.986 --    17 C    0.957
    45   1 H    0.986 --    20 C    0.957
    46   1 H    0.990 --    21 C    0.964
    47   1 H    0.836 --    23 O    0.790
 ---------------------------------------------------------------------------

           -------------------------------------------------
          | TOTAL ENERGY              -79.484192418370 Eh   |
          | GRADIENT NORM               0.000383681832 Eh/α |
          | HOMO-LUMO GAP               0.221546499552 eV   |
           -------------------------------------------------

 * finished run on 2023/06/20 at 15:27:18.501
