   * xtb version 6.5.1 (579679a) compiled by 'ehlert@majestix' on 2022-07-11
          program call               : /lustre/hpc/kemi/ree/PhD/git/ReactivityQM/dep/xtb-6.5.1/bin/xtb --gfn 1 /lustre/hpc/kemi/ree/PhD/git/ReactivityQM/calculations/R01/reac01prodN05/conf07/R01_reac01prodN05_conf07_gfn1.xyz --opt --vfukui --chrg 1 --uhf 0 --alpb DMSO

   ID    Z sym.   atoms
    1    6 C      1, 3, 4, 6, 9, 10
    2    8 O      2, 5, 11
    3    7 N      7, 8
    4    1 H      12-20

      * Solvation model:               ALPB
        Solvent                        DMSO
        Solvent mass                       7.8130E+01 g/mol
          :  Hamiltonian                  GFN1-xTB          :
 * total energy  :   -37.4477496 Eh     change       -0.3346656E-11 Eh
 * total energy  :   -37.4656722 Eh     change       -0.1792263E-01 Eh
 * total energy  :   -37.4820062 Eh     change       -0.1633398E-01 Eh
 * total energy  :   -37.4933544 Eh     change       -0.1134816E-01 Eh
 * total energy  :   -37.5026259 Eh     change       -0.9271507E-02 Eh
 * total energy  :   -37.5157866 Eh     change       -0.1316075E-01 Eh
 * total energy  :   -37.5255323 Eh     change       -0.9745690E-02 Eh
 * total energy  :   -37.5404994 Eh     change       -0.1496709E-01 Eh
 * total energy  :   -37.5501506 Eh     change       -0.9651197E-02 Eh
 * total energy  :   -37.5552819 Eh     change       -0.5131326E-02 Eh
 * total energy  :   -37.6262505 Eh     change       -0.2467169E-04 Eh
 * total energy  :   -37.6262642 Eh     change       -0.1368653E-04 Eh
 * total energy  :   -37.6262941 Eh     change       -0.2986764E-04 Eh
 * total energy  :   -37.6263063 Eh     change       -0.1218417E-04 Eh
 * total energy  :   -37.6263226 Eh     change       -0.1629716E-04 Eh
 * total energy  :   -37.6263361 Eh     change       -0.1355835E-04 Eh
 * total energy  :   -37.6263451 Eh     change       -0.8990968E-05 Eh
 * total energy  :   -37.6263520 Eh     change       -0.6939396E-05 Eh
 * total energy  :   -37.6263547 Eh     change       -0.2635144E-05 Eh
   *** GEOMETRY OPTIMIZATION CONVERGED AFTER 77 ITERATIONS ***

 final structure:
================
20
 xtb: 6.5.1 (579679a)
C            3.16485238825942        1.29641619045318       -0.15585088533526
O            2.93618451689448       -0.11156009456397        0.07747978848855
C            1.76850276542828       -0.59026080938546        0.17839062011072
C            1.59749617564797       -2.02975772498691        0.41841344867884
O            0.77023828323987        0.23881094820562        0.06026161752448
C           -0.54365651644444       -0.08511656637232        0.14335083888308
N           -1.08778523368731       -1.23219477947713        0.36621180140622
N           -2.43285182316302       -1.00029737639582        0.35026193515721
C           -2.60325208647233        0.26431373272641        0.11860388032382
C           -3.86931010281275        1.01337658815549       -0.00024871177106
O           -1.41925833898986        0.90419136843582       -0.02290755296577
H            2.71466317192677        1.57515668884663       -1.10839172371861
H            2.71285455820539        1.86841663243168        0.65418192028181
H            4.24508324422396        1.41889566549790       -0.17553282916588
H            2.56623470674326       -2.51918102060349        0.48806382341955
H            1.02068667159826       -2.17445742618296        1.33486960662765
H            1.00189273887706       -2.45798351264679       -0.39118206727892
H           -3.95877655754986        1.42845949486091       -1.00485422470966
H           -4.70797116923712        0.34973572136431        0.19810013491480
H           -3.87582739268767        1.84303527963710        0.70717557912877

          :  Hamiltonian                  GFN1-xTB          :
         :: total energy             -37.626354676219 Eh    ::
         :: gradient norm              0.000567493344 Eh/a0 ::
         :: HOMO-LUMO gap              2.891413745593 eV    ::
         :: SCC energy               -37.972682063934 Eh    ::
         :: -> Gsolv                  -0.079143487377 Eh    ::
         :: repulsion energy           0.354218016857 Eh    ::

    * Orbital Energies and Occupations

         #    Occupation            Energy/Eh            Energy/eV
      -------------------------------------------------------------
         1        2.0000           -0.9509246             -25.8760
       ...           ...                  ...                  ...
        18        2.0000           -0.6236972             -16.9717
        19        2.0000           -0.5976546             -16.2630
        20        2.0000           -0.5957921             -16.2123
        21        2.0000           -0.5870963             -15.9757
        22        2.0000           -0.5693774             -15.4935
        23        2.0000           -0.5645970             -15.3635
        24        2.0000           -0.5617605             -15.2863
        25        2.0000           -0.5588086             -15.2060
        26        2.0000           -0.5507958             -14.9879
        27        2.0000           -0.5435740             -14.7914
        28        2.0000           -0.5188091             -14.1175
        29        2.0000           -0.4933564             -13.4249
        30        2.0000           -0.4863114             -13.2332 (HOMO)
        31                         -0.3800539             -10.3418 (LUMO)
        32                         -0.2949023              -8.0247
        33                         -0.2829909              -7.7006
        34                         -0.1815643              -4.9406
        35                         -0.1673022              -4.5525
        36                         -0.1544037              -4.2015
        37                         -0.1157862              -3.1507
        38                         -0.1080544              -2.9403
        39                         -0.1076904              -2.9304
        40                         -0.1036984              -2.8218
        41                         -0.0858729              -2.3367
       ...                                ...                  ...
        62                          0.5789317              15.7535
      -------------------------------------------------------------
                  HL-Gap            0.1062575 Eh            2.8914 eV

Wiberg/Mayer (AO) data.
largest (>0.10) Wiberg bond orders for each atom

     #   Z sym  total        # sym  WBO       # sym  WBO       # sym  WBO
 ---------------------------------------------------------------------------
     1   6 C    3.799 --    14 H    0.980    13 H    0.969    12 H    0.969
                             2 O    0.831
     2   8 O    2.351 --     3 C    1.348     1 C    0.831
     3   6 C    3.768 --     2 O    1.348     5 O    1.182     4 C    1.051
     4   6 C    3.960 --     3 C    1.051    15 H    0.972    16 H    0.927
                            17 H    0.926
     5   8 O    2.359 --     3 C    1.182     6 C    0.961
     6   6 C    3.818 --     7 N    1.594    11 O    1.086     5 O    0.961
     7   7 N    3.021 --     6 C    1.594     8 N    1.177
     8   7 N    2.979 --     9 C    1.622     7 N    1.177
     9   6 C    3.842 --     8 N    1.622    11 O    1.041    10 C    1.037
    10   6 C    3.977 --     9 C    1.037    19 H    0.979    20 H    0.958
                            18 H    0.955
    11   8 O    2.330 --     6 C    1.086     9 C    1.041
    12   1 H    0.993 --     1 C    0.969
    13   1 H    0.993 --     1 C    0.969
    14   1 H    0.998 --     1 C    0.980
    15   1 H    0.985 --     4 C    0.972
    16   1 H    0.993 --     4 C    0.927
    17   1 H    0.992 --     4 C    0.926
    18   1 H    0.992 --    10 C    0.955
    19   1 H    0.994 --    10 C    0.979
    20   1 H    0.992 --    10 C    0.958
 ---------------------------------------------------------------------------

           -------------------------------------------------
          | TOTAL ENERGY              -37.626354676219 Eh   |
          | GRADIENT NORM               0.000567493344 Eh/α |
          | HOMO-LUMO GAP               2.891413745593 eV   |
           -------------------------------------------------

 * finished run on 2023/06/20 at 14:56:06.358
