   * xtb version 6.5.1 (579679a) compiled by 'ehlert@majestix' on 2022-07-11
          program call               : /lustre/hpc/kemi/ree/PhD/git/ReactivityQM/dep/xtb-6.5.1/bin/xtb --gfn 1 /lustre/hpc/kemi/ree/PhD/git/ReactivityQM/calculations/R02oxygendeprot/reac01prodE07/conf04/R02oxygendeprot_reac01prodE07_conf04_gfn1.xyz --opt --vfukui --chrg -2 --uhf 0 --alpb DMSO

   ID    Z sym.   atoms
    1    6 C      1, 3, 5, 7-10, 12, 14, 15, 18, 19, 22, 24
    2    8 O      2, 4, 13, 20, 23, 25
    3    7 N      6, 11, 16, 17, 21
    4    1 H      26-42

      * Solvation model:               ALPB
        Solvent                        DMSO
        Solvent mass                       7.8130E+01 g/mol
          :  Hamiltonian                  GFN1-xTB          :
 * total energy  :   -83.5830605 Eh     change       -0.4916956E-11 Eh
 * total energy  :   -83.5980924 Eh     change       -0.1503186E-01 Eh
 * total energy  :   -83.6049961 Eh     change       -0.6903684E-02 Eh
 * total energy  :   -83.6063007 Eh     change       -0.1304606E-02 Eh
 * total energy  :   -83.6070685 Eh     change       -0.7678376E-03 Eh
 * total energy  :   -83.6074295 Eh     change       -0.3609580E-03 Eh
 * total energy  :   -83.6078621 Eh     change       -0.4325832E-03 Eh
 * total energy  :   -83.6083012 Eh     change       -0.4391714E-03 Eh
 * total energy  :   -83.6087191 Eh     change       -0.4178835E-03 Eh
 * total energy  :   -83.6091815 Eh     change       -0.4623874E-03 Eh
 * total energy  :   -83.6168442 Eh     change       -0.1544434E-04 Eh
 * total energy  :   -83.6168577 Eh     change       -0.1346861E-04 Eh
 * total energy  :   -83.6168698 Eh     change       -0.1214304E-04 Eh
 * total energy  :   -83.6168815 Eh     change       -0.1170679E-04 Eh
 * total energy  :   -83.6168903 Eh     change       -0.8788391E-05 Eh
 * total energy  :   -83.6168969 Eh     change       -0.6570769E-05 Eh
 * total energy  :   -83.6169027 Eh     change       -0.5866562E-05 Eh
 * total energy  :   -83.6169080 Eh     change       -0.5298858E-05 Eh
 * total energy  :   -83.6169122 Eh     change       -0.4124665E-05 Eh
   *** GEOMETRY OPTIMIZATION CONVERGED AFTER 57 ITERATIONS ***

 final structure:
================
42
 xtb: 6.5.1 (579679a)
C           -6.90580210628440       -0.92500124005080       -1.14878509538674
O           -5.82214171246781       -0.01101719681655       -1.18363599014851
C           -4.65236715769211       -0.46062031426838       -0.64968356406764
O           -4.58305885955091       -1.59589165479866       -0.18725599199886
C           -3.56068759813324        0.49597081029057       -0.67823444951081
N           -2.39819203398038       -0.00085864779580       -0.10833855696416
C           -1.34544769156509        0.72756768153544       -0.04129670403617
C           -0.07444022368506        0.23734494938886        0.62345751972423
C            0.02695878882971       -1.29118467145220        0.50040010652442
C           -0.12694641835648        0.64998439720453        2.10195453405936
N            1.05551212090480        0.92266871438746       -0.03651173351158
C            2.36555514085454        0.53578936495465        0.44757593633096
O            2.95837483527956        1.48565645052090        1.32738361511225
C            3.58949003802109        0.92382236996208        2.45864290671889
C            3.10685004999990       -0.30035234961262       -0.34619010609520
N            2.60475810197901       -1.07734460554008       -1.33849091854461
N            3.65769105337564       -1.85872781678976       -1.77635817634696
C            4.69267974836856       -1.55942213546308       -1.07796326732987
C            6.05689780273351       -2.14412518451654       -1.18277517231111
O            4.44968024144200       -0.58019455720360       -0.13941901670598
N           -1.32733467179385        2.02132996519630       -0.51872989670182
C           -2.39007432669568        2.63260243134857       -1.11716295851317
O           -2.28531358727444        3.78985515896457       -1.53036674412385
C           -3.65157806710442        1.80498538920524       -1.21829555883805
O           -4.65735776166995        2.31628270466509       -1.75377389858743
H           -7.14035273608105       -1.21261440636041       -0.11866986606459
H           -6.67306932151594       -1.82975177487212       -1.72005625902807
H           -7.76440428268836       -0.42246859971783       -1.59270272489813
H            0.20423057936160       -1.57263865233443       -0.53870929008426
H            0.85516739137948       -1.65819432501709        1.10558574214981
H           -0.89910268080334       -1.75270646857993        0.84389660329533
H            0.75090370797842        0.27535688497988        2.62663617898109
H           -0.14880109143834        1.73655899989859        2.18534936834339
H           -1.01858783952670        0.23862402731846        2.57444547909445
H            1.01656281066767        0.66721440262663       -1.02789464628590
H            2.94372602392126        0.19105628971077        2.96361435246385
H            4.53018277053694        0.42381680056667        2.18833783244348
H            3.81185191634665        1.73786843513119        3.15373825819542
H            6.79574485707479       -1.36937809053830       -1.39405439748154
H            6.34252180646002       -2.63353459241835       -0.25006796820302
H            6.07221549053444       -2.87805491287378       -1.98628607103108
H           -0.46249410775187        2.54169096916529       -0.43930741064164

          :  Hamiltonian                  GFN1-xTB          :
         :: total energy             -83.616912156452 Eh    ::
         :: gradient norm              0.000335734768 Eh/a0 ::
         :: HOMO-LUMO gap              0.501531367803 eV    ::
         :: SCC energy               -84.348387010819 Eh    ::
         :: -> Gsolv                  -0.260023987952 Eh    ::
         :: repulsion energy           0.757420119137 Eh    ::

    * Orbital Energies and Occupations

         #    Occupation            Energy/Eh            Energy/eV
      -------------------------------------------------------------
         1        2.0000           -0.7914270             -21.5358
       ...           ...                  ...                  ...
        56        2.0000           -0.4430833             -12.0569
        57        2.0000           -0.4281959             -11.6518
        58        2.0000           -0.4250961             -11.5675
        59        2.0000           -0.4196893             -11.4203
        60        2.0000           -0.4148377             -11.2883
        61        2.0000           -0.4013819             -10.9222
        62        2.0000           -0.3920581             -10.6684
        63        2.0000           -0.3823398             -10.4040
        64        2.0000           -0.3721810             -10.1276
        65        2.0000           -0.3664654              -9.9720
        66        2.0000           -0.3643921              -9.9156
        67        2.0000           -0.3534045              -9.6166
        68        1.9999           -0.2786444              -7.5823 (HOMO)
        69        0.0001           -0.2602135              -7.0808 (LUMO)
        70                         -0.2216473              -6.0313
        71                         -0.1871676              -5.0931
        72                         -0.1809245              -4.9232
        73                         -0.1394527              -3.7947
        74                         -0.1190695              -3.2400
        75                         -0.1127862              -3.0691
        76                         -0.1054797              -2.8702
        77                         -0.0978226              -2.6619
        78                         -0.0938025              -2.5525
        79                         -0.0882597              -2.4017
       ...                                ...                  ...
       134                          0.7564755              20.5847
      -------------------------------------------------------------
                  HL-Gap            0.0184309 Eh            0.5015 eV

Wiberg/Mayer (AO) data.
largest (>0.10) Wiberg bond orders for each atom

     #   Z sym  total        # sym  WBO       # sym  WBO       # sym  WBO
 ---------------------------------------------------------------------------
     1   6 C    3.903 --    28 H    0.987    27 H    0.980    26 H    0.980
                             2 O    0.930
     2   8 O    2.153 --     3 C    1.036     1 C    0.930     4 O    0.107
     3   6 C    3.848 --     4 O    1.567     5 C    1.127     2 O    1.036
     4   8 O    1.844 --     3 C    1.567     2 O    0.107
     5   6 C    3.919 --    24 C    1.279     6 N    1.144     3 C    1.127
                            25 O    0.130
     6   7 N    3.022 --     7 C    1.632     5 C    1.144
     7   6 C    3.926 --     6 N    1.632    21 N    1.096     8 C    0.979
     8   6 C    3.971 --     9 C    0.988    10 C    0.982     7 C    0.979
                            11 N    0.961
     9   6 C    3.996 --     8 C    0.988    30 H    0.986    31 H    0.984
                            29 H    0.982
    10   6 C    3.994 --    34 H    0.988    33 H    0.986     8 C    0.982
                            32 H    0.978
    11   7 N    3.033 --     8 C    0.961    12 C    0.960    35 H    0.943
    12   6 C    3.680 --    15 C    1.473    11 N    0.960    13 O    0.905
                            16 N    0.149
    13   8 O    1.998 --    14 C    0.961    12 C    0.905
    14   6 C    3.934 --    38 H    0.985    37 H    0.980    36 H    0.976
                            13 O    0.961
    15   6 C    3.865 --    12 C    1.473    16 N    1.282    20 O    0.963
    16   7 N    2.834 --    15 C    1.282    17 N    1.146    12 C    0.149
                            18 C    0.117
    17   7 N    2.988 --    18 C    1.679    16 N    1.146
    18   6 C    3.884 --    17 N    1.679    19 C    1.018    20 O    0.991
                            16 N    0.117
    19   6 C    3.996 --    18 C    1.018    41 H    0.987    39 H    0.976
                            40 H    0.975
    20   8 O    2.184 --    18 C    0.991    15 C    0.963
    21   7 N    3.440 --    22 C    1.181     7 C    1.096    42 H    0.890
                            23 O    0.136
    22   6 C    3.884 --    23 O    1.556    21 N    1.181    24 C    0.973
    23   8 O    1.837 --    22 C    1.556    21 N    0.136
    24   6 C    3.944 --    25 O    1.503     5 C    1.279    22 C    0.973
    25   8 O    1.808 --    24 C    1.503     5 C    0.130
    26   1 H    1.015 --     1 C    0.980
    27   1 H    1.015 --     1 C    0.980
    28   1 H    1.016 --     1 C    0.987
    29   1 H    1.030 --     9 C    0.982
    30   1 H    1.016 --     9 C    0.986
    31   1 H    1.019 --     9 C    0.984
    32   1 H    1.014 --    10 C    0.978
    33   1 H    1.011 --    10 C    0.986
    34   1 H    1.008 --    10 C    0.988
    35   1 H    0.993 --    11 N    0.943
    36   1 H    1.030 --    14 C    0.976
    37   1 H    1.029 --    14 C    0.980
    38   1 H    1.022 --    14 C    0.985
    39   1 H    1.007 --    19 C    0.976
    40   1 H    1.007 --    19 C    0.975
    41   1 H    1.008 --    19 C    0.987
    42   1 H    0.969 --    21 N    0.890
 ---------------------------------------------------------------------------

           -------------------------------------------------
          | TOTAL ENERGY              -83.616912156452 Eh   |
          | GRADIENT NORM               0.000335734768 Eh/α |
          | HOMO-LUMO GAP               0.501531367803 eV   |
           -------------------------------------------------

 * finished run on 2023/06/21 at 17:08:56.542
