   * xtb version 6.5.1 (579679a) compiled by 'ehlert@majestix' on 2022-07-11
          program call               : /lustre/hpc/kemi/ree/PhD/git/ReactivityQM/dep/xtb-6.5.1/bin/xtb --gfn 1 /lustre/hpc/kemi/ree/PhD/git/ReactivityQM/calculations/RaltegravirCLI/reac02/conf01/RaltegravirCLI_reac02_conf01_gfn1.xyz --opt --vfukui --chrg 0 --uhf 0 --alpb DMSO

   ID    Z sym.   atoms
    1    6 C      1, 3-6, 9, 10, 13-17, 19-21, 23
    2    7 N      2, 7, 8, 12
    3    8 O      11, 22, 24
    4    9 F      18
    5    1 H      25-43

      * Solvation model:               ALPB
        Solvent                        DMSO
        Solvent mass                       7.8130E+01 g/mol
          :  Hamiltonian                  GFN1-xTB          :
 * total energy  :   -76.1710408 Eh     change       -0.6949108E-11 Eh
 * total energy  :   -76.1784496 Eh     change       -0.7408737E-02 Eh
 * total energy  :   -76.1804514 Eh     change       -0.2001871E-02 Eh
 * total energy  :   -76.1808805 Eh     change       -0.4290253E-03 Eh
 * total energy  :   -76.1812060 Eh     change       -0.3255070E-03 Eh
 * total energy  :   -76.1813354 Eh     change       -0.1294186E-03 Eh
 * total energy  :   -76.1814232 Eh     change       -0.8779486E-04 Eh
 * total energy  :   -76.1814770 Eh     change       -0.5380845E-04 Eh
 * total energy  :   -76.1815112 Eh     change       -0.3424918E-04 Eh
 * total energy  :   -76.1815422 Eh     change       -0.3098052E-04 Eh
 * total energy  :   -76.1816038 Eh     change       -0.3205808E-04 Eh
 * total energy  :   -76.1816172 Eh     change       -0.1344663E-04 Eh
 * total energy  :   -76.1816344 Eh     change       -0.1723099E-04 Eh
 * total energy  :   -76.1816402 Eh     change       -0.5802422E-05 Eh
 * total energy  :   -76.1816509 Eh     change       -0.1062167E-04 Eh
 * total energy  :   -76.1816616 Eh     change       -0.1068356E-04 Eh
 * total energy  :   -76.1816728 Eh     change       -0.1121108E-04 Eh
 * total energy  :   -76.1816863 Eh     change       -0.1354301E-04 Eh
 * total energy  :   -76.1816911 Eh     change       -0.4802089E-05 Eh
   *** GEOMETRY OPTIMIZATION CONVERGED AFTER 20 ITERATIONS ***

 final structure:
================
43
 xtb: 6.5.1 (579679a)
C           -4.01670078212021       -2.00839940533460       -0.23955189155167
N           -2.69674877546738       -1.46374571292113        0.08707420461543
C           -2.40619253450992       -0.12105112336514        0.07340870923222
C           -3.45717048106406        0.93751309629999       -0.24063487488076
C           -4.28864058865241        1.19963834778991        1.02429011691700
C           -2.75067032857585        2.23848523473570       -0.65883042322573
N           -4.33795576504485        0.48871984090182       -1.31394841128098
N           -1.22955439297754        0.32505174221052        0.37862775947858
C           -0.19813534925292       -0.50933573105230        0.70544752742817
C            1.08073288265002        0.20986991532019        1.02369716855946
O            1.11089127332282        1.42835490740591        1.15365677113217
N            2.17629809818392       -0.56201254509841        1.16349186319955
C            3.48387901678212        0.03852689460064        1.40742349709509
C            4.20343082927117        0.31465636064288        0.10333687756354
C            3.77163956439728        1.34829470598768       -0.72716488880667
C            4.40917551919351        1.59870189773849       -1.93331554227943
C            5.48318566446580        0.80076946685046       -2.28596713049760
F            6.10676215269155        1.03646240955488       -3.45291440635108
C            5.94205432993882       -0.22820042510961       -1.48474932376948
C            5.28860505857795       -0.46747791147225       -0.28272437221480
C           -0.41582007529197       -1.85562134370422        0.71527165180472
O            0.52015719685709       -2.77899903612299        1.02237979231363
C           -1.72246049010786       -2.39568102465987        0.38899615180753
O           -1.93348000051422       -3.60827921177099        0.39104985576195
H           -4.16385902850179       -1.99113186896248       -1.31795097892962
H           -4.79431589338220       -1.42127373491113        0.23796916065744
H           -4.05706735702103       -3.03595400160426        0.12038349022665
H           -3.63409329406433        1.49349864888407        1.84411882437456
H           -4.99730256254150        2.00408331344045        0.83349767042616
H           -4.84477679751700        0.31223051739171        1.32038831162234
H           -2.12558886145245        2.06063777329424       -1.53277083016935
H           -2.12368545748015        2.60950513090733        0.15128278978813
H           -3.49740275706288        2.99080408733339       -0.90571242885176
H           -3.84523223185778        0.52786285267814       -2.19699886924129
H           -5.12826643708353        1.11490488562109       -1.37802072135447
H            2.14960280764507       -1.55036004525325        0.97902479083131
H            4.06316157961347       -0.65082520084542        2.02579757906651
H            3.32776900396663        0.97149229165727        1.95946041168925
H            2.93107686760097        1.96372976972444       -0.42759530978856
H            4.08277277804547        2.39629465505106       -2.58833465521641
H            6.78773117649701       -0.82800084183009       -1.79428926007112
H            5.63353228653455       -1.26995684405903        0.35860647913851
H            0.11266615530761       -3.66377873794326        0.95320786375065

          :  Hamiltonian                  GFN1-xTB          :
         :: total energy             -76.181691107867 Eh    ::
         :: gradient norm              0.000836771874 Eh/a0 ::
         :: HOMO-LUMO gap              2.788124177802 eV    ::
         :: SCC energy               -77.028079099865 Eh    ::
         :: -> Gsolv                  -0.048158403986 Eh    ::
         :: repulsion energy           0.873610386649 Eh    ::

    * Orbital Energies and Occupations

         #    Occupation            Energy/Eh            Energy/eV
      -------------------------------------------------------------
         1        2.0000           -0.8633507             -23.4930
       ...           ...                  ...                  ...
        52        2.0000           -0.5000895             -13.6081
        53        2.0000           -0.4928828             -13.4120
        54        2.0000           -0.4846814             -13.1889
        55        2.0000           -0.4727150             -12.8632
        56        2.0000           -0.4667442             -12.7008
        57        2.0000           -0.4641225             -12.6294
        58        2.0000           -0.4507115             -12.2645
        59        2.0000           -0.4473762             -12.1737
        60        2.0000           -0.4395327             -11.9603
        61        2.0000           -0.4346461             -11.8273
        62        2.0000           -0.4323572             -11.7650
        63        2.0000           -0.4201166             -11.4320
        64        2.0000           -0.4127081             -11.2304 (HOMO)
        65                         -0.3102464              -8.4422 (LUMO)
        66                         -0.2732230              -7.4348
        67                         -0.2726424              -7.4190
        68                         -0.2662901              -7.2461
        69                         -0.2263188              -6.1584
        70                         -0.1485877              -4.0433
        71                         -0.1446388              -3.9358
        72                         -0.1320004              -3.5919
        73                         -0.1235765              -3.3627
        74                         -0.1202692              -3.2727
        75                         -0.1159722              -3.1558
       ...                                ...                  ...
       134                          0.7158971              19.4806
      -------------------------------------------------------------
                  HL-Gap            0.1024617 Eh            2.7881 eV

Wiberg/Mayer (AO) data.
largest (>0.10) Wiberg bond orders for each atom

     #   Z sym  total        # sym  WBO       # sym  WBO       # sym  WBO
 ---------------------------------------------------------------------------
     1   6 C    3.922 --    26 H    0.978    27 H    0.976    25 H    0.976
                             2 N    0.927
     2   7 N    3.515 --     3 C    1.170    23 C    1.139     1 C    0.927
                            24 O    0.133
     3   6 C    3.923 --     8 N    1.567     2 N    1.170     4 C    0.976
     4   6 C    3.966 --     6 C    0.989     7 N    0.985     5 C    0.981
                             3 C    0.976
     5   6 C    3.994 --    28 H    0.985    29 H    0.983     4 C    0.981
                            30 H    0.979
     6   6 C    3.994 --     4 C    0.989    33 H    0.986    31 H    0.985
                            32 H    0.982
     7   7 N    2.977 --     4 C    0.985    34 H    0.941    35 H    0.939
     8   7 N    3.031 --     3 C    1.567     9 C    1.197
     9   6 C    3.964 --    21 C    1.509     8 N    1.197    10 C    0.990
    10   6 C    3.907 --    11 O    1.571    12 N    1.265     9 C    0.990
    11   8 O    1.879 --    10 C    1.571    12 N    0.170
    12   7 N    3.346 --    10 C    1.265    13 C    0.942    36 H    0.889
                            11 O    0.170
    13   6 C    3.948 --    14 C    0.994    37 H    0.977    38 H    0.968
                            12 N    0.942
    14   6 C    3.988 --    20 C    1.424    15 C    1.414    13 C    0.994
    15   6 C    3.992 --    16 C    1.448    14 C    1.414    39 H    0.968
                            19 C    0.112
    16   6 C    3.992 --    15 C    1.448    17 C    1.398    40 H    0.970
                            20 C    0.109
    17   6 C    3.860 --    19 C    1.404    16 C    1.398    18 F    0.923
    18   9 F    1.051 --    17 C    0.923
    19   6 C    3.991 --    20 C    1.438    17 C    1.404    41 H    0.969
                            15 C    0.112
    20   6 C    3.994 --    19 C    1.438    14 C    1.424    42 H    0.971
                            16 C    0.109
    21   6 C    3.916 --     9 C    1.509    23 C    1.092    22 O    1.069
    22   8 O    2.061 --    21 C    1.069    43 H    0.801
    23   6 C    3.918 --    24 O    1.534     2 N    1.139    21 C    1.092
    24   8 O    1.885 --    23 C    1.534     2 N    0.133
    25   1 H    1.019 --     1 C    0.976
    26   1 H    1.021 --     1 C    0.978
    27   1 H    1.009 --     1 C    0.976
    28   1 H    1.004 --     5 C    0.985
    29   1 H    1.000 --     5 C    0.983
    30   1 H    1.005 --     5 C    0.979
    31   1 H    1.007 --     6 C    0.985
    32   1 H    1.015 --     6 C    0.982
    33   1 H    1.004 --     6 C    0.986
    34   1 H    0.957 --     7 N    0.941
    35   1 H    0.954 --     7 N    0.939
    36   1 H    0.946 --    12 N    0.889
    37   1 H    1.003 --    13 C    0.977
    38   1 H    1.010 --    13 C    0.968
    39   1 H    1.011 --    15 C    0.968
    40   1 H    0.999 --    16 C    0.970
    41   1 H    0.998 --    19 C    0.969
    42   1 H    1.000 --    20 C    0.971
    43   1 H    0.847 --    22 O    0.801
 ---------------------------------------------------------------------------

           -------------------------------------------------
          | TOTAL ENERGY              -76.181691107867 Eh   |
          | GRADIENT NORM               0.000836771874 Eh/α |
          | HOMO-LUMO GAP               2.788124177802 eV   |
           -------------------------------------------------

 * finished run on 2023/06/20 at 14:51:49.888
