   * xtb version 6.5.1 (579679a) compiled by 'ehlert@majestix' on 2022-07-11
          program call               : /lustre/hpc/kemi/ree/PhD/git/ReactivityQM/dep/xtb-6.5.1/bin/xtb --gfn 1 /lustre/hpc/kemi/ree/PhD/git/ReactivityQM/calculations/R02oxygendeprot/reac01prodN12/conf05/R02oxygendeprot_reac01prodN12_conf05_gfn1.xyz --opt --vfukui --chrg 0 --uhf 0 --alpb DMSO

   ID    Z sym.   atoms
    1    6 C      1, 3, 5, 7-10, 12, 14, 15, 18, 19, 22, 24
    2    8 O      2, 4, 13, 20, 23, 25
    3    7 N      6, 11, 16, 17, 21
    4    1 H      26-42

      * Solvation model:               ALPB
        Solvent                        DMSO
        Solvent mass                       7.8130E+01 g/mol
          :  Hamiltonian                  GFN1-xTB          :
 * total energy  :   -82.9343410 Eh     change       -0.6689191E-09 Eh
 * total energy  :   -82.9448638 Eh     change       -0.1052277E-01 Eh
 * total energy  :   -82.9488005 Eh     change       -0.3936712E-02 Eh
 * total energy  :   -82.9494035 Eh     change       -0.6029487E-03 Eh
 * total energy  :   -82.9497854 Eh     change       -0.3819158E-03 Eh
 * total energy  :   -82.9499318 Eh     change       -0.1464197E-03 Eh
 * total energy  :   -82.9500408 Eh     change       -0.1090187E-03 Eh
 * total energy  :   -82.9501265 Eh     change       -0.8567308E-04 Eh
 * total energy  :   -82.9502110 Eh     change       -0.8447055E-04 Eh
 * total energy  :   -82.9502905 Eh     change       -0.7952650E-04 Eh
 * total energy  :   -82.9505814 Eh     change       -0.2818000E-04 Eh
 * total energy  :   -82.9506069 Eh     change       -0.2545431E-04 Eh
 * total energy  :   -82.9506276 Eh     change       -0.2070261E-04 Eh
 * total energy  :   -82.9506456 Eh     change       -0.1803911E-04 Eh
 * total energy  :   -82.9506535 Eh     change       -0.7873154E-05 Eh
 * total energy  :   -82.9506671 Eh     change       -0.1359169E-04 Eh
 * total energy  :   -82.9506718 Eh     change       -0.4740844E-05 Eh
 * total energy  :   -82.9506831 Eh     change       -0.1127425E-04 Eh
 * total energy  :   -82.9506880 Eh     change       -0.4942911E-05 Eh
   *** GEOMETRY OPTIMIZATION CONVERGED AFTER 26 ITERATIONS ***

 final structure:
================
42
 xtb: 6.5.1 (579679a)
C            5.98704534461133        2.87399378409132        0.48051774740726
O            4.99082461869289        2.23067813157244       -0.31288191568945
C            4.03396399955638        1.57829592820455        0.35749256576052
O            4.00138770771041        1.54312142868210        1.57302263082695
C            3.04429363921893        0.89694167987995       -0.50589518230252
N            2.11974107295819        0.19509465648289        0.19621123402899
C            1.20644557282165       -0.50273210891614       -0.40604793086890
C            0.22669789760048       -1.30349929105360        0.42805724223646
C            0.37260052664843       -2.80410930879908        0.15204548739498
C            0.46111715236809       -1.01279815518265        1.91075199255628
N           -1.16221428026517       -0.86462767577147        0.13618618284042
C           -1.85144156958958       -1.18330627462128       -0.94982972078425
O           -1.45710459466156       -1.76019735956289       -1.94111165861151
C           -3.36269089853564       -0.73874419886980       -0.90691496844656
C           -4.21834432781515       -2.00053394840543       -1.03537161767691
N           -3.57625130856078        0.19163431243650       -1.96529139924077
N           -3.96139605724339        1.31731137619464       -1.45857144141224
C           -4.02810383227504        1.18351425393515       -0.13287385330466
C           -4.42930085502166        2.22585053519784        0.82172473748231
O           -3.67579121285815       -0.01864102677707        0.26711553536508
N            1.13535637971162       -0.57016485598449       -1.76323445572681
C            1.96713045807334        0.12770782443487       -2.61477054628095
O            1.81402327685140        0.04925432562965       -3.82130227895750
C            3.04495586925649        0.95135322411663       -1.94005991585491
O            3.83278965315309        1.59419533282960       -2.63674621148251
H            6.51592195907000        2.13882847372769        1.09249245548364
H            6.67813889289357        3.35453588827075       -0.20972351803025
H            5.52830134240071        3.61942514069979        1.13492675113397
H            0.25936066100056       -3.02753751978009       -0.90634558819971
H           -0.38418678399375       -3.35060472447766        0.71081909567468
H            1.35945682313620       -3.13079727771023        0.47665655146044
H            1.47353354982050       -1.30620342421216        2.18406523176715
H            0.34237839656295        0.05103793033995        2.11050876706436
H           -0.24825044671535       -1.57402905586498        2.51480716405155
H           -1.65595060150175       -0.44407158063007        0.90690074763460
H           -4.05831400737041       -2.62982950981203       -0.16376817759130
H           -5.26625319183134       -1.71714768568929       -1.09450222817293
H           -3.92140219007321       -2.53233778639962       -1.93690096923528
H           -5.25827439964483        2.80277097211965        0.41368195413336
H           -4.70479521644220        1.77840842559428        1.77349692076558
H           -3.59468638440409        2.91164123269613        0.98476996287435
H            0.41929036468690       -1.14368108861514       -2.19497638007695

          :  Hamiltonian                  GFN1-xTB          :
         :: total energy             -82.950688042405 Eh    ::
         :: gradient norm              0.000919159954 Eh/a0 ::
         :: HOMO-LUMO gap              0.079784807283 eV    ::
         :: SCC energy               -83.718702443263 Eh    ::
         :: -> Gsolv                  -0.079888601752 Eh    ::
         :: repulsion energy           0.794457452085 Eh    ::

    * Orbital Energies and Occupations

         #    Occupation            Energy/Eh            Energy/eV
      -------------------------------------------------------------
         1        2.0000           -0.8908241             -24.2406
       ...           ...                  ...                  ...
        55        2.0000           -0.5141090             -13.9896
        56        2.0000           -0.5074584             -13.8086
        57        2.0000           -0.5067386             -13.7891
        58        2.0000           -0.4945006             -13.4560
        59        2.0000           -0.4870739             -13.2540
        60        2.0000           -0.4866676             -13.2429
        61        2.0000           -0.4786843             -13.0257
        62        2.0000           -0.4759786             -12.9520
        63        2.0000           -0.4726388             -12.8612
        64        2.0000           -0.4671780             -12.7126
        65        2.0000           -0.4511290             -12.2758
        66        2.0000           -0.4148033             -11.2874
        67        1.6478           -0.4000354             -10.8855 (HOMO)
        68        0.3522           -0.3971033             -10.8057 (LUMO)
        69                         -0.3017005              -8.2097
        70                         -0.2919891              -7.9454
        71                         -0.2802255              -7.6253
        72                         -0.2760260              -7.5111
        73                         -0.2276667              -6.1951
        74                         -0.1591944              -4.3319
        75                         -0.1479875              -4.0269
        76                         -0.1411165              -3.8400
        77                         -0.1333480              -3.6286
        78                         -0.1321756              -3.5967
       ...                                ...                  ...
       134                          0.7466391              20.3171
      -------------------------------------------------------------
                  HL-Gap            0.0029320 Eh            0.0798 eV

Wiberg/Mayer (AO) data.
largest (>0.10) Wiberg bond orders for each atom

     #   Z sym  total        # sym  WBO       # sym  WBO       # sym  WBO
 ---------------------------------------------------------------------------
     1   6 C    3.880 --    27 H    0.986    28 H    0.979    26 H    0.979
                             2 O    0.906
     2   8 O    2.186 --     3 C    1.097     1 C    0.906     4 O    0.127
     3   6 C    3.841 --     4 O    1.623     2 O    1.097     5 C    1.038
     4   8 O    1.870 --     3 C    1.623     2 O    0.127
     5   6 C    3.738 --     6 N    1.265    24 C    1.186     3 C    1.038
     6   7 N    2.994 --     7 C    1.507     5 C    1.265
     7   6 C    3.831 --     6 N    1.507    21 N    1.178     8 C    0.978
     8   6 C    3.918 --    10 C    1.001     9 C    0.984     7 C    0.978
                            11 N    0.887
     9   6 C    3.982 --     8 C    0.984    31 H    0.983    30 H    0.983
                            29 H    0.979
    10   6 C    3.987 --     8 C    1.001    34 H    0.984    33 H    0.982
                            32 H    0.980
    11   7 N    3.363 --    12 C    1.339     8 C    0.887    35 H    0.886
                            13 O    0.175
    12   6 C    3.874 --    13 O    1.606    11 N    1.339    14 C    0.823
    13   8 O    1.969 --    12 C    1.606    11 N    0.175
    14   6 C    3.847 --    16 N    1.056    15 C    0.931    20 O    0.903
                            12 C    0.823
    15   6 C    3.934 --    36 H    0.981    37 H    0.980    38 H    0.978
                            14 C    0.931
    16   7 N    2.702 --    17 N    1.478    14 C    1.056
    17   7 N    2.966 --    16 N    1.478    18 C    1.343
    18   6 C    3.682 --    17 N    1.343    20 O    1.166    19 C    1.054
    19   6 C    3.971 --    18 C    1.054    40 H    0.973    39 H    0.959
                            41 H    0.933
    20   8 O    2.239 --    18 C    1.166    14 C    0.903
    21   7 N    3.430 --     7 C    1.178    22 C    1.126    42 H    0.862
                            23 O    0.117
    22   6 C    3.848 --    23 O    1.631    21 N    1.126    24 C    0.953
    23   8 O    1.862 --    22 C    1.631    21 N    0.117
    24   6 C    3.879 --    25 O    1.591     5 C    1.186    22 C    0.953
    25   8 O    1.787 --    24 C    1.591
    26   1 H    1.008 --     1 C    0.979
    27   1 H    1.012 --     1 C    0.986
    28   1 H    1.009 --     1 C    0.979
    29   1 H    1.005 --     9 C    0.979
    30   1 H    0.998 --     9 C    0.983
    31   1 H    0.999 --     9 C    0.983
    32   1 H    1.007 --    10 C    0.980
    33   1 H    1.004 --    10 C    0.982
    34   1 H    0.998 --    10 C    0.984
    35   1 H    0.934 --    11 N    0.886
    36   1 H    0.995 --    15 C    0.981
    37   1 H    0.994 --    15 C    0.980
    38   1 H    1.000 --    15 C    0.978
    39   1 H    0.987 --    19 C    0.959
    40   1 H    0.990 --    19 C    0.973
    41   1 H    0.977 --    19 C    0.933
    42   1 H    0.937 --    21 N    0.862
 ---------------------------------------------------------------------------

           -------------------------------------------------
          | TOTAL ENERGY              -82.950688042405 Eh   |
          | GRADIENT NORM               0.000919159954 Eh/α |
          | HOMO-LUMO GAP               0.079784807283 eV   |
           -------------------------------------------------

 * finished run on 2023/06/21 at 17:27:25.138
