   * xtb version 6.5.1 (579679a) compiled by 'ehlert@majestix' on 2022-07-11
          program call               : /lustre/hpc/kemi/ree/PhD/git/ReactivityQM/dep/xtb-6.5.1/bin/xtb --gfn 1 /lustre/hpc/kemi/ree/PhD/git/ReactivityQM/calculations/R02methylcation/reac01prodN07/conf06/R02methylcation_reac01prodN07_conf06_gfn1.xyz --opt --vfukui --chrg 0 --uhf 0 --alpb DMSO

   ID    Z sym.   atoms
    1    6 C      1, 3, 5, 7-10, 12, 14, 17-19, 22, 24
    2    8 O      2, 4, 13, 20, 23, 25
    3    7 N      6, 11, 15, 16, 21
    4    1 H      26-42

      * Solvation model:               ALPB
        Solvent                        DMSO
        Solvent mass                       7.8130E+01 g/mol
          :  Hamiltonian                  GFN1-xTB          :
 * total energy  :   -82.9456052 Eh     change       -0.5879883E-09 Eh
 * total energy  :   -82.9633288 Eh     change       -0.1772363E-01 Eh
 * total energy  :   -82.9708416 Eh     change       -0.7512816E-02 Eh
 * total energy  :   -82.9724500 Eh     change       -0.1608396E-02 Eh
 * total energy  :   -82.9734591 Eh     change       -0.1009116E-02 Eh
 * total energy  :   -82.9739012 Eh     change       -0.4420946E-03 Eh
 * total energy  :   -82.9743646 Eh     change       -0.4633488E-03 Eh
 * total energy  :   -82.9747345 Eh     change       -0.3699520E-03 Eh
 * total energy  :   -82.9750062 Eh     change       -0.2717095E-03 Eh
 * total energy  :   -82.9753095 Eh     change       -0.3033064E-03 Eh
 * total energy  :   -82.9836620 Eh     change       -0.1841996E-04 Eh
 * total energy  :   -82.9836862 Eh     change       -0.2420419E-04 Eh
 * total energy  :   -82.9837144 Eh     change       -0.2814702E-04 Eh
 * total energy  :   -82.9837354 Eh     change       -0.2103473E-04 Eh
 * total energy  :   -82.9837716 Eh     change       -0.3614480E-04 Eh
 * total energy  :   -82.9837854 Eh     change       -0.1377780E-04 Eh
 * total energy  :   -82.9837921 Eh     change       -0.6760830E-05 Eh
 * total energy  :   -82.9837992 Eh     change       -0.7072426E-05 Eh
 * total energy  :   -82.9838040 Eh     change       -0.4796509E-05 Eh
   *** GEOMETRY OPTIMIZATION CONVERGED AFTER 62 ITERATIONS ***

 final structure:
================
42
 xtb: 6.5.1 (579679a)
C           -6.93462891255749        0.72845219658608       -1.19811463604758
O           -5.69697216260705        1.08555562367437       -0.59862026509329
C           -4.77532561890199        0.09561223826548       -0.50881914688437
O           -5.02056223981140       -1.02685203202745       -0.93510804383251
C           -3.52208293587108        0.48564954911714        0.12195194195851
N           -2.60749605496734       -0.55124823550027        0.17451999573647
C           -1.46194441720497       -0.37821424287025        0.71357265141305
C           -0.47026119652219       -1.51779703845640        0.80824952274148
C           -0.46208377695392       -2.08732901822662        2.22932230494691
C           -0.80600199839935       -2.60156892611344       -0.21816437116227
N            0.88499366156899       -0.99252853205993        0.54786880727875
C            1.19196195863700       -0.30274001310862       -0.55512649188066
O            0.44627918533317       -0.00448379625130       -1.46503742997375
C            2.63377153298225        0.13214523832525       -0.57370388121486
N            3.22558740637324        0.84902895066608       -1.48051899495068
N            4.49384524977517        0.97743686639773       -1.04674893435263
C            5.45554837245532        1.73216977921419       -1.82200026517153
C            4.64644657899435        0.34946844683134        0.09902748871271
C            5.84826000648330        0.22224505473259        0.93790379895724
O            3.48788277625574       -0.19206557553594        0.41898855613780
N           -1.08617339739273        0.82511821395224        1.27692644180926
C           -1.87750311666144        1.94616183919147        1.26787530387017
O           -1.45970842618669        2.99010677686818        1.76180895391551
C           -3.24238246085148        1.78057482890287        0.63342050255770
O           -4.00452430755053        2.76332785386997        0.60630185536521
H           -7.54970243884004        1.62713947398661       -1.22092991653654
H           -7.43667580213244       -0.04917621835173       -0.61418367547741
H           -6.78055664652178        0.35885551252669       -2.21671588018779
H           -1.45197081822524       -2.46975380080147        2.47531261053551
H           -0.19566245407975       -1.31060889423197        2.94384095173681
H            0.25881668460820       -2.89880379967529        2.30557223107925
H           -1.80198288137445       -2.99095842792348       -0.00975934968397
H           -0.08014628759634       -3.40890607917074       -0.15674283011166
H           -0.79617700808859       -2.18372487874648       -1.22405401707151
H            1.61124567293811       -1.21683606348740        1.20238146656956
H            6.42683445786116        1.25259323433190       -1.73320557309065
H            5.12247563405051        1.74163918903703       -2.85720758451379
H            5.50658131194910        2.74840814178006       -1.43209606389610
H            5.63218633809661       -0.42370745641271        1.78620577827282
H            6.66896753137455       -0.19445507871236        0.35301418683149
H            6.15861892695185        1.20517956441272        1.29574694691155
H           -0.17977992734203        0.90488853502976        1.70166105380389

          :  Hamiltonian                  GFN1-xTB          :
         :: total energy             -82.983803984051 Eh    ::
         :: gradient norm              0.000742265934 Eh/a0 ::
         :: HOMO-LUMO gap              0.431622218127 eV    ::
         :: SCC energy               -83.773979604783 Eh    ::
         :: -> Gsolv                  -0.147418926953 Eh    ::
         :: repulsion energy           0.815554153426 Eh    ::

    * Orbital Energies and Occupations

         #    Occupation            Energy/Eh            Energy/eV
      -------------------------------------------------------------
         1        2.0000           -0.9353305             -25.4516
       ...           ...                  ...                  ...
        55        2.0000           -0.5059296             -13.7670
        56        2.0000           -0.5030000             -13.6873
        57        2.0000           -0.4943739             -13.4526
        58        2.0000           -0.4896685             -13.3246
        59        2.0000           -0.4820822             -13.1181
        60        2.0000           -0.4675569             -12.7229
        61        2.0000           -0.4672833             -12.7154
        62        2.0000           -0.4605665             -12.5327
        63        2.0000           -0.4441337             -12.0855
        64        2.0000           -0.4393553             -11.9555
        65        2.0000           -0.4213156             -11.4646
        66        2.0000           -0.3830177             -10.4224
        67        1.9995           -0.3700826             -10.0705 (HOMO)
        68        0.0005           -0.3542208              -9.6388 (LUMO)
        69                         -0.3410324              -9.2800
        70                         -0.2738669              -7.4523
        71                         -0.2439240              -6.6375
        72                         -0.2353737              -6.4048
        73                         -0.2006672              -5.4604
        74                         -0.1832834              -4.9874
        75                         -0.1705910              -4.6420
        76                         -0.1337535              -3.6396
        77                         -0.1233018              -3.3552
        78                         -0.1219632              -3.3188
       ...                                ...                  ...
       134                          0.7523876              20.4735
      -------------------------------------------------------------
                  HL-Gap            0.0158618 Eh            0.4316 eV

Wiberg/Mayer (AO) data.
largest (>0.10) Wiberg bond orders for each atom

     #   Z sym  total        # sym  WBO       # sym  WBO       # sym  WBO
 ---------------------------------------------------------------------------
     1   6 C    3.898 --    26 H    0.987    27 H    0.980    28 H    0.980
                             2 O    0.924
     2   8 O    2.162 --     3 C    1.051     1 C    0.924     4 O    0.111
     3   6 C    3.850 --     4 O    1.577     5 C    1.110     2 O    1.051
     4   8 O    1.851 --     3 C    1.577     2 O    0.111
     5   6 C    3.912 --    24 C    1.271     6 N    1.154     3 C    1.110
                            25 O    0.129
     6   7 N    3.031 --     7 C    1.638     5 C    1.154
     7   6 C    3.932 --     6 N    1.638    21 N    1.089     8 C    0.972
     8   6 C    3.916 --    10 C    0.991     9 C    0.989     7 C    0.972
                            11 N    0.899
     9   6 C    3.989 --     8 C    0.989    30 H    0.984    31 H    0.983
                            29 H    0.983
    10   6 C    3.989 --     8 C    0.991    33 H    0.987    32 H    0.982
                            34 H    0.982
    11   7 N    3.388 --    12 C    1.300     8 C    0.899    35 H    0.891
                            13 O    0.201
    12   6 C    3.927 --    13 O    1.599    11 N    1.300    14 C    0.954
    13   8 O    1.919 --    12 C    1.599    11 N    0.201
    14   6 C    3.833 --    15 N    1.614    20 O    1.051    12 C    0.954
    15   7 N    2.977 --    14 C    1.614    16 N    1.148
    16   7 N    3.632 --    18 C    1.428    15 N    1.148    17 C    0.911
    17   6 C    3.887 --    37 H    0.976    36 H    0.976    38 H    0.964
                            16 N    0.911
    18   6 C    3.841 --    16 N    1.428    20 O    1.146    19 C    1.041
    19   6 C    3.961 --    18 C    1.041    39 H    0.972    40 H    0.947
                            41 H    0.943
    20   8 O    2.373 --    18 C    1.146    14 C    1.051
    21   7 N    3.421 --    22 C    1.158     7 C    1.089    42 H    0.899
                            23 O    0.135
    22   6 C    3.876 --    23 O    1.581    21 N    1.158    24 C    0.966
    23   8 O    1.861 --    22 C    1.581    21 N    0.135
    24   6 C    3.942 --    25 O    1.523     5 C    1.271    22 C    0.966
    25   8 O    1.827 --    24 C    1.523     5 C    0.129
    26   1 H    1.015 --     1 C    0.987
    27   1 H    1.013 --     1 C    0.980
    28   1 H    1.014 --     1 C    0.980
    29   1 H    1.001 --     9 C    0.983
    30   1 H    0.999 --     9 C    0.984
    31   1 H    0.997 --     9 C    0.983
    32   1 H    1.012 --    10 C    0.982
    33   1 H    1.002 --    10 C    0.987
    34   1 H    1.011 --    10 C    0.982
    35   1 H    0.929 --    11 N    0.891
    36   1 H    0.990 --    17 C    0.976
    37   1 H    0.992 --    17 C    0.976
    38   1 H    0.990 --    17 C    0.964
    39   1 H    0.986 --    19 C    0.972
    40   1 H    0.986 --    19 C    0.947
    41   1 H    0.986 --    19 C    0.943
    42   1 H    0.948 --    21 N    0.899
 ---------------------------------------------------------------------------

           -------------------------------------------------
          | TOTAL ENERGY              -82.983803984051 Eh   |
          | GRADIENT NORM               0.000742265934 Eh/α |
          | HOMO-LUMO GAP               0.431622218127 eV   |
           -------------------------------------------------

 * finished run on 2023/06/21 at 17:38:13.920
