   * xtb version 6.5.1 (579679a) compiled by 'ehlert@majestix' on 2022-07-11
          program call               : /lustre/hpc/kemi/ree/PhD/git/ReactivityQM/dep/xtb-6.5.1/bin/xtb --gfn 1 /lustre/hpc/kemi/ree/PhD/git/ReactivityQM/calculations/R02oxygendeprot/reac01prodE08/conf03/R02oxygendeprot_reac01prodE08_conf03_gfn1.xyz --opt --vfukui --chrg -2 --uhf 0 --alpb DMSO

   ID    Z sym.   atoms
    1    6 C      1, 3, 5, 7-10, 12, 14, 15, 18, 19, 22, 24
    2    8 O      2, 4, 13, 20, 23, 25
    3    7 N      6, 11, 16, 17, 21
    4    1 H      26-42

      * Solvation model:               ALPB
        Solvent                        DMSO
        Solvent mass                       7.8130E+01 g/mol
          :  Hamiltonian                  GFN1-xTB          :
 * total energy  :   -83.6249377 Eh     change       -0.2579100E-08 Eh
 * total energy  :   -83.6385479 Eh     change       -0.1361018E-01 Eh
 * total energy  :   -83.6438027 Eh     change       -0.5254880E-02 Eh
 * total energy  :   -83.6446755 Eh     change       -0.8727940E-03 Eh
 * total energy  :   -83.6452339 Eh     change       -0.5583306E-03 Eh
 * total energy  :   -83.6454616 Eh     change       -0.2277131E-03 Eh
 * total energy  :   -83.6456455 Eh     change       -0.1839640E-03 Eh
 * total energy  :   -83.6457641 Eh     change       -0.1185341E-03 Eh
 * total energy  :   -83.6458585 Eh     change       -0.9445721E-04 Eh
 * total energy  :   -83.6459276 Eh     change       -0.6911536E-04 Eh
 * total energy  :   -83.6475161 Eh     change       -0.9334161E-05 Eh
 * total energy  :   -83.6475369 Eh     change       -0.2073479E-04 Eh
 * total energy  :   -83.6475501 Eh     change       -0.1318766E-04 Eh
 * total energy  :   -83.6475451 Eh     change        0.5017252E-05 Eh
 * total energy  :   -83.6475566 Eh     change       -0.1155713E-04 Eh
 * total energy  :   -83.6475644 Eh     change       -0.7750101E-05 Eh
 * total energy  :   -83.6475696 Eh     change       -0.5202892E-05 Eh
 * total energy  :   -83.6475776 Eh     change       -0.8000493E-05 Eh
 * total energy  :   -83.6475796 Eh     change       -0.2078881E-05 Eh
   *** GEOMETRY OPTIMIZATION CONVERGED AFTER 56 ITERATIONS ***

 final structure:
================
42
 xtb: 6.5.1 (579679a)
C            5.82681364466483        2.81022974116930       -0.35553288160524
O            5.01302947071266        1.67617315356301       -0.60711811877267
C            3.88758042524415        1.57672055199457        0.15217120508242
O            3.62250681786096        2.44329727095297        0.98005778103115
C            3.08164373843114        0.39636587897498       -0.10576232905882
N            1.95606270852327        0.32928289938956        0.69754729437696
C            1.14321115056007       -0.66021116987510        0.61165769984506
C           -0.08183116194389       -0.71229841364967        1.51666328537630
C           -0.00066646069382        0.45171997430406        2.50933572060394
C           -0.13337872064375       -2.03706806453975        2.29305574262626
N           -1.30418509245471       -0.51183337664594        0.73066993215248
C           -1.88373987633761       -1.42715733142270       -0.08746664051956
O           -1.35740571476489       -2.50118851022935       -0.39955684768069
C           -3.16017092473913       -0.91967613248551       -0.78379703142956
C           -4.16984965669826       -2.06566924153269       -0.96938306829927
N           -2.66479026751245       -0.39360401014547       -2.05998620039189
N           -2.96629390588082        0.93563398327631       -2.04743476819548
C           -3.57117702613607        1.25501660142154       -0.96621705488323
C           -4.11033958594967        2.58324875729273       -0.56528384694053
O           -3.74340673035731        0.16934623634412       -0.07827461776510
N            1.35338170734031       -1.68747531800008       -0.27896353018668
C            2.41476603012020       -1.75149321113700       -1.13481804654416
O            2.53588108165436       -2.71093590697648       -1.89908003554995
C            3.39111238739573       -0.59831906944910       -1.06885781960344
O            4.37209453912222       -0.60164363441404       -1.84025025740786
H            5.27655496422593        3.73707486004807       -0.54794015105015
H            6.17272860577954        2.81796576194856        0.68311673267612
H            6.68320509715686        2.74626663534603       -1.02577513380397
H            0.90667779097756        0.36591712813498        3.10525964530169
H            0.02511881975687        1.40271531937608        1.97742694875779
H           -0.86203861770940        0.43752912225551        3.17429552779834
H            0.76498618741056       -2.13555650378697        2.90081245758434
H           -0.19843094162645       -2.89151010271062        1.62232377334379
H           -1.00297660302707       -2.04330035888935        2.94801336039449
H           -1.92239297339268        0.20373832476587        1.08659117507311
H           -3.67085627552237       -2.91514603160274       -1.43300588118098
H           -4.57604953153683       -2.36596368313456       -0.00489250990153
H           -4.98203066808394       -1.72994393194184       -1.61090528982753
H           -3.96481598956285        3.29086012071455       -1.38073770100421
H           -5.17770842500115        2.51675283367550       -0.34185033352672
H           -3.60847407807051        2.96619050085317        0.32727187474866
H            0.68565606072930       -2.45204865328649       -0.30690506165539

          :  Hamiltonian                  GFN1-xTB          :
         :: total energy             -83.647579642212 Eh    ::
         :: gradient norm              0.000567883735 Eh/a0 ::
         :: HOMO-LUMO gap              0.400020448354 eV    ::
         :: SCC energy               -84.384865718924 Eh    ::
         :: -> Gsolv                  -0.276910384635 Eh    ::
         :: repulsion energy           0.763879189619 Eh    ::

    * Orbital Energies and Occupations

         #    Occupation            Energy/Eh            Energy/eV
      -------------------------------------------------------------
         1        2.0000           -0.7934863             -21.5919
       ...           ...                  ...                  ...
        56        2.0000           -0.4480255             -12.1914
        57        2.0000           -0.4454737             -12.1220
        58        2.0000           -0.4309378             -11.7264
        59        2.0000           -0.4269889             -11.6190
        60        2.0000           -0.4120776             -11.2132
        61        2.0000           -0.4045122             -11.0073
        62        2.0000           -0.4021162             -10.9421
        63        2.0000           -0.3989812             -10.8568
        64        2.0000           -0.3787365             -10.3059
        65        2.0000           -0.3693873             -10.0515
        66        2.0000           -0.3568886              -9.7114
        67        2.0000           -0.3499881              -9.5237
        68        1.9991           -0.2764236              -7.5219 (HOMO)
        69        0.0009           -0.2617231              -7.1218 (LUMO)
        70                         -0.2275376              -6.1916
        71                         -0.2081632              -5.6644
        72                         -0.1886974              -5.1347
        73                         -0.1624727              -4.4211
        74                         -0.1201870              -3.2705
        75                         -0.1092510              -2.9729
        76                         -0.1072988              -2.9197
        77                         -0.1045963              -2.8462
        78                         -0.0996230              -2.7109
        79                         -0.0889120              -2.4194
       ...                                ...                  ...
       134                          0.7569578              20.5979
      -------------------------------------------------------------
                  HL-Gap            0.0147005 Eh            0.4000 eV

Wiberg/Mayer (AO) data.
largest (>0.10) Wiberg bond orders for each atom

     #   Z sym  total        # sym  WBO       # sym  WBO       # sym  WBO
 ---------------------------------------------------------------------------
     1   6 C    3.902 --    28 H    0.987    27 H    0.980    26 H    0.980
                             2 O    0.929
     2   8 O    2.154 --     3 C    1.038     1 C    0.929     4 O    0.107
     3   6 C    3.848 --     4 O    1.569     5 C    1.124     2 O    1.038
     4   8 O    1.845 --     3 C    1.569     2 O    0.107
     5   6 C    3.917 --    24 C    1.275     6 N    1.149     3 C    1.124
                            25 O    0.128
     6   7 N    3.025 --     7 C    1.629     5 C    1.149
     7   6 C    3.933 --     6 N    1.629    21 N    1.109     8 C    0.970
     8   6 C    3.953 --     9 C    1.002    10 C    0.987     7 C    0.970
                            11 N    0.930
     9   6 C    3.995 --     8 C    1.002    31 H    0.986    29 H    0.985
                            30 H    0.984
    10   6 C    3.992 --    32 H    0.987     8 C    0.987    34 H    0.985
                            33 H    0.978
    11   7 N    3.298 --    12 C    1.225     8 C    0.930    35 H    0.902
                            13 O    0.139
    12   6 C    3.867 --    13 O    1.534    11 N    1.225    14 C    0.922
    13   8 O    1.872 --    12 C    1.534    11 N    0.139
    14   6 C    3.896 --    16 N    0.977    15 C    0.973    20 O    0.922
                            12 C    0.922
    15   6 C    3.996 --    37 H    0.988    38 H    0.987    36 H    0.986
                            14 C    0.973
    16   7 N    2.623 --    17 N    1.191    14 C    0.977    18 C    0.205
    17   7 N    3.019 --    18 C    1.669    16 N    1.191
    18   6 C    3.863 --    17 N    1.669    19 C    1.017    20 O    0.918
                            16 N    0.205
    19   6 C    3.996 --    18 C    1.017    39 H    0.987    40 H    0.977
                            41 H    0.976
    20   8 O    2.063 --    14 C    0.922    18 C    0.918
    21   7 N    3.447 --    22 C    1.182     7 C    1.109    42 H    0.873
                            23 O    0.137
    22   6 C    3.885 --    23 O    1.560    21 N    1.182    24 C    0.971
    23   8 O    1.840 --    22 C    1.560    21 N    0.137
    24   6 C    3.943 --    25 O    1.508     5 C    1.275    22 C    0.971
    25   8 O    1.812 --    24 C    1.508     5 C    0.128
    26   1 H    1.015 --     1 C    0.980
    27   1 H    1.015 --     1 C    0.980
    28   1 H    1.016 --     1 C    0.987
    29   1 H    1.012 --     9 C    0.985
    30   1 H    1.014 --     9 C    0.984
    31   1 H    1.002 --     9 C    0.986
    32   1 H    1.005 --    10 C    0.987
    33   1 H    1.016 --    10 C    0.978
    34   1 H    1.003 --    10 C    0.985
    35   1 H    0.961 --    11 N    0.902
    36   1 H    1.018 --    15 C    0.986
    37   1 H    1.011 --    15 C    0.988
    38   1 H    1.020 --    15 C    0.987
    39   1 H    1.009 --    19 C    0.987
    40   1 H    1.009 --    19 C    0.977
    41   1 H    1.010 --    19 C    0.976
    42   1 H    0.962 --    21 N    0.873
 ---------------------------------------------------------------------------

           -------------------------------------------------
          | TOTAL ENERGY              -83.647579642212 Eh   |
          | GRADIENT NORM               0.000567883735 Eh/α |
          | HOMO-LUMO GAP               0.400020448354 eV   |
           -------------------------------------------------

 * finished run on 2023/06/21 at 17:10:25.484
