   * xtb version 6.5.1 (579679a) compiled by 'ehlert@majestix' on 2022-07-11
          program call               : /lustre/hpc/kemi/ree/PhD/git/ReactivityQM/dep/xtb-6.5.1/bin/xtb --gfn 1 /lustre/hpc/kemi/ree/PhD/git/ReactivityQM/calculations/R02methylcation/reac01prodE14/conf05/R02methylcation_reac01prodE14_conf05_gfn1.xyz --opt --vfukui --chrg -2 --uhf 0 --alpb DMSO

   ID    Z sym.   atoms
    1    6 C      1, 3, 5, 7-10, 12, 14, 17, 18, 21, 23, 24
    2    8 O      2, 4, 13, 19, 22, 25
    3    7 N      6, 11, 15, 16, 20
    4    1 H      26-42

      * Solvation model:               ALPB
        Solvent                        DMSO
        Solvent mass                       7.8130E+01 g/mol
          :  Hamiltonian                  GFN1-xTB          :
 * total energy  :   -83.5866407 Eh     change       -0.8047891E-09 Eh
 * total energy  :   -83.6024431 Eh     change       -0.1580238E-01 Eh
 * total energy  :   -83.6093306 Eh     change       -0.6887505E-02 Eh
 * total energy  :   -83.6107286 Eh     change       -0.1397970E-02 Eh
 * total energy  :   -83.6115163 Eh     change       -0.7877324E-03 Eh
 * total energy  :   -83.6118679 Eh     change       -0.3515976E-03 Eh
 * total energy  :   -83.6121299 Eh     change       -0.2619902E-03 Eh
 * total energy  :   -83.6123253 Eh     change       -0.1954309E-03 Eh
 * total energy  :   -83.6124795 Eh     change       -0.1541467E-03 Eh
 * total energy  :   -83.6126363 Eh     change       -0.1568152E-03 Eh
 * total energy  :   -83.6147281 Eh     change       -0.2739144E-04 Eh
 * total energy  :   -83.6147519 Eh     change       -0.2380764E-04 Eh
 * total energy  :   -83.6147755 Eh     change       -0.2358948E-04 Eh
 * total energy  :   -83.6147947 Eh     change       -0.1925595E-04 Eh
 * total energy  :   -83.6148091 Eh     change       -0.1439761E-04 Eh
 * total energy  :   -83.6148233 Eh     change       -0.1415396E-04 Eh
 * total energy  :   -83.6148286 Eh     change       -0.5347453E-05 Eh
 * total energy  :   -83.6148344 Eh     change       -0.5723830E-05 Eh
 * total energy  :   -83.6148390 Eh     change       -0.4592467E-05 Eh
   *** GEOMETRY OPTIMIZATION CONVERGED AFTER 46 ITERATIONS ***

 final structure:
================
42
 xtb: 6.5.1 (579679a)
C           -3.27274517456958        2.58447316591096        2.79112165744519
O           -3.36645198988179        1.61279599726228        1.77436174711014
C           -2.13163833235829        1.14005561962283        1.28818332627663
O           -1.09133422265460        1.61693442175182        1.79748996858182
C           -2.20527627368657        0.14979265390605        0.29912738491082
N           -0.96766021558896       -0.20638837546644       -0.19552885931558
C           -0.81129104852978       -1.12593463538767       -1.07440580722202
C            0.56925061331154       -1.43311891819197       -1.62912053414335
C            0.60150083738778       -1.22238780925117       -3.15120854673787
C            1.00789909810037       -2.86404709423380       -1.27697414874300
N            1.46443222483695       -0.47799109623945       -0.97681389796067
C            2.78164511585165       -0.38832236411030       -1.17580689317795
O            3.44175269402034       -1.06783183588412       -1.95729162028882
C            3.38787949490554        0.66990916223802       -0.32298898071984
N            2.75940822857742        1.44440152998566        0.51068767771852
N            3.69683480638320        2.25953681432861        1.07621973762224
C            4.83526941958365        1.93177259480924        0.55315205387001
C            6.16146037362915        2.52381124244131        0.83760334175760
O            4.71291111315040        0.93541796083378       -0.33908869295740
N           -1.88186150755876       -1.90888419418778       -1.54418741362615
C           -3.13453173668010       -1.77471000680729       -1.00165597167208
O           -3.93616405520258       -2.70875935262150       -1.12978665475047
C           -3.48544066953723       -0.35018456405642       -0.44418883713838
C           -4.65876242031340       -0.57485152729582        0.57428812606057
O           -3.83545025080984        0.40626501878145       -1.49650444714651
H           -4.28928824802196        2.86767626142493        3.07129606875448
H           -2.75503812446067        2.19294458948943        3.67698304365041
H           -2.73463742799478        3.47870347192015        2.44817951843732
H           -0.12764927177728       -1.87808466090799       -3.62409876688782
H            1.58808588448109       -1.45419125641654       -3.54849493321412
H            0.35676355140885       -0.18756501213502       -3.39113415266049
H            2.01374661390169       -3.05474929449301       -1.64713918638601
H            0.33057589181643       -3.58256314246182       -1.73440706294112
H            0.99497647713158       -3.00318230276641       -0.19653018937716
H            1.00838600660499        0.12088286424728       -0.27911725356444
H            6.06576850716766        3.27667053189383        1.61600407948399
H            6.56825496378250        2.98307724863189       -0.06263754460026
H            6.85524438501562        1.74959321792366        1.16316076300599
H           -1.67051644561059       -2.79707345831316       -1.96633085179548
H           -4.29947394659931       -1.00453584222235        1.51030770823682
H           -5.15560888422197        0.37241491117574        0.77506236188841
H           -5.39122505500070       -1.25177253512614        0.13134168221049

          :  Hamiltonian                  GFN1-xTB          :
         :: total energy             -83.614838956444 Eh    ::
         :: gradient norm              0.000882633985 Eh/a0 ::
         :: HOMO-LUMO gap              0.196521025977 eV    ::
         :: SCC energy               -84.349567669760 Eh    ::
         :: -> Gsolv                  -0.303021861153 Eh    ::
         :: repulsion energy           0.760615433465 Eh    ::

    * Orbital Energies and Occupations

         #    Occupation            Energy/Eh            Energy/eV
      -------------------------------------------------------------
         1        2.0000           -0.8479616             -23.0742
       ...           ...                  ...                  ...
        56        2.0000           -0.4426953             -12.0464
        57        2.0000           -0.4365190             -11.8783
        58        2.0000           -0.4314962             -11.7416
        59        2.0000           -0.4248401             -11.5605
        60        2.0000           -0.4201626             -11.4332
        61        2.0000           -0.4151260             -11.2962
        62        2.0000           -0.3996062             -10.8738
        63        2.0000           -0.3926124             -10.6835
        64        2.0000           -0.3832218             -10.4280
        65        2.0000           -0.3724942             -10.1361
        66        2.0000           -0.3066955              -8.3456
        67        1.9961           -0.2993325              -8.1453
        68        1.9582           -0.2970486              -8.0831 (HOMO)
        69        0.0457           -0.2898265              -7.8866 (LUMO)
        70                         -0.2434555              -6.6248
        71                         -0.2125870              -5.7848
        72                         -0.1774169              -4.8278
        73                         -0.1718382              -4.6760
        74                         -0.1378666              -3.7515
        75                         -0.1139098              -3.0996
        76                         -0.1103869              -3.0038
        77                         -0.1047932              -2.8516
        78                         -0.1015181              -2.7624
        79                         -0.0753922              -2.0515
       ...                                ...                  ...
       134                          0.7262495              19.7623
      -------------------------------------------------------------
                  HL-Gap            0.0072220 Eh            0.1965 eV

Wiberg/Mayer (AO) data.
largest (>0.10) Wiberg bond orders for each atom

     #   Z sym  total        # sym  WBO       # sym  WBO       # sym  WBO
 ---------------------------------------------------------------------------
     1   6 C    3.923 --    26 H    0.987    27 H    0.980    28 H    0.980
                             2 O    0.954
     2   8 O    2.080 --     1 C    0.954     3 C    0.929
     3   6 C    3.850 --     4 O    1.437     5 C    1.344     2 O    0.929
     4   8 O    1.742 --     3 C    1.437     5 C    0.111
     5   6 C    3.833 --     3 C    1.344     6 N    1.174    23 C    0.919
                             4 O    0.111
     6   7 N    3.086 --     7 C    1.617     5 C    1.174
     7   6 C    3.901 --     6 N    1.617    20 N    1.013     8 C    0.974
     8   6 C    3.929 --     9 C    0.984    10 C    0.983     7 C    0.974
                            11 N    0.923
     9   6 C    3.991 --    31 H    0.986    29 H    0.986     8 C    0.984
                            30 H    0.983
    10   6 C    3.990 --    34 H    0.986    33 H    0.984     8 C    0.983
                            32 H    0.982
    11   7 N    3.380 --    12 C    1.301     8 C    0.923    35 H    0.868
                            13 O    0.184
    12   6 C    3.912 --    13 O    1.542    11 N    1.301    14 C    0.990
    13   8 O    1.858 --    12 C    1.542    11 N    0.184
    14   6 C    3.847 --    15 N    1.604    19 O    1.050    12 C    0.990
    15   7 N    2.987 --    14 C    1.604    16 N    1.189
    16   7 N    2.981 --    17 C    1.619    15 N    1.189
    17   6 C    3.870 --    16 N    1.619    19 O    1.077    18 C    1.029
    18   6 C    3.989 --    17 C    1.029    36 H    0.983    38 H    0.967
                            37 H    0.965
    19   8 O    2.307 --    17 C    1.077    14 C    1.050
    20   7 N    3.348 --    21 C    1.167     7 C    1.013    39 H    0.913
                            22 O    0.115
    21   6 C    3.814 --    22 O    1.562    20 N    1.167    23 C    0.880
    22   8 O    1.832 --    21 C    1.562    20 N    0.115
    23   6 C    3.964 --    25 O    1.123    24 C    0.945     5 C    0.919
                            21 C    0.880
    24   6 C    3.988 --    40 H    0.991    41 H    0.987    42 H    0.986
                            23 C    0.945
    25   8 O    1.424 --    23 C    1.123
    26   1 H    1.020 --     1 C    0.987
    27   1 H    1.023 --     1 C    0.980
    28   1 H    1.023 --     1 C    0.980
    29   1 H    1.006 --     9 C    0.986
    30   1 H    1.013 --     9 C    0.983
    31   1 H    1.008 --     9 C    0.986
    32   1 H    1.012 --    10 C    0.982
    33   1 H    1.005 --    10 C    0.984
    34   1 H    1.008 --    10 C    0.986
    35   1 H    0.992 --    11 N    0.868
    36   1 H    1.000 --    18 C    0.983
    37   1 H    0.998 --    18 C    0.965
    38   1 H    0.998 --    18 C    0.967
    39   1 H    0.968 --    20 N    0.913
    40   1 H    1.017 --    24 C    0.991
    41   1 H    1.034 --    24 C    0.987
    42   1 H    1.026 --    24 C    0.986
 ---------------------------------------------------------------------------

           -------------------------------------------------
          | TOTAL ENERGY              -83.614838956444 Eh   |
          | GRADIENT NORM               0.000882633985 Eh/α |
          | HOMO-LUMO GAP               0.196521025977 eV   |
           -------------------------------------------------

 * finished run on 2023/06/21 at 17:28:32.943
