   * xtb version 6.5.1 (579679a) compiled by 'ehlert@majestix' on 2022-07-11
          program call               : /lustre/hpc/kemi/ree/PhD/git/ReactivityQM/dep/xtb-6.5.1/bin/xtb --gfn 1 /lustre/hpc/kemi/ree/PhD/git/ReactivityQM/calculations/R02/reac01prodN16/conf18/R02_reac01prodN16_conf18_gfn1.xyz --opt --vfukui --chrg 1 --uhf 0 --alpb DMSO

   ID    Z sym.   atoms
    1    6 C      1, 2, 5, 6, 9-12, 14, 15, 18-20, 22
    2    7 N      3, 4, 8, 13, 24
    3    8 O      7, 16, 17, 21, 23, 25
    4    1 H      26-43

      * Solvation model:               ALPB
        Solvent                        DMSO
        Solvent mass                       7.8130E+01 g/mol
          :  Hamiltonian                  GFN1-xTB          :
 * total energy  :   -83.1091672 Eh     change       -0.1540457E-10 Eh
 * total energy  :   -83.1218585 Eh     change       -0.1269130E-01 Eh
 * total energy  :   -83.1261892 Eh     change       -0.4330714E-02 Eh
 * total energy  :   -83.1271633 Eh     change       -0.9740996E-03 Eh
 * total energy  :   -83.1280558 Eh     change       -0.8925190E-03 Eh
 * total energy  :   -83.1286675 Eh     change       -0.6116626E-03 Eh
 * total energy  :   -83.1291671 Eh     change       -0.4995661E-03 Eh
 * total energy  :   -83.1295562 Eh     change       -0.3891163E-03 Eh
 * total energy  :   -83.1298161 Eh     change       -0.2599077E-03 Eh
 * total energy  :   -83.1299792 Eh     change       -0.1631145E-03 Eh
 * total energy  :   -83.1315063 Eh     change       -0.2942107E-04 Eh
 * total energy  :   -83.1315312 Eh     change       -0.2488581E-04 Eh
 * total energy  :   -83.1315645 Eh     change       -0.3327224E-04 Eh
 * total energy  :   -83.1315903 Eh     change       -0.2582558E-04 Eh
 * total energy  :   -83.1316022 Eh     change       -0.1190521E-04 Eh
 * total energy  :   -83.1315965 Eh     change        0.5766019E-05 Eh
 * total energy  :   -83.1316158 Eh     change       -0.1932998E-04 Eh
 * total energy  :   -83.1316219 Eh     change       -0.6059593E-05 Eh
 * total energy  :   -83.1316258 Eh     change       -0.3975425E-05 Eh
   *** GEOMETRY OPTIMIZATION CONVERGED AFTER 44 ITERATIONS ***

 final structure:
================
43
 xtb: 6.5.1 (579679a)
C            5.94599159921746       -3.02661476099350        0.49679000154980
C            5.33907634498832       -1.75429388507741        0.94222062764454
N            5.78908044610190       -0.92111147935589        1.82903086512224
N            4.89646128833486        0.10335650543440        1.89545793797416
C            3.95432535815355       -0.16512072932383        1.04637533555327
C            2.75234519820270        0.63728699530592        0.73784203314067
O            2.54892803454604        1.72571773362308        1.26275827428397
N            1.92934052562413        0.02816010712793       -0.13851466738505
C            0.74699787452497        0.62201172602061       -0.77275918685679
C            1.07970483640406        2.01058398704677       -1.33827413436177
C            0.33518954156005       -0.32234185668332       -1.90238575464824
C           -0.38807256406975        0.74257080576228        0.22951668665433
N           -1.54627530949850        0.24873309454498       -0.06807011838353
C           -2.57905483201139        0.38495506944142        0.82981339555862
C           -3.85017482845734       -0.20191057766997        0.51680169817178
O           -4.82949994627309       -0.27463228888128        1.19159110785163
O           -3.91019834364897       -0.86716075475403       -0.81351783743128
C           -5.03702648569497       -1.78933400212720       -0.92331732395957
C           -3.75913938359914        0.00722023959699       -1.97423492630176
C           -2.41350345624487        1.03267685862365        2.04401979790177
O           -3.34977078711352        1.18896380335798        2.95468981637766
C           -1.09015983880348        1.60693936868426        2.38163914487869
O           -0.82747656691352        2.19010543095189        3.41050357608459
N           -0.15908230193095        1.40780927617130        1.38905404516696
O            4.17947141251731       -1.33507308527242        0.40988666505071
H            5.24615903787974       -3.84618754655725        0.65820466952124
H            6.86391898520980       -3.21208796182525        1.05009029070505
H            6.16337402359700       -2.97756597075217       -0.57022822199992
H            2.20997608894313       -0.87135181033746       -0.49641690146011
H            0.20703333133583        2.40083481253137       -1.85851229869185
H            1.35737651063780        2.70213393433509       -0.54530968636902
H            1.90527069746809        1.92259782017543       -2.04241456800156
H            0.04913526141311       -1.29203485598514       -1.49899120331760
H            1.16227665704889       -0.44941429433279       -2.59824399407378
H           -0.51494735572290        0.09460414865659       -2.43798430671874
H           -4.88451355858889       -2.34786582183637       -1.84251086243012
H           -4.99168807149104       -2.44199758666514       -0.05489337300482
H           -5.96875459320400       -1.22511170153172       -0.94559672991949
H           -4.62583250296002        0.66284368984667       -2.04976751825557
H           -2.83888203770001        0.56590311783675       -1.82711960115408
H           -3.67755179768112       -0.64576121418294       -2.83931729686620
H           -4.20944173110335        0.79434048764457        2.71346171765135
H            0.78961223899435        1.77409217143291        1.54863082474652

          :  Hamiltonian                  GFN1-xTB          :
         :: total energy             -83.131625825927 Eh    ::
         :: gradient norm              0.000335305809 Eh/a0 ::
         :: HOMO-LUMO gap              2.125181522468 eV    ::
         :: SCC energy               -83.931149302809 Eh    ::
         :: -> Gsolv                  -0.126644891437 Eh    ::
         :: repulsion energy           0.826465562622 Eh    ::

    * Orbital Energies and Occupations

         #    Occupation            Energy/Eh            Energy/eV
      -------------------------------------------------------------
         1        2.0000           -0.9319405             -25.3594
       ...           ...                  ...                  ...
        55        2.0000           -0.5289615             -14.3938
        56        2.0000           -0.5232202             -14.2375
        57        2.0000           -0.5164221             -14.0526
        58        2.0000           -0.5124104             -13.9434
        59        2.0000           -0.5114577             -13.9175
        60        2.0000           -0.4919846             -13.3876
        61        2.0000           -0.4864301             -13.2364
        62        2.0000           -0.4808377             -13.0843
        63        2.0000           -0.4752315             -12.9317
        64        2.0000           -0.4699905             -12.7891
        65        2.0000           -0.4611770             -12.5493
        66        2.0000           -0.4590168             -12.4905
        67        2.0000           -0.4577778             -12.4568 (HOMO)
        68                         -0.3796788             -10.3316 (LUMO)
        69                         -0.3225151              -8.7761
        70                         -0.3133809              -8.5275
        71                         -0.2857735              -7.7763
        72                         -0.2622231              -7.1355
        73                         -0.2095819              -5.7030
        74                         -0.1971011              -5.3634
        75                         -0.1802379              -4.9045
        76                         -0.1713465              -4.6626
        77                         -0.1443990              -3.9293
        78                         -0.1389978              -3.7823
       ...                                ...                  ...
       136                          0.7236222              19.6908
      -------------------------------------------------------------
                  HL-Gap            0.0780990 Eh            2.1252 eV

Wiberg/Mayer (AO) data.
largest (>0.10) Wiberg bond orders for each atom

     #   Z sym  total        # sym  WBO       # sym  WBO       # sym  WBO
 ---------------------------------------------------------------------------
     1   6 C    3.985 --     2 C    1.033    27 H    0.982    26 H    0.962
                            28 H    0.961
     2   6 C    3.865 --     3 N    1.604    25 O    1.073     1 C    1.033
     3   7 N    2.982 --     2 C    1.604     4 N    1.205
     4   7 N    3.003 --     5 C    1.616     3 N    1.205
     5   6 C    3.876 --     4 N    1.616    25 O    1.046     6 C    1.005
     6   6 C    3.913 --     7 O    1.550     8 N    1.267     5 C    1.005
     7   8 O    1.925 --     6 C    1.550     8 N    0.170
     8   7 N    3.348 --     6 C    1.267     9 C    0.923    29 H    0.887
                             7 O    0.170
     9   6 C    3.934 --    11 C    1.001    10 C    0.976    12 C    0.972
                             8 N    0.923
    10   6 C    3.984 --    30 H    0.984    32 H    0.981    31 H    0.979
                             9 C    0.976
    11   6 C    3.989 --     9 C    1.001    33 H    0.983    34 H    0.983
                            35 H    0.981
    12   6 C    3.924 --    13 N    1.571    24 N    1.200     9 C    0.972
    13   7 N    3.035 --    12 C    1.571    14 C    1.153
    14   6 C    3.958 --    20 C    1.408    13 N    1.153    15 C    1.133
    15   6 C    3.806 --    16 O    1.753    14 C    1.133    17 O    0.770
    16   8 O    2.071 --    15 C    1.753
    17   8 O    2.499 --    18 C    0.810    19 C    0.802    15 C    0.770
    18   6 C    3.781 --    38 H    0.979    36 H    0.977    37 H    0.975
                            17 O    0.810
    19   6 C    3.776 --    39 H    0.980    41 H    0.976    40 H    0.966
                            17 O    0.802
    20   6 C    3.906 --    14 C    1.408    21 O    1.183    22 C    1.019
    21   8 O    2.159 --    20 C    1.183    42 H    0.779
    22   6 C    3.914 --    23 O    1.635    24 N    1.140    20 C    1.019
    23   8 O    1.935 --    22 C    1.635    24 N    0.141
    24   7 N    3.480 --    12 C    1.200    22 C    1.140    43 H    0.819
                            23 O    0.141
    25   8 O    2.317 --     2 C    1.073     5 C    1.046
    26   1 H    0.996 --     1 C    0.962
    27   1 H    0.998 --     1 C    0.982
    28   1 H    0.996 --     1 C    0.961
    29   1 H    0.932 --     8 N    0.887
    30   1 H    0.999 --    10 C    0.984
    31   1 H    1.006 --    10 C    0.979
    32   1 H    0.997 --    10 C    0.981
    33   1 H    1.001 --    11 C    0.983
    34   1 H    0.996 --    11 C    0.983
    35   1 H    1.006 --    11 C    0.981
    36   1 H    0.994 --    18 C    0.977
    37   1 H    0.995 --    18 C    0.975
    38   1 H    0.995 --    18 C    0.979
    39   1 H    0.991 --    19 C    0.980
    40   1 H    1.018 --    19 C    0.966
    41   1 H    0.993 --    19 C    0.976
    42   1 H    0.829 --    21 O    0.779
    43   1 H    0.917 --    24 N    0.819
 ---------------------------------------------------------------------------

           -------------------------------------------------
          | TOTAL ENERGY              -83.131625825927 Eh   |
          | GRADIENT NORM               0.000335305809 Eh/α |
          | HOMO-LUMO GAP               2.125181522468 eV   |
           -------------------------------------------------

 * finished run on 2023/06/20 at 15:43:18.205
