   * xtb version 6.5.1 (579679a) compiled by 'ehlert@majestix' on 2022-07-11
          program call               : /lustre/hpc/kemi/ree/PhD/git/ReactivityQM/dep/xtb-6.5.1/bin/xtb --gfn 1 /lustre/hpc/kemi/ree/PhD/git/ReactivityQM/calculations/R02methylcation/reac01/conf15/R02methylcation_reac01_conf15_gfn1.xyz --opt --vfukui --chrg -1 --uhf 0 --alpb DMSO

   ID    Z sym.   atoms
    1    6 C      1, 3, 5, 7-10, 12, 14, 17, 18, 21, 23
    2    8 O      2, 4, 13, 19, 22, 24
    3    7 N      6, 11, 15, 16, 20
    4    1 H      25-38

      * Solvation model:               ALPB
        Solvent                        DMSO
        Solvent mass                       7.8130E+01 g/mol
          :  Hamiltonian                  GFN1-xTB          :
 * total energy  :   -79.6004265 Eh     change       -0.3313971E-10 Eh
 * total energy  :   -79.6137435 Eh     change       -0.1331695E-01 Eh
 * total energy  :   -79.6190754 Eh     change       -0.5331921E-02 Eh
 * total energy  :   -79.6200027 Eh     change       -0.9272435E-03 Eh
 * total energy  :   -79.6204336 Eh     change       -0.4309646E-03 Eh
 * total energy  :   -79.6205513 Eh     change       -0.1176864E-03 Eh
 * total energy  :   -79.6206078 Eh     change       -0.5650695E-04 Eh
 * total energy  :   -79.6206499 Eh     change       -0.4212614E-04 Eh
 * total energy  :   -79.6206892 Eh     change       -0.3921254E-04 Eh
 * total energy  :   -79.6207326 Eh     change       -0.4345069E-04 Eh
 * total energy  :   -79.6213367 Eh     change       -0.1517576E-04 Eh
 * total energy  :   -79.6213554 Eh     change       -0.1863452E-04 Eh
 * total energy  :   -79.6213749 Eh     change       -0.1953271E-04 Eh
 * total energy  :   -79.6213922 Eh     change       -0.1726215E-04 Eh
 * total energy  :   -79.6214065 Eh     change       -0.1437033E-04 Eh
 * total energy  :   -79.6214198 Eh     change       -0.1326649E-04 Eh
 * total energy  :   -79.6214324 Eh     change       -0.1263923E-04 Eh
 * total energy  :   -79.6214435 Eh     change       -0.1105484E-04 Eh
 * total energy  :   -79.6214474 Eh     change       -0.3887280E-05 Eh
   *** GEOMETRY OPTIMIZATION CONVERGED AFTER 44 ITERATIONS ***

 final structure:
================
38
 xtb: 6.5.1 (579679a)
C            6.38200805565233        0.74897670882886       -1.58212873116336
O            5.27402788643581        0.96049755851788       -0.71942434349121
C            4.20344252021865        0.15044310215319       -0.92389615957951
O            4.22294276609136       -0.69273512498076       -1.81411950447959
C            3.08853904240623        0.37385953864446       -0.01703091210638
N            2.03112337408094       -0.48713722529503       -0.24907984754012
C            0.97215657355270       -0.43838850324234        0.47057243609688
C           -0.15733752427386       -1.42333046207888        0.21252514751030
C           -0.43442265093952       -2.27976118098088        1.45417274809057
C            0.22758597338603       -2.32585128149381       -0.96196052429827
N           -1.37982230111083       -0.70456996166638       -0.19683454071755
C           -2.23110493406808       -0.05866454869832        0.61756815111546
O           -2.07164242585428        0.15686093417842        1.80900443278551
C           -3.43242390745957        0.40259421116524       -0.13016603997787
N           -3.63155868944296        0.29033403195962       -1.40915669446454
N           -4.85425869453578        0.83614711526464       -1.66597409680490
C           -5.32299522296614        1.24426851744744       -0.52610628176712
C           -6.62464333148308        1.89823097585802       -0.26798241724645
O           -4.47034804693555        1.00290208465080        0.48052446758746
N            0.83517441505855        0.46601466034332        1.50100951006562
C            1.79406134703899        1.38443706717903        1.83677623237108
O            1.59642809168230        2.16591592582196        2.76529773586580
C            3.06071822180892        1.35477947436269        1.00831459943554
O            3.96427510790248        2.16892883481022        1.27510607872698
H            6.76180640629104       -0.27276503205173       -1.48214617367032
H            7.15519071511442        1.45903173103911       -1.29071263294508
H            6.09945347483326        0.91763501609427       -2.62609936893568
H           -1.28719309158201       -2.93077136634944        1.27007251964953
H            0.44010156554245       -2.89374064841279        1.66477639633539
H           -0.64569963906616       -1.66337658363497        2.32498452099584
H           -0.57464409625810       -3.03057105607288       -1.17104407391799
H            0.42282141099842       -1.72715156122534       -1.85095041187624
H            1.13235008550184       -2.87942595683349       -0.71491702410927
H           -1.67599215728985       -0.83472565633648       -1.15268460283916
H           -6.46845339512333        2.88699102115016        0.16321366093938
H           -7.20269534147174        1.30809203452969        0.44269465206488
H           -7.17774219472520        1.99019057097950       -1.19914809693815
H           -0.02122938901617        0.47583603436718        2.04001018922349

          :  Hamiltonian                  GFN1-xTB          :
         :: total energy             -79.621447370245 Eh    ::
         :: gradient norm              0.000352068984 Eh/a0 ::
         :: HOMO-LUMO gap              1.580253963256 eV    ::
         :: SCC energy               -80.346845271407 Eh    ::
         :: -> Gsolv                  -0.124795780313 Eh    ::
         :: repulsion energy           0.748257901827 Eh    ::

    * Orbital Energies and Occupations

         #    Occupation            Energy/Eh            Energy/eV
      -------------------------------------------------------------
         1        2.0000           -0.8607278             -23.4216
       ...           ...                  ...                  ...
        52        2.0000           -0.4860454             -13.2260
        53        2.0000           -0.4794566             -13.0467
        54        2.0000           -0.4642007             -12.6315
        55        2.0000           -0.4609639             -12.5435
        56        2.0000           -0.4571819             -12.4406
        57        2.0000           -0.4530504             -12.3281
        58        2.0000           -0.4484721             -12.2035
        59        2.0000           -0.4432367             -12.0611
        60        2.0000           -0.4359165             -11.8619
        61        2.0000           -0.4349117             -11.8346
        62        2.0000           -0.4131520             -11.2424
        63        2.0000           -0.3764468             -10.2436
        64        2.0000           -0.3642461              -9.9116 (HOMO)
        65                         -0.3061729              -8.3314 (LUMO)
        66                         -0.2677413              -7.2856
        67                         -0.2544213              -6.9232
        68                         -0.2377799              -6.4703
        69                         -0.1951840              -5.3112
        70                         -0.1946714              -5.2973
        71                         -0.1410359              -3.8378
        72                         -0.1213554              -3.3022
        73                         -0.1198151              -3.2603
        74                         -0.1167508              -3.1770
        75                         -0.1068511              -2.9076
       ...                                ...                  ...
       124                          0.7564222              20.5833
      -------------------------------------------------------------
                  HL-Gap            0.0580733 Eh            1.5803 eV

Wiberg/Mayer (AO) data.
largest (>0.10) Wiberg bond orders for each atom

     #   Z sym  total        # sym  WBO       # sym  WBO       # sym  WBO
 ---------------------------------------------------------------------------
     1   6 C    3.899 --    26 H    0.987    27 H    0.980    25 H    0.980
                             2 O    0.926
     2   8 O    2.159 --     3 C    1.046     1 C    0.926     4 O    0.109
     3   6 C    3.850 --     4 O    1.574     5 C    1.116     2 O    1.046
     4   8 O    1.849 --     3 C    1.574     2 O    0.109
     5   6 C    3.914 --    23 C    1.271     6 N    1.152     3 C    1.116
                            24 O    0.129
     6   7 N    3.031 --     7 C    1.631     5 C    1.152
     7   6 C    3.934 --     6 N    1.631    20 N    1.103     8 C    0.968
     8   6 C    3.929 --    10 C    1.002     9 C    0.988     7 C    0.968
                            11 N    0.906
     9   6 C    3.990 --     8 C    0.988    29 H    0.985    28 H    0.985
                            30 H    0.979
    10   6 C    3.993 --     8 C    1.002    31 H    0.986    32 H    0.983
                            33 H    0.982
    11   7 N    3.356 --    12 C    1.277     8 C    0.906    34 H    0.897
                            13 O    0.181
    12   6 C    3.919 --    13 O    1.572    11 N    1.277    14 C    0.986
    13   8 O    1.913 --    12 C    1.572    11 N    0.181
    14   6 C    3.873 --    15 N    1.612    19 O    1.064    12 C    0.986
    15   7 N    3.014 --    14 C    1.612    16 N    1.197
    16   7 N    2.980 --    17 C    1.608    15 N    1.197
    17   6 C    3.872 --    16 N    1.608    19 O    1.083    18 C    1.031
    18   6 C    3.987 --    17 C    1.031    37 H    0.983    36 H    0.964
                            35 H    0.963
    19   8 O    2.330 --    17 C    1.083    14 C    1.064
    20   7 N    3.434 --    21 C    1.169     7 C    1.103    38 H    0.879
                            22 O    0.136
    21   6 C    3.881 --    22 O    1.574    20 N    1.169    23 C    0.968
    22   8 O    1.854 --    21 C    1.574    20 N    0.136
    23   6 C    3.943 --    24 O    1.519     5 C    1.271    21 C    0.968
    24   8 O    1.823 --    23 C    1.519     5 C    0.129
    25   1 H    1.014 --     1 C    0.980
    26   1 H    1.016 --     1 C    0.987
    27   1 H    1.014 --     1 C    0.980
    28   1 H    1.001 --     9 C    0.985
    29   1 H    1.003 --     9 C    0.985
    30   1 H    1.011 --     9 C    0.979
    31   1 H    1.001 --    10 C    0.986
    32   1 H    1.010 --    10 C    0.983
    33   1 H    1.011 --    10 C    0.982
    34   1 H    0.954 --    11 N    0.897
    35   1 H    0.997 --    18 C    0.963
    36   1 H    0.997 --    18 C    0.964
    37   1 H    0.999 --    18 C    0.983
    38   1 H    0.952 --    20 N    0.879
 ---------------------------------------------------------------------------

           -------------------------------------------------
          | TOTAL ENERGY              -79.621447370245 Eh   |
          | GRADIENT NORM               0.000352068984 Eh/α |
          | HOMO-LUMO GAP               1.580253963256 eV   |
           -------------------------------------------------

 * finished run on 2023/06/21 at 17:04:01.719
