   * xtb version 6.5.1 (579679a) compiled by 'ehlert@majestix' on 2022-07-11
          program call               : /lustre/hpc/kemi/ree/PhD/git/ReactivityQM/dep/xtb-6.5.1/bin/xtb --gfn 1 /lustre/hpc/kemi/ree/PhD/git/ReactivityQM/calculations/R02deprot/reac01prodE14/conf19/R02deprot_reac01prodE14_conf19_gfn1.xyz --opt --vfukui --chrg -2 --uhf 0 --alpb DMSO

   ID    Z sym.   atoms
    1    6 C      1, 3, 5, 7-10, 12, 14, 17, 18, 21, 23, 24
    2    8 O      2, 4, 13, 19, 22, 25
    3    7 N      6, 11, 15, 16, 20
    4    1 H      26-42

      * Solvation model:               ALPB
        Solvent                        DMSO
        Solvent mass                       7.8130E+01 g/mol
          :  Hamiltonian                  GFN1-xTB          :
 * total energy  :   -83.5889112 Eh     change       -0.6858158E-10 Eh
 * total energy  :   -83.6103318 Eh     change       -0.2142058E-01 Eh
 * total energy  :   -83.6201402 Eh     change       -0.9808425E-02 Eh
 * total energy  :   -83.6223942 Eh     change       -0.2253925E-02 Eh
 * total energy  :   -83.6244372 Eh     change       -0.2043018E-02 Eh
 * total energy  :   -83.6256622 Eh     change       -0.1225050E-02 Eh
 * total energy  :   -83.6268776 Eh     change       -0.1215408E-02 Eh
 * total energy  :   -83.6280359 Eh     change       -0.1158282E-02 Eh
 * total energy  :   -83.6288550 Eh     change       -0.8190959E-03 Eh
 * total energy  :   -83.6294648 Eh     change       -0.6097647E-03 Eh
 * total energy  :   -83.6336772 Eh     change       -0.1295139E-03 Eh
 * total energy  :   -83.6337005 Eh     change       -0.2335723E-04 Eh
 * total energy  :   -83.6337204 Eh     change       -0.1993300E-04 Eh
 * total energy  :   -83.6337413 Eh     change       -0.2088071E-04 Eh
 * total energy  :   -83.6337562 Eh     change       -0.1487241E-04 Eh
 * total energy  :   -83.6337641 Eh     change       -0.7888593E-05 Eh
 * total energy  :   -83.6337712 Eh     change       -0.7137140E-05 Eh
 * total energy  :   -83.6337768 Eh     change       -0.5565008E-05 Eh
 * total energy  :   -83.6337809 Eh     change       -0.4129678E-05 Eh
   *** GEOMETRY OPTIMIZATION CONVERGED AFTER 102 ITERATIONS ***

 final structure:
================
42
 xtb: 6.5.1 (579679a)
C           -6.26337789709215       -0.19572229912429       -0.37890376443372
O           -4.96684453161715        0.33791766646209       -0.24272836483320
C           -3.93763424518549       -0.62661246757454       -0.12094440548087
O           -4.26569336201462       -1.83528345391609       -0.15664012909744
C           -2.65801743560846       -0.08943471950067        0.02537241138725
N           -1.60605707504652       -0.99095326533956        0.04928049154483
C           -0.38931190108145       -0.56491341961549        0.15831556540247
C            0.70804508162645       -1.62991220440792        0.11721195339608
C            0.55354822817477       -2.56960743083813        1.32389804220678
C            0.59773575706374       -2.42088459118437       -1.19484661075970
N            1.99476275414302       -0.93829634249264        0.17857560951664
C            3.18953649297211       -1.53428853056840        0.16808982543847
O            3.38414500143459       -2.75191526228571        0.10922113281127
C            4.32890852318563       -0.58727115295781        0.22461994481801
N            5.59994675777075       -0.88606906204499        0.25589801519979
N            6.28200701980486        0.29802601742170        0.29237254279891
C            5.39414307906504        1.24151141590530        0.28041446737925
C            5.63255482732922        2.70266091461873        0.30479247983914
O            4.14035315457424        0.75691240540240        0.23937915349718
N            0.03588691703822        0.72074624850393        0.38195677312275
C           -0.87432511945819        1.68090550913842        0.43665210048266
O           -0.62230099159989        2.85734748036561        0.78923466344824
C           -2.35400266613774        1.39295815653627        0.03366837889135
C           -2.56612294650575        2.02578009041317       -1.36503589943093
O           -3.17233005674865        2.10002611609275        0.98082563505434
H           -6.95809953023257        0.64267709684937       -0.46202735428037
H           -6.35171987514309       -0.82085575586447       -1.27813357784171
H           -6.54416041892424       -0.80623301353528        0.49034624159203
H            1.25955168934970       -3.39768875286703        1.27218294800147
H           -0.46182080833816       -2.96692130511754        1.33015512803207
H            0.72237033970604       -2.01914652067854        2.24932961719856
H            0.78447845766475       -1.76187884086341       -2.04257995042052
H           -0.41324496738846       -2.82099322954722       -1.27699620221039
H            1.31131679179945       -3.24341669630880       -1.22239303658704
H            1.91753703009577        0.07776859067166        0.26021849127241
H            5.16926906143618        3.17364825871437       -0.56184842857155
H            6.70195208661985        2.89566870423255        0.29376276384120
H            5.19556712232948        3.14009333759805        1.20255931874628
H           -2.24942617680514        3.06913846275614       -1.34936632650106
H           -3.61946614349927        1.98242276984105       -1.64055071738600
H           -1.97912505735603        1.48718787596649       -2.10889748393990
H           -2.65053596738334        2.87489919915723        1.25352955686195

          :  Hamiltonian                  GFN1-xTB          :
         :: total energy             -83.633780922297 Eh    ::
         :: gradient norm              0.000524295686 Eh/a0 ::
         :: HOMO-LUMO gap              0.142868894980 eV    ::
         :: SCC energy               -84.365106122318 Eh    ::
         :: -> Gsolv                  -0.272039304476 Eh    ::
         :: repulsion energy           0.757063272751 Eh    ::

    * Orbital Energies and Occupations

         #    Occupation            Energy/Eh            Energy/eV
      -------------------------------------------------------------
         1        2.0000           -0.8408136             -22.8797
       ...           ...                  ...                  ...
        56        2.0000           -0.4353706             -11.8470
        57        2.0000           -0.4346964             -11.8287
        58        2.0000           -0.4264638             -11.6047
        59        2.0000           -0.4220770             -11.4853
        60        2.0000           -0.4202179             -11.4347
        61        2.0000           -0.4132159             -11.2442
        62        2.0000           -0.4079806             -11.1017
        63        2.0000           -0.3965647             -10.7911
        64        2.0000           -0.3804344             -10.3521
        65        2.0000           -0.3607634              -9.8169
        66        2.0000           -0.3527058              -9.5976
        67        2.0000           -0.3294246              -8.9641
        68        1.8813           -0.2880157              -7.8373 (HOMO)
        69        0.1187           -0.2827654              -7.6944 (LUMO)
        70                         -0.2377076              -6.4684
        71                         -0.2002601              -5.4494
        72                         -0.1683442              -4.5809
        73                         -0.1356399              -3.6909
        74                         -0.1339778              -3.6457
        75                         -0.1114971              -3.0340
        76                         -0.1024344              -2.7874
        77                         -0.0936610              -2.5486
        78                         -0.0925944              -2.5196
        79                         -0.0742236              -2.0197
       ...                                ...                  ...
       134                          0.7244349              19.7129
      -------------------------------------------------------------
                  HL-Gap            0.0052503 Eh            0.1429 eV

Wiberg/Mayer (AO) data.
largest (>0.10) Wiberg bond orders for each atom

     #   Z sym  total        # sym  WBO       # sym  WBO       # sym  WBO
 ---------------------------------------------------------------------------
     1   6 C    3.926 --    26 H    0.987    28 H    0.980    27 H    0.980
                             2 O    0.958
     2   8 O    2.065 --     1 C    0.958     3 C    0.918
     3   6 C    3.847 --     4 O    1.429     5 C    1.368     2 O    0.918
     4   8 O    1.721 --     3 C    1.429     5 C    0.117
     5   6 C    3.806 --     3 C    1.368     6 N    1.151    23 C    0.983
                             4 O    0.117
     6   7 N    3.007 --     7 C    1.571     5 C    1.151
     7   6 C    3.923 --     6 N    1.571    20 N    1.170     8 C    0.962
     8   6 C    3.921 --    10 C    0.986     9 C    0.983     7 C    0.962
                            11 N    0.920
     9   6 C    3.993 --    31 H    0.987    30 H    0.985    29 H    0.985
                             8 C    0.983
    10   6 C    3.993 --    32 H    0.987     8 C    0.986    34 H    0.985
                            33 H    0.984
    11   7 N    3.370 --    12 C    1.303     8 C    0.920    35 H    0.868
                            13 O    0.180
    12   6 C    3.895 --    13 O    1.512    11 N    1.303    14 C    1.005
    13   8 O    1.818 --    12 C    1.512    11 N    0.180
    14   6 C    3.813 --    15 N    1.580    19 O    1.033    12 C    1.005
    15   7 N    2.930 --    14 C    1.580    16 N    1.188
    16   7 N    2.978 --    17 C    1.621    15 N    1.188
    17   6 C    3.859 --    16 N    1.621    19 O    1.069    18 C    1.028
    18   6 C    3.990 --    17 C    1.028    37 H    0.984    36 H    0.967
                            38 H    0.965
    19   8 O    2.286 --    17 C    1.069    14 C    1.033
    20   7 N    2.958 --    21 C    1.386     7 C    1.170    22 O    0.135
    21   6 C    3.900 --    22 O    1.465    20 N    1.386    23 C    0.910
    22   8 O    1.775 --    21 C    1.465    20 N    0.135
    23   6 C    3.899 --     5 C    0.983    24 C    0.965    25 O    0.924
                            21 C    0.910
    24   6 C    3.990 --    41 H    0.988    39 H    0.986    40 H    0.985
                            23 C    0.965
    25   8 O    1.872 --    23 C    0.924    42 H    0.860
    26   1 H    1.021 --     1 C    0.987
    27   1 H    1.023 --     1 C    0.980
    28   1 H    1.023 --     1 C    0.980
    29   1 H    1.015 --     9 C    0.985
    30   1 H    1.020 --     9 C    0.985
    31   1 H    1.009 --     9 C    0.987
    32   1 H    1.010 --    10 C    0.987
    33   1 H    1.023 --    10 C    0.984
    34   1 H    1.015 --    10 C    0.985
    35   1 H    0.985 --    11 N    0.868
    36   1 H    0.998 --    18 C    0.967
    37   1 H    1.001 --    18 C    0.984
    38   1 H    0.998 --    18 C    0.965
    39   1 H    1.016 --    24 C    0.986
    40   1 H    1.023 --    24 C    0.985
    41   1 H    1.014 --    24 C    0.988
    42   1 H    0.914 --    25 O    0.860
 ---------------------------------------------------------------------------

           -------------------------------------------------
          | TOTAL ENERGY              -83.633780922297 Eh   |
          | GRADIENT NORM               0.000524295686 Eh/α |
          | HOMO-LUMO GAP               0.142868894980 eV   |
           -------------------------------------------------

 * finished run on 2023/06/20 at 18:04:34.335
