   * xtb version 6.5.1 (579679a) compiled by 'ehlert@majestix' on 2022-07-11
          program call               : /lustre/hpc/kemi/ree/PhD/git/ReactivityQM/dep/xtb-6.5.1/bin/xtb --gfn 1 /lustre/hpc/kemi/ree/PhD/git/ReactivityQM/calculations/R02/reac02prodN01/conf07/R02_reac02prodN01_conf07_gfn1.xyz --opt --vfukui --chrg 1 --uhf 0 --alpb DMSO

   ID    Z sym.   atoms
    1    6 C      1, 4
    2    8 O      2, 5
    3    5 B      3
    4    1 H      6-13

      * Solvation model:               ALPB
        Solvent                        DMSO
        Solvent mass                       7.8130E+01 g/mol
          :  Hamiltonian                  GFN1-xTB          :
 * total energy  :   -19.0544562 Eh     change       -0.3602807E-10 Eh
 * total energy  :   -19.0633076 Eh     change       -0.8851386E-02 Eh
 * total energy  :   -19.0657928 Eh     change       -0.2485189E-02 Eh
 * total energy  :   -19.0662512 Eh     change       -0.4583649E-03 Eh
 * total energy  :   -19.0665750 Eh     change       -0.3237861E-03 Eh
 * total energy  :   -19.0666402 Eh     change       -0.6525110E-04 Eh
 * total energy  :   -19.0666740 Eh     change       -0.3378106E-04 Eh
 * total energy  :   -19.0666892 Eh     change       -0.1518674E-04 Eh
 * total energy  :   -19.0666968 Eh     change       -0.7615869E-05 Eh
 * total energy  :   -19.0666987 Eh     change       -0.1863270E-05 Eh
   *** GEOMETRY OPTIMIZATION CONVERGED AFTER 10 ITERATIONS ***

 final structure:
================
13
 xtb: 6.5.1 (579679a)
C            1.73023975698419       -0.20654605188152        0.15634592889970
O            0.64550000402079        0.66889783079644       -0.26321473711542
B           -0.82177119676077        0.41081879791781       -0.22406748578764
C           -1.31404364300300       -0.90983323754327        0.41280830725633
O           -1.57364536662414        1.35744172117634       -0.74515768205333
H            2.45486475792754        0.39491304672375        0.70150183852460
H            1.30067692632681       -0.96620073791885        0.80379707554212
H            2.17666725784965       -0.65932386345750       -0.72849001091994
H            0.96176798691604        1.47508641089415       -0.69330721688062
H           -0.99387749022625       -0.98982614119595        1.45150314050917
H           -2.40096819760509       -0.97057813775787        0.38340483205301
H           -0.90717676766014       -1.77244928228334       -0.11431304511969
H           -1.25823402814570        2.16759864452985       -1.14080994490841

          :  Hamiltonian                  GFN1-xTB          :
         :: total energy             -19.066698671240 Eh    ::
         :: gradient norm              0.000315645769 Eh/a0 ::
         :: HOMO-LUMO gap              7.744539210333 eV    ::
         :: SCC energy               -19.259446214801 Eh    ::
         :: -> Gsolv                  -0.101716905881 Eh    ::
         :: repulsion energy           0.196340823164 Eh    ::

    * Orbital Energies and Occupations

         #    Occupation            Energy/Eh            Energy/eV
      -------------------------------------------------------------
         1        2.0000           -0.9092554             -24.7421
       ...           ...                  ...                  ...
         3        2.0000           -0.7652834             -20.8244
         4        2.0000           -0.7514030             -20.4467
         5        2.0000           -0.6981183             -18.9968
         6        2.0000           -0.6868892             -18.6912
         7        2.0000           -0.6581725             -17.9098
         8        2.0000           -0.6551208             -17.8267
         9        2.0000           -0.6078834             -16.5413
        10        2.0000           -0.5996739             -16.3180
        11        2.0000           -0.5726811             -15.5834
        12        2.0000           -0.5538253             -15.0704
        13        2.0000           -0.5464468             -14.8696
        14        2.0000           -0.5426530             -14.7663
        15        2.0000           -0.5331667             -14.5082 (HOMO)
        16                         -0.2485601              -6.7637 (LUMO)
        17                         -0.1912248              -5.2035
        18                         -0.1801848              -4.9031
        19                         -0.1571472              -4.2762
        20                         -0.1134094              -3.0860
        21                         -0.1104347              -3.0051
        22                         -0.1031189              -2.8060
        23                         -0.0815105              -2.2180
        24                         -0.0695479              -1.8925
        25                         -0.0475635              -1.2943
        26                          0.0682723               1.8578
       ...                                ...                  ...
        36                          0.6191865              16.8489
      -------------------------------------------------------------
                  HL-Gap            0.2846066 Eh            7.7445 eV

Wiberg/Mayer (AO) data.
largest (>0.10) Wiberg bond orders for each atom

     #   Z sym  total        # sym  WBO       # sym  WBO       # sym  WBO
 ---------------------------------------------------------------------------
     1   6 C    3.786 --     7 H    0.981     8 H    0.980     6 H    0.980
                             2 O    0.817
     2   8 O    2.369 --     1 C    0.817     9 H    0.754     3 B    0.735
     3   5 B    3.140 --     5 O    1.286     4 C    1.044     2 O    0.735
     4   6 C    3.988 --     3 B    1.044    11 H    0.975    12 H    0.959
                            10 H    0.958
     5   8 O    2.157 --     3 B    1.286    13 H    0.790
     6   1 H    0.993 --     1 C    0.980
     7   1 H    0.997 --     1 C    0.981
     8   1 H    0.994 --     1 C    0.980
     9   1 H    0.782 --     2 O    0.754
    10   1 H    0.993 --     4 C    0.958
    11   1 H    0.993 --     4 C    0.975
    12   1 H    0.993 --     4 C    0.959
    13   1 H    0.812 --     5 O    0.790
 ---------------------------------------------------------------------------

           -------------------------------------------------
          | TOTAL ENERGY              -19.066698671240 Eh   |
          | GRADIENT NORM               0.000315645769 Eh/α |
          | HOMO-LUMO GAP               7.744539210333 eV   |
           -------------------------------------------------

 * finished run on 2023/06/20 at 15:48:42.126
