                         Program Version 5.0.1 -  RELEASE  -
|  1> # ORCA input file
|  2> ! SP r2SCAN-3c CPCM
|  3>
|  4> %maxcore 1875.0
|  5> %pal nprocs 4 end
|  6> %cpcm smd true SMDsolvent "DMSO" end
|  7>
|  8> *xyz 1 1
|  9> C      -6.132024    0.729734    1.055630
| 10> O      -4.916728    0.444728    0.338034
| 11> C      -3.795303    0.949280    0.794812
| 12> O      -3.662789    1.650123    1.759263
| 13> C      -2.610225    0.525236   -0.067951
| 14> N      -1.570069    0.074087    0.548160
| 15> C      -0.438376   -0.207974   -0.155343
| 16> C       0.684554   -0.899153    0.573724
| 17> C       0.710902   -2.353258    0.059112
| 18> C       0.458258   -0.862910    2.084615
| 19> N       1.982126   -0.264041    0.309169
| 20> C       2.612100   -0.168715   -0.874723
| 21> O       2.082311   -0.370028   -1.975364
| 22> C       4.010803    0.251970   -0.765350
| 23> N       4.863668    0.466986   -1.720646
| 24> N       6.026830    0.833815   -1.131825
| 25> C       5.821702    0.823860    0.152448
| 26> C       6.778033    1.149960    1.229944
| 27> O       4.564319    0.462626    0.448390
| 28> N      -0.312399    0.079041   -1.422171
| 29> C      -1.330073    0.701851   -2.194613
| 30> O      -1.101246    1.168448   -3.266589
| 31> C      -2.702810    0.583079   -1.556119
| 32> C      -3.215933   -0.826630   -2.001599
| 33> O      -3.569654    1.585379   -1.960746
| 34> H      -6.227300    0.029145    1.886490
| 35> H      -6.945345    0.590004    0.346994
| 36> H      -6.111748    1.754675    1.429739
| 37> H       1.496190   -2.893823    0.583785
| 38> H      -0.247379   -2.829548    0.256514
| 39> H       0.909451   -2.374041   -1.010506
| 40> H       1.265882   -1.391354    2.586451
| 41> H      -0.486062   -1.347270    2.325823
| 42> H       0.427730    0.166723    2.436780
| 43> H       2.542700   -0.097695    1.133100
| 44> H       7.731539    1.449018    0.800744
| 45> H       6.379668    1.956880    1.844862
| 46> H       6.919992    0.280488    1.871992
| 47> H       0.680405   -0.106489   -1.847305
| 48> H      -2.562930   -1.609411   -1.625902
| 49> H      -3.238200   -0.850374   -3.088856
| 50> H      -4.221845   -0.957623   -1.610099
| 51> H      -3.550725    1.703203   -2.920457
| 52> **                         ****END OF INPUT****

CARTESIAN COORDINATES (ANGSTROEM)
---------------------------------
  C     -6.132024    0.729734    1.055630
  O     -4.916728    0.444728    0.338034
  C     -3.795303    0.949280    0.794812
  O     -3.662789    1.650123    1.759263
  C     -2.610225    0.525236   -0.067951
  N     -1.570069    0.074087    0.548160
  C     -0.438376   -0.207974   -0.155343
  C      0.684554   -0.899153    0.573724
  C      0.710902   -2.353258    0.059112
  C      0.458258   -0.862910    2.084615
  N      1.982126   -0.264041    0.309169
  C      2.612100   -0.168715   -0.874723
  O      2.082311   -0.370028   -1.975364
  C      4.010803    0.251970   -0.765350
  N      4.863668    0.466986   -1.720646
  N      6.026830    0.833815   -1.131825
  C      5.821702    0.823860    0.152448
  C      6.778033    1.149960    1.229944
  O      4.564319    0.462626    0.448390
  N     -0.312399    0.079041   -1.422171
  C     -1.330073    0.701851   -2.194613
  O     -1.101246    1.168448   -3.266589
  C     -2.702810    0.583079   -1.556119
  C     -3.215933   -0.826630   -2.001599
  O     -3.569654    1.585379   -1.960746
  H     -6.227300    0.029145    1.886490
  H     -6.945345    0.590004    0.346994
  H     -6.111748    1.754675    1.429739
  H      1.496190   -2.893823    0.583785
  H     -0.247379   -2.829548    0.256514
  H      0.909451   -2.374041   -1.010506
  H      1.265882   -1.391354    2.586451
  H     -0.486062   -1.347270    2.325823
  H      0.427730    0.166723    2.436780
  H      2.542700   -0.097695    1.133100
  H      7.731539    1.449018    0.800744
  H      6.379668    1.956880    1.844862
  H      6.919992    0.280488    1.871992
  H      0.680405   -0.106489   -1.847305
  H     -2.562930   -1.609411   -1.625902
  H     -3.238200   -0.850374   -3.088856
  H     -4.221845   -0.957623   -1.610099
  H     -3.550725    1.703203   -2.920457

 Total Charge           Charge          ....    1
 Multiplicity           Mult            ....    1
 Number of Electrons    NEL             ....  184
 Basis Dimension        Dim             ....  620

ORBITAL ENERGIES
----------------

  NO   OCC          E(Eh)            E(eV)
   0   2.0000     -19.079206      -519.1716
   1   2.0000     -19.032589      -517.9031
   2   2.0000     -18.999420      -517.0005
   3   2.0000     -18.992340      -516.8079
   4   2.0000     -18.981773      -516.5203
   5   2.0000     -18.974990      -516.3357
   6   2.0000     -14.260728      -388.0541
   7   2.0000     -14.237360      -387.4183
   8   2.0000     -14.223465      -387.0402
   9   2.0000     -14.220737      -386.9659
  10   2.0000     -14.208477      -386.6323
  11   2.0000     -10.200191      -277.5613
  12   2.0000     -10.200018      -277.5566
  13   2.0000     -10.198133      -277.5053
  14   2.0000     -10.195358      -277.4298
  15   2.0000     -10.172109      -276.7972
  16   2.0000     -10.159918      -276.4654
  17   2.0000     -10.159865      -276.4640
  18   2.0000     -10.159423      -276.4520
  19   2.0000     -10.138416      -275.8803
  20   2.0000     -10.090740      -274.5830
  21   2.0000     -10.059033      -273.7202
  22   2.0000     -10.050488      -273.4877
  23   2.0000     -10.044365      -273.3211
  24   2.0000     -10.038601      -273.1642
  25   2.0000      -1.169757       -31.8307
  26   2.0000      -1.111490       -30.2452
  27   2.0000      -1.091575       -29.7033
  28   2.0000      -1.068931       -29.0871
  29   2.0000      -1.040366       -28.3098
  30   2.0000      -1.026291       -27.9268
  31   2.0000      -1.019960       -27.7545
  32   2.0000      -0.991056       -26.9680
  33   2.0000      -0.949632       -25.8408
  34   2.0000      -0.935147       -25.4466
  35   2.0000      -0.847610       -23.0646
  36   2.0000      -0.824533       -22.4367
  37   2.0000      -0.786802       -21.4100
  38   2.0000      -0.745015       -20.2729
  39   2.0000      -0.724649       -19.7187
  40   2.0000      -0.709842       -19.3158
  41   2.0000      -0.691210       -18.8088
  42   2.0000      -0.689897       -18.7730
  43   2.0000      -0.668568       -18.1926
  44   2.0000      -0.659678       -17.9508
  45   2.0000      -0.621764       -16.9191
  46   2.0000      -0.609095       -16.5743
  47   2.0000      -0.596131       -16.2215
  48   2.0000      -0.585055       -15.9202
  49   2.0000      -0.579806       -15.7773
  50   2.0000      -0.556952       -15.1554
  51   2.0000      -0.551006       -14.9936
  52   2.0000      -0.527448       -14.3526
  53   2.0000      -0.525248       -14.2927
  54   2.0000      -0.508537       -13.8380
  55   2.0000      -0.489585       -13.3223
  56   2.0000      -0.478775       -13.0281
  57   2.0000      -0.474939       -12.9237
  58   2.0000      -0.470233       -12.7957
  59   2.0000      -0.469053       -12.7636
  60   2.0000      -0.460291       -12.5252
  61   2.0000      -0.458347       -12.4723
  62   2.0000      -0.441971       -12.0266
  63   2.0000      -0.438875       -11.9424
  64   2.0000      -0.433297       -11.7906
  65   2.0000      -0.422094       -11.4858
  66   2.0000      -0.415104       -11.2956
  67   2.0000      -0.407182       -11.0800
  68   2.0000      -0.402580       -10.9548
  69   2.0000      -0.393721       -10.7137
  70   2.0000      -0.387455       -10.5432
  71   2.0000      -0.386177       -10.5084
  72   2.0000      -0.384478       -10.4622
  73   2.0000      -0.380316       -10.3489
  74   2.0000      -0.376099       -10.2342
  75   2.0000      -0.371650       -10.1131
  76   2.0000      -0.363537        -9.8924
  77   2.0000      -0.363406        -9.8888
  78   2.0000      -0.357459        -9.7270
  79   2.0000      -0.345763        -9.4087
  80   2.0000      -0.343527        -9.3478
  81   2.0000      -0.333489        -9.0747
  82   2.0000      -0.327005        -8.8983
  83   2.0000      -0.309824        -8.4307
  84   2.0000      -0.307131        -8.3574
  85   2.0000      -0.302511        -8.2317
  86   2.0000      -0.294360        -8.0099
  87   2.0000      -0.288038        -7.8379
  88   2.0000      -0.275966        -7.5094
  89   2.0000      -0.274585        -7.4718
  90   2.0000      -0.271836        -7.3970
  91   2.0000      -0.268515        -7.3067
  92   0.0000      -0.182007        -4.9527
  93   0.0000      -0.114046        -3.1033
  94   0.0000      -0.093152        -2.5348
  95   0.0000      -0.038379        -1.0444
  96   0.0000      -0.031973        -0.8700

MULLIKEN ATOMIC CHARGES
-----------------------
   0 C :   -0.306907
   1 O :   -0.142149
   2 C :    0.195276
   3 O :   -0.373099
   4 C :    0.346018
   5 N :   -0.109705
   6 C :    0.136635
   7 C :    0.115610
   8 C :   -0.523795
   9 C :   -0.547693
  10 N :   -0.127133
  11 C :   -0.037816
  12 O :   -0.499480
  13 C :    0.382503
  14 N :   -0.152486
  15 N :   -0.264933
  16 C :    0.410741
  17 C :   -0.626410
  18 O :   -0.052259
  19 N :   -0.006982
  20 C :    0.223199
  21 O :   -0.327769
  22 C :    0.121333
  23 C :   -0.502738
  24 O :   -0.420768
  25 H :    0.191303
  26 H :    0.188893
  27 H :    0.188029
  28 H :    0.212439
  29 H :    0.204509
  30 H :    0.203809
  31 H :    0.200524
  32 H :    0.203944
  33 H :    0.202386
  34 H :    0.346056
  35 H :    0.208681
  36 H :    0.204689
  37 H :    0.206357
  38 H :    0.332470
  39 H :    0.223812
  40 H :    0.209522
  41 H :    0.210939
  42 H :    0.352446
Sum of atomic charges:    1.0000000

LOEWDIN ATOMIC CHARGES
----------------------
   0 C :   -0.022473
   1 O :   -0.551303
   2 C :    0.394434
   3 O :   -0.352130
   4 C :    0.363783
   5 N :   -0.471411
   6 C :    0.452580
   7 C :    0.109354
   8 C :   -0.315148
   9 C :   -0.325638
  10 N :   -0.528643
  11 C :    0.416960
  12 O :   -0.471623
  13 C :    0.415353
  14 N :   -0.313172
  15 N :   -0.342297
  16 C :    0.392594
  17 C :   -0.313119
  18 O :   -0.385796
  19 N :   -0.410152
  20 C :    0.413467
  21 O :   -0.316612
  22 C :    0.160455
  23 C :   -0.286667
  24 O :   -0.505260
  25 H :    0.190346
  26 H :    0.194126
  27 H :    0.192748
  28 H :    0.187706
  29 H :    0.185115
  30 H :    0.183339
  31 H :    0.179857
  32 H :    0.189241
  33 H :    0.182973
  34 H :    0.312420
  35 H :    0.193606
  36 H :    0.194912
  37 H :    0.195576
  38 H :    0.332294
  39 H :    0.191004
  40 H :    0.191353
  41 H :    0.194901
  42 H :    0.300948

  Mayer bond orders larger than 0.100000
B(  0-C ,  1-O ) :   0.8180 B(  0-C , 25-H ) :   0.9438 B(  0-C , 26-H ) :   0.9564
B(  0-C , 27-H ) :   0.9535 B(  1-O ,  2-C ) :   1.1595 B(  2-C ,  3-O ) :   1.9120
B(  2-C ,  4-C ) :   0.9918 B(  4-C ,  5-N ) :   1.4082 B(  4-C , 22-C ) :   0.9417
B(  5-N ,  6-C ) :   1.2097 B(  6-C ,  7-C ) :   0.9536 B(  6-C , 19-N ) :   1.4887
B(  7-C ,  8-C ) :   0.9060 B(  7-C ,  9-C ) :   0.9063 B(  7-C , 10-N ) :   0.7711
B(  8-C , 28-H ) :   0.9559 B(  8-C , 29-H ) :   0.9403 B(  8-C , 30-H ) :   0.9198
B(  9-C , 31-H ) :   0.9631 B(  9-C , 32-H ) :   0.9521 B(  9-C , 33-H ) :   0.9522
B( 10-N , 11-C ) :   1.2385 B( 10-N , 34-H ) :   0.8757 B( 11-C , 12-O ) :   1.5987
B( 11-C , 13-C ) :   0.9235 B( 11-C , 15-N ) :   0.1028 B( 12-O , 38-H ) :   0.1856
B( 13-C , 14-N ) :   1.6854 B( 13-C , 16-C ) :   0.1235 B( 13-C , 18-O ) :   1.0818
B( 14-N , 15-N ) :   1.2669 B( 15-N , 16-C ) :   1.5816 B( 16-C , 17-C ) :   0.8330
B( 16-C , 18-O ) :   1.0691 B( 17-C , 35-H ) :   0.9860 B( 17-C , 36-H ) :   0.9406
B( 17-C , 37-H ) :   0.9371 B( 19-N , 20-C ) :   0.8662 B( 19-N , 38-H ) :   0.7115
B( 20-C , 21-O ) :   2.0975 B( 20-C , 22-C ) :   0.8815 B( 22-C , 23-C ) :   1.0353
B( 22-C , 24-O ) :   0.8884 B( 23-C , 39-H ) :   0.9301 B( 23-C , 40-H ) :   0.9081
B( 23-C , 41-H ) :   0.9288 B( 24-O , 42-H ) :   0.8590

Dispersion correction           -0.019306371
FINAL SINGLE POINT ENERGY     -1269.047030285633

DIPOLE MOMENT
-------------
                                X             Y             Z
Electronic contribution:      5.57695       8.36469      -8.77850
Nuclear contribution   :     -7.52038     -10.57610      11.58708
                        -----------------------------------------
Total Dipole Moment    :     -1.94343      -2.21141       2.80858
                        -----------------------------------------
Magnitude (a.u.)       :      4.06883
Magnitude (Debye)      :     10.34213

Rotational constants in cm-1:     0.017028     0.003393     0.003133
Rotational constants in MHz :   510.486855   101.727332    93.938921

                             ****ORCA TERMINATED NORMALLY****
TOTAL RUN TIME: 0 days 0 hours 2 minutes 16 seconds 833 msec
