   * xtb version 6.5.1 (579679a) compiled by 'ehlert@majestix' on 2022-07-11
          program call               : /lustre/hpc/kemi/ree/PhD/git/ReactivityQM/dep/xtb-6.5.1/bin/xtb --gfn 1 /lustre/hpc/kemi/ree/PhD/git/ReactivityQM/calculations/R02/reac01prodN15/conf01/R02_reac01prodN15_conf01_gfn1.xyz --opt --vfukui --chrg 1 --uhf 0 --alpb DMSO

   ID    Z sym.   atoms
    1    6 C      1, 3, 5, 7-10, 12, 14, 17, 18, 21, 23, 24
    2    8 O      2, 4, 13, 19, 22, 25
    3    7 N      6, 11, 15, 16, 20
    4    1 H      26-43

      * Solvation model:               ALPB
        Solvent                        DMSO
        Solvent mass                       7.8130E+01 g/mol
          :  Hamiltonian                  GFN1-xTB          :
 * total energy  :   -83.0923880 Eh     change       -0.7605649E-10 Eh
 * total energy  :   -83.1080588 Eh     change       -0.1567081E-01 Eh
 * total energy  :   -83.1163120 Eh     change       -0.8253216E-02 Eh
 * total energy  :   -83.1181354 Eh     change       -0.1823374E-02 Eh
 * total energy  :   -83.1194319 Eh     change       -0.1296445E-02 Eh
 * total energy  :   -83.1203592 Eh     change       -0.9273498E-03 Eh
 * total energy  :   -83.1212798 Eh     change       -0.9205498E-03 Eh
 * total energy  :   -83.1220386 Eh     change       -0.7588457E-03 Eh
 * total energy  :   -83.1224786 Eh     change       -0.4399947E-03 Eh
 * total energy  :   -83.1227346 Eh     change       -0.2559672E-03 Eh
 * total energy  :   -83.1301869 Eh     change       -0.2378174E-04 Eh
 * total energy  :   -83.1302149 Eh     change       -0.2798814E-04 Eh
 * total energy  :   -83.1302440 Eh     change       -0.2916410E-04 Eh
 * total energy  :   -83.1302569 Eh     change       -0.1286645E-04 Eh
 * total energy  :   -83.1302672 Eh     change       -0.1032266E-04 Eh
 * total energy  :   -83.1302737 Eh     change       -0.6512841E-05 Eh
 * total energy  :   -83.1302844 Eh     change       -0.1064748E-04 Eh
 * total energy  :   -83.1302895 Eh     change       -0.5118477E-05 Eh
 * total energy  :   -83.1302936 Eh     change       -0.4109365E-05 Eh
   *** GEOMETRY OPTIMIZATION CONVERGED AFTER 73 ITERATIONS ***

 final structure:
================
43
 xtb: 6.5.1 (579679a)
C           -6.13202368448067        0.72973420684708        1.05562967303294
O           -4.91672818461031        0.44472848651445        0.33803407188713
C           -3.79530313904771        0.94927980423359        0.79481241431472
O           -3.66278948570143        1.65012259737868        1.75926285029654
C           -2.61022468913490        0.52523558551891       -0.06795088122448
N           -1.57006897580708        0.07408699657120        0.54815965140039
C           -0.43837613204994       -0.20797401173670       -0.15534335435214
C            0.68455385338667       -0.89915269283943        0.57372381154550
C            0.71090150862790       -2.35325835692249        0.05911200367194
C            0.45825764880535       -0.86291024905706        2.08461543372243
N            1.98212594964083       -0.26404094997425        0.30916862834273
C            2.61210003901969       -0.16871472857224       -0.87472304211763
O            2.08231088072067       -0.37002777680871       -1.97536422210236
C            4.01080345682389        0.25197041407437       -0.76535041649699
N            4.86366781629753        0.46698591178224       -1.72064553559222
N            6.02683045319500        0.83381484455819       -1.13182485803014
C            5.82170247560565        0.82386011393114        0.15244823132292
C            6.77803296682938        1.14996009270158        1.22994400849607
O            4.56431888773278        0.46262635324176        0.44839032522798
N           -0.31239873844592        0.07904116911906       -1.42217094906891
C           -1.33007316651523        0.70185129507275       -2.19461289275137
O           -1.10124627310536        1.16844830699062       -3.26658922219317
C           -2.70280964797472        0.58307890600530       -1.55611905529013
C           -3.21593326050818       -0.82662980214195       -2.00159947002849
O           -3.56965405528801        1.58537885768803       -1.96074564974614
H           -6.22730013801345        0.02914540905526        1.88648986222097
H           -6.94534506198126        0.59000379907185        0.34699385482968
H           -6.11174769652150        1.75467474769554        1.42973942317537
H            1.49618989354194       -2.89382255442383        0.58378470935543
H           -0.24737850480295       -2.82954764648608        0.25651429814648
H            0.90945149810495       -2.37404120041966       -1.01050619029517
H            1.26588175774038       -1.39135357600081        2.58645116295363
H           -0.48606178263607       -1.34726994034642        2.32582302561335
H            0.42773037205267        0.16672256443638        2.43678049261237
H            2.54270049737844       -0.09769464338272        1.13309983984035
H            7.73153889995072        1.44901797821791        0.80074442198730
H            6.37966799004865        1.95687954891158        1.84486179407060
H            6.91999160243654        0.28048796716185        1.87199247413941
H            0.68040487474238       -0.10648894273630       -1.84730508011439
H           -2.56293027878933       -1.60941121278484       -1.62590187204077
H           -3.23819971953093       -0.85037437722566       -3.08885632293560
H           -4.22184545562405       -0.95762283190145       -1.61009886661263
H           -3.55072525211747        1.70320253696166       -2.92045658120716

          :  Hamiltonian                  GFN1-xTB          :
         :: total energy             -83.130293624300 Eh    ::
         :: gradient norm              0.000633406844 Eh/a0 ::
         :: HOMO-LUMO gap              1.318829598042 eV    ::
         :: SCC energy               -83.913683123357 Eh    ::
         :: -> Gsolv                  -0.110063067253 Eh    ::
         :: repulsion energy           0.810384770678 Eh    ::

    * Orbital Energies and Occupations

         #    Occupation            Energy/Eh            Energy/eV
      -------------------------------------------------------------
         1        2.0000           -0.8854359             -24.0939
       ...           ...                  ...                  ...
        55        2.0000           -0.5377304             -14.6324
        56        2.0000           -0.5335730             -14.5193
        57        2.0000           -0.5308862             -14.4461
        58        2.0000           -0.5259169             -14.3109
        59        2.0000           -0.5231452             -14.2355
        60        2.0000           -0.5214737             -14.1900
        61        2.0000           -0.5112606             -13.9121
        62        2.0000           -0.4998528             -13.6017
        63        2.0000           -0.4959820             -13.4964
        64        2.0000           -0.4939348             -13.4406
        65        2.0000           -0.4831812             -13.1480
        66        2.0000           -0.4702620             -12.7965
        67        2.0000           -0.4695501             -12.7771 (HOMO)
        68                         -0.4210840             -11.4583 (LUMO)
        69                         -0.3456767              -9.4063
        70                         -0.3432011              -9.3390
        71                         -0.3002125              -8.1692
        72                         -0.2766730              -7.5287
        73                         -0.2718934              -7.3986
        74                         -0.2276214              -6.1939
        75                         -0.1567118              -4.2643
        76                         -0.1525571              -4.1513
        77                         -0.1488970              -4.0517
        78                         -0.1481929              -4.0325
       ...                                ...                  ...
       136                          0.7174998              19.5242
      -------------------------------------------------------------
                  HL-Gap            0.0484661 Eh            1.3188 eV

Wiberg/Mayer (AO) data.
largest (>0.10) Wiberg bond orders for each atom

     #   Z sym  total        # sym  WBO       # sym  WBO       # sym  WBO
 ---------------------------------------------------------------------------
     1   6 C    3.840 --    27 H    0.982    28 H    0.979    26 H    0.976
                             2 O    0.866
     2   8 O    2.246 --     3 C    1.168     1 C    0.866     4 O    0.156
     3   6 C    3.863 --     4 O    1.702     2 O    1.168     5 C    0.924
     4   8 O    1.975 --     3 C    1.702     2 O    0.156
     5   6 C    3.901 --     6 N    1.647    23 C    1.007     3 C    0.924
     6   7 N    3.053 --     5 C    1.647     7 C    1.191
     7   6 C    3.886 --    20 N    1.504     6 N    1.191     8 C    0.994
     8   6 C    3.928 --    10 C    0.997     7 C    0.994     9 C    0.942
                            11 N    0.923
     9   6 C    3.975 --    30 H    0.982    31 H    0.980    29 H    0.974
                             8 C    0.942
    10   6 C    3.981 --     8 C    0.997    34 H    0.982    32 H    0.981
                            33 H    0.980
    11   7 N    3.358 --    12 C    1.288     8 C    0.923    35 H    0.878
                            13 O    0.155
    12   6 C    3.905 --    13 O    1.482    11 N    1.288    14 C    1.031
    13   8 O    1.995 --    12 C    1.482    39 H    0.192    11 N    0.155
    14   6 C    3.881 --    15 N    1.595    19 O    1.045    12 C    1.031
    15   7 N    3.009 --    14 C    1.595    16 N    1.224
    16   7 N    2.984 --    17 C    1.584    15 N    1.224
    17   6 C    3.860 --    16 N    1.584    19 O    1.078    18 C    1.035
    18   6 C    3.983 --    17 C    1.035    36 H    0.981    37 H    0.960
                            38 H    0.958
    19   8 O    2.322 --    17 C    1.078    14 C    1.045
    20   7 N    3.494 --     7 C    1.504    21 C    0.996    39 H    0.659
    21   6 C    3.858 --    22 O    1.794    20 N    0.996    23 C    0.937
    22   8 O    2.046 --    21 C    1.794
    23   6 C    3.939 --     5 C    1.007    25 O    0.999    21 C    0.937
                            24 C    0.864
    24   6 C    3.965 --    40 H    0.985    42 H    0.974    41 H    0.972
                            23 C    0.864
    25   8 O    1.918 --    23 C    0.999    43 H    0.820
    26   1 H    1.001 --     1 C    0.976
    27   1 H    1.005 --     1 C    0.982
    28   1 H    1.002 --     1 C    0.979
    29   1 H    0.992 --     9 C    0.974
    30   1 H    0.995 --     9 C    0.982
    31   1 H    0.998 --     9 C    0.980
    32   1 H    0.993 --    10 C    0.981
    33   1 H    1.003 --    10 C    0.980
    34   1 H    0.997 --    10 C    0.982
    35   1 H    0.923 --    11 N    0.878
    36   1 H    0.996 --    18 C    0.981
    37   1 H    0.995 --    18 C    0.960
    38   1 H    0.994 --    18 C    0.958
    39   1 H    0.881 --    20 N    0.659    13 O    0.192
    40   1 H    0.994 --    24 C    0.985
    41   1 H    0.992 --    24 C    0.972
    42   1 H    1.002 --    24 C    0.974
    43   1 H    0.837 --    25 O    0.820
 ---------------------------------------------------------------------------

           -------------------------------------------------
          | TOTAL ENERGY              -83.130293624300 Eh   |
          | GRADIENT NORM               0.000633406844 Eh/α |
          | HOMO-LUMO GAP               1.318829598042 eV   |
           -------------------------------------------------

 * finished run on 2023/06/20 at 15:40:32.430
