   * xtb version 6.5.1 (579679a) compiled by 'ehlert@majestix' on 2022-07-11
          program call               : /lustre/hpc/kemi/ree/PhD/git/ReactivityQM/dep/xtb-6.5.1/bin/xtb --gfn 1 /lustre/hpc/kemi/ree/PhD/git/ReactivityQM/calculations/R01/reac01prodN04/conf02/R01_reac01prodN04_conf02_gfn1.xyz --opt --vfukui --chrg 1 --uhf 0 --alpb DMSO

   ID    Z sym.   atoms
    1    6 C      1, 3, 5, 8-10
    2    8 O      2, 4, 11
    3    7 N      6, 7
    4    1 H      12-20

      * Solvation model:               ALPB
        Solvent                        DMSO
        Solvent mass                       7.8130E+01 g/mol
          :  Hamiltonian                  GFN1-xTB          :
 * total energy  :   -37.6284552 Eh     change       -0.7617018E-11 Eh
 * total energy  :   -37.6404592 Eh     change       -0.1200396E-01 Eh
 * total energy  :   -37.6440049 Eh     change       -0.3545724E-02 Eh
 * total energy  :   -37.6446565 Eh     change       -0.6516452E-03 Eh
 * total energy  :   -37.6451418 Eh     change       -0.4852928E-03 Eh
 * total energy  :   -37.6453154 Eh     change       -0.1735123E-03 Eh
 * total energy  :   -37.6454852 Eh     change       -0.1698332E-03 Eh
 * total energy  :   -37.6456260 Eh     change       -0.1408282E-03 Eh
 * total energy  :   -37.6456952 Eh     change       -0.6919297E-04 Eh
 * total energy  :   -37.6457331 Eh     change       -0.3791747E-04 Eh
 * total energy  :   -37.6457436 Eh     change       -0.1047129E-04 Eh
 * total energy  :   -37.6457474 Eh     change       -0.3787886E-05 Eh
   *** GEOMETRY OPTIMIZATION CONVERGED AFTER 12 ITERATIONS ***

 final structure:
================
20
 xtb: 6.5.1 (579679a)
C            4.11805405575822        0.19422610602835       -0.34800541145933
O            2.68389778450938        0.31977052583485       -0.29863680675751
C            1.99749282337725       -0.75503577904187       -0.00301159840754
O            2.43085568998483       -1.84577237555613        0.24301666857037
C            0.51727942407439       -0.46793152580773       -0.00355855791085
N           -0.43859478005308       -1.31244018002347        0.23929811102246
N           -1.56930277902521       -0.60037702615068        0.11038464606195
C           -2.85902406312887       -1.23318428305261        0.29992887421760
C           -1.28297150260328        0.64820428051816       -0.20555233219411
C           -2.19888858691198        1.77476421379545       -0.43898870393048
O            0.02576235386232        0.75363290136886       -0.28146787836556
H            4.49013957444415       -0.12901654844495        0.62518224677863
H            4.49707207940655        1.18167593855833       -0.60004323826178
H            4.39327962405978       -0.53500113861375       -1.11180754437840
H           -2.69034916877602       -2.21192814759744        0.74186410104155
H           -3.46202295323152       -0.61005468484405        0.95686101150103
H           -3.34815153962085       -1.33160149401269       -0.66841229891082
H           -2.94480443860362        1.50047331671984       -1.18604899731108
H           -2.72665789734769        2.01779753613118        0.48562000978392
H           -1.63306470017459        2.64179736419038       -0.77479530109007

          :  Hamiltonian                  GFN1-xTB          :
         :: total energy             -37.645747384392 Eh    ::
         :: gradient norm              0.000711640212 Eh/a0 ::
         :: HOMO-LUMO gap              4.085258293992 eV    ::
         :: SCC energy               -38.000684159767 Eh    ::
         :: -> Gsolv                  -0.086345305474 Eh    ::
         :: repulsion energy           0.362972165422 Eh    ::

    * Orbital Energies and Occupations

         #    Occupation            Energy/Eh            Energy/eV
      -------------------------------------------------------------
         1        2.0000           -0.9451809             -25.7197
       ...           ...                  ...                  ...
        18        2.0000           -0.6257262             -17.0269
        19        2.0000           -0.6138656             -16.7041
        20        2.0000           -0.6010120             -16.3544
        21        2.0000           -0.5945804             -16.1794
        22        2.0000           -0.5927962             -16.1308
        23        2.0000           -0.5809313             -15.8079
        24        2.0000           -0.5747095             -15.6386
        25        2.0000           -0.5674465             -15.4410
        26        2.0000           -0.5529741             -15.0472
        27        2.0000           -0.5396986             -14.6859
        28        2.0000           -0.5291836             -14.3998
        29        2.0000           -0.5250319             -14.2868
        30        2.0000           -0.5226756             -14.2227 (HOMO)
        31                         -0.3725451             -10.1375 (LUMO)
        32                         -0.3504870              -9.5372
        33                         -0.2566530              -6.9839
        34                         -0.1874692              -5.1013
        35                         -0.1747842              -4.7561
        36                         -0.1533151              -4.1719
        37                         -0.1259025              -3.4260
        38                         -0.1155147              -3.1433
        39                         -0.1008626              -2.7446
        40                         -0.0969732              -2.6388
        41                         -0.0891690              -2.4264
       ...                                ...                  ...
        62                          0.7350072              20.0006
      -------------------------------------------------------------
                  HL-Gap            0.1501305 Eh            4.0853 eV

Wiberg/Mayer (AO) data.
largest (>0.10) Wiberg bond orders for each atom

     #   Z sym  total        # sym  WBO       # sym  WBO       # sym  WBO
 ---------------------------------------------------------------------------
     1   6 C    3.837 --    13 H    0.984    12 H    0.977    14 H    0.977
                             2 O    0.865
     2   8 O    2.245 --     3 C    1.175     1 C    0.865     4 O    0.158
     3   6 C    3.878 --     4 O    1.692     2 O    1.175     5 C    0.946
     4   8 O    1.970 --     3 C    1.692     2 O    0.158
     5   6 C    3.854 --     6 N    1.617    11 O    1.063     3 C    0.946
     6   7 N    2.993 --     5 C    1.617     7 N    1.163
     7   7 N    3.630 --     9 C    1.413     6 N    1.163     8 C    0.907
     8   6 C    3.881 --    15 H    0.977    16 H    0.972    17 H    0.965
                             7 N    0.907
     9   6 C    3.839 --     7 N    1.413    11 O    1.158    10 C    1.043
    10   6 C    3.959 --     9 C    1.043    20 H    0.971    18 H    0.948
                            19 H    0.939
    11   8 O    2.390 --     9 C    1.158     5 C    1.063
    12   1 H    1.000 --     1 C    0.977
    13   1 H    1.005 --     1 C    0.984
    14   1 H    1.000 --     1 C    0.977
    15   1 H    0.991 --     8 C    0.977
    16   1 H    0.989 --     8 C    0.972
    17   1 H    0.988 --     8 C    0.965
    18   1 H    0.985 --    10 C    0.948
    19   1 H    0.984 --    10 C    0.939
    20   1 H    0.985 --    10 C    0.971
 ---------------------------------------------------------------------------

           -------------------------------------------------
          | TOTAL ENERGY              -37.645747384392 Eh   |
          | GRADIENT NORM               0.000711640212 Eh/α |
          | HOMO-LUMO GAP               4.085258293992 eV   |
           -------------------------------------------------

 * finished run on 2023/06/20 at 14:55:34.718
