   * xtb version 6.5.1 (579679a) compiled by 'ehlert@majestix' on 2022-07-11
          program call               : /lustre/hpc/kemi/ree/PhD/git/ReactivityQM/dep/xtb-6.5.1/bin/xtb --gfn 1 /lustre/hpc/kemi/ree/PhD/git/ReactivityQM/calculations/R01/reac01prodN07/conf06/R01_reac01prodN07_conf06_gfn1.xyz --opt --vfukui --chrg 1 --uhf 0 --alpb DMSO

   ID    Z sym.   atoms
    1    6 C      1, 3, 5, 8-10
    2    8 O      2, 4, 11
    3    7 N      6, 7
    4    1 H      12-20

      * Solvation model:               ALPB
        Solvent                        DMSO
        Solvent mass                       7.8130E+01 g/mol
          :  Hamiltonian                  GFN1-xTB          :
 * total energy  :   -37.5559554 Eh     change       -0.3673506E-11 Eh
 * total energy  :   -37.5687303 Eh     change       -0.1277496E-01 Eh
 * total energy  :   -37.5735971 Eh     change       -0.4866780E-02 Eh
 * total energy  :   -37.5742612 Eh     change       -0.6641203E-03 Eh
 * total energy  :   -37.5746093 Eh     change       -0.3480936E-03 Eh
 * total energy  :   -37.5746601 Eh     change       -0.5071814E-04 Eh
 * total energy  :   -37.5746965 Eh     change       -0.3646583E-04 Eh
 * total energy  :   -37.5747183 Eh     change       -0.2179934E-04 Eh
 * total energy  :   -37.5747309 Eh     change       -0.1259225E-04 Eh
 * total energy  :   -37.5747353 Eh     change       -0.4421207E-05 Eh
   *** GEOMETRY OPTIMIZATION CONVERGED AFTER 10 ITERATIONS ***

 final structure:
================
20
 xtb: 6.5.1 (579679a)
C            4.11855063574075        0.40207779678023       -0.05535490027387
O            2.75268193322925        0.15832990442336       -0.44722284576948
C            1.82346270462641        0.36635178575524        0.44063119454219
O            1.94099793825520        0.74272736644306        1.56696293102198
C            0.45169079701716        0.04401460171486       -0.16934284140626
N            0.22451132509225       -0.38856808758242       -1.45672147932500
N           -1.01829624373553       -0.54955415438765       -1.58129940307361
C           -1.68476725104948       -0.22998758709861       -0.37141176799189
C           -2.64557626375436        0.95402662726798       -0.56366756711250
C           -2.39678365426934       -1.46423142927729        0.20599559504166
O           -0.61910426326443        0.15113957810400        0.49126954160438
H            4.33732652788453       -0.14988208408793        0.85961559577343
H            4.25667898673087        1.47069436583005        0.11487916029538
H            4.73446937225765        0.05595656801497       -0.88162692868468
H           -3.07791742048448        1.21036226972291        0.40061866258792
H           -3.42630380534294        0.65658036831151       -1.25922132541517
H           -2.09257925834986        1.80183241670094       -0.96176068328186
H           -3.17444490043289       -1.77158888930986       -0.48863444265357
H           -2.83291588691250       -1.19572019169935        1.16528072942566
H           -1.67168327323842       -2.26456122562616        0.33649177469554

          :  Hamiltonian                  GFN1-xTB          :
         :: total energy             -37.574735331088 Eh    ::
         :: gradient norm              0.000862129493 Eh/a0 ::
         :: HOMO-LUMO gap              1.771410799558 eV    ::
         :: SCC energy               -37.910580035272 Eh    ::
         :: -> Gsolv                  -0.081300689560 Eh    ::
         :: repulsion energy           0.344263226845 Eh    ::

    * Orbital Energies and Occupations

         #    Occupation            Energy/Eh            Energy/eV
      -------------------------------------------------------------
         1        2.0000           -0.9571518             -26.0454
       ...           ...                  ...                  ...
        18        2.0000           -0.6147408             -16.7279
        19        2.0000           -0.6120954             -16.6560
        20        2.0000           -0.6111341             -16.6298
        21        2.0000           -0.5875248             -15.9874
        22        2.0000           -0.5858668             -15.9422
        23        2.0000           -0.5797313             -15.7753
        24        2.0000           -0.5750075             -15.6468
        25        2.0000           -0.5683757             -15.4663
        26        2.0000           -0.5556198             -15.1192
        27        2.0000           -0.5528874             -15.0448
        28        2.0000           -0.5429625             -14.7748
        29        2.0000           -0.5361729             -14.5900
        30        2.0000           -0.5246479             -14.2764 (HOMO)
        31                         -0.4595498             -12.5050 (LUMO)
        32                         -0.3774512             -10.2710
        33                         -0.2805459              -7.6340
        34                         -0.1700305              -4.6268
        35                         -0.1641964              -4.4680
        36                         -0.1607703              -4.3748
        37                         -0.1201606              -3.2697
        38                         -0.1122414              -3.0542
        39                         -0.0987918              -2.6883
        40                         -0.0958547              -2.6083
        41                         -0.0932704              -2.5380
       ...                                ...                  ...
        62                          0.7400058              20.1366
      -------------------------------------------------------------
                  HL-Gap            0.0650981 Eh            1.7714 eV

Wiberg/Mayer (AO) data.
largest (>0.10) Wiberg bond orders for each atom

     #   Z sym  total        # sym  WBO       # sym  WBO       # sym  WBO
 ---------------------------------------------------------------------------
     1   6 C    3.820 --    14 H    0.982    12 H    0.973    13 H    0.970
                             2 O    0.854
     2   8 O    2.261 --     3 C    1.193     1 C    0.854     4 O    0.173
     3   6 C    3.881 --     4 O    1.720     2 O    1.193     5 C    0.896
     4   8 O    2.013 --     3 C    1.720     2 O    0.173
     5   6 C    3.788 --    11 O    1.394     6 N    1.199     3 C    0.896
     6   7 N    3.022 --     7 N    1.678     5 C    1.199
     7   7 N    2.995 --     6 N    1.678     8 C    1.074
     8   6 C    3.813 --     7 N    1.074     9 C    0.885    10 C    0.883
                            11 O    0.868
     9   6 C    3.942 --    17 H    0.978    16 H    0.975    15 H    0.974
                             8 C    0.885
    10   6 C    3.942 --    20 H    0.978    18 H    0.975    19 H    0.974
                             8 C    0.883
    11   8 O    2.442 --     5 C    1.394     8 C    0.868
    12   1 H    0.996 --     1 C    0.973
    13   1 H    0.995 --     1 C    0.970
    14   1 H    1.002 --     1 C    0.982
    15   1 H    0.989 --     9 C    0.974
    16   1 H    0.989 --     9 C    0.975
    17   1 H    0.989 --     9 C    0.978
    18   1 H    0.989 --    10 C    0.975
    19   1 H    0.989 --    10 C    0.974
    20   1 H    0.989 --    10 C    0.978
 ---------------------------------------------------------------------------

           -------------------------------------------------
          | TOTAL ENERGY              -37.574735331088 Eh   |
          | GRADIENT NORM               0.000862129493 Eh/α |
          | HOMO-LUMO GAP               1.771410799558 eV   |
           -------------------------------------------------

 * finished run on 2023/06/20 at 14:56:44.313
