   * xtb version 6.5.1 (579679a) compiled by 'ehlert@majestix' on 2022-07-11
          program call               : /lustre/hpc/kemi/ree/PhD/git/ReactivityQM/dep/xtb-6.5.1/bin/xtb --gfn 1 /lustre/hpc/kemi/ree/PhD/git/ReactivityQM/calculations/R02oxygendeprot/reac02prodN01/conf01/R02oxygendeprot_reac02prodN01_conf01_gfn1.xyz --opt --vfukui --chrg 1 --uhf 0 --alpb DMSO

   ID    Z sym.   atoms
    1    6 C      1, 4
    2    8 O      2, 5
    3    5 B      3
    4    1 H      6-13

      * Solvation model:               ALPB
        Solvent                        DMSO
        Solvent mass                       7.8130E+01 g/mol
          :  Hamiltonian                  GFN1-xTB          :
 * total energy  :   -19.0506027 Eh     change       -0.6956213E-10 Eh
 * total energy  :   -19.0616827 Eh     change       -0.1108000E-01 Eh
 * total energy  :   -19.0643395 Eh     change       -0.2656752E-02 Eh
 * total energy  :   -19.0648822 Eh     change       -0.5427604E-03 Eh
 * total energy  :   -19.0652379 Eh     change       -0.3556947E-03 Eh
 * total energy  :   -19.0652690 Eh     change       -0.3110801E-04 Eh
 * total energy  :   -19.0652843 Eh     change       -0.1528866E-04 Eh
 * total energy  :   -19.0652920 Eh     change       -0.7641468E-05 Eh
 * total energy  :   -19.0652961 Eh     change       -0.4103245E-05 Eh
   *** GEOMETRY OPTIMIZATION CONVERGED AFTER 9 ITERATIONS ***

 final structure:
================
13
 xtb: 6.5.1 (579679a)
C            1.99989843518356       -0.23416629335984        0.36826179113702
O            0.59412590761778       -0.58927300159722        0.21026502596533
B           -0.50167791423363        0.35269830747367       -0.07272128588366
C           -1.92012646188190       -0.25906272151935       -0.19294089604575
O           -0.05697925520671        1.59678644901655       -0.20001829260469
H            2.09567348611593        0.80247227295173        0.05406237988558
H            2.27193319578269       -0.34951682725622        1.41667868821783
H            2.58963388702599       -0.89036725834477       -0.26896870780812
H            0.40680564042537       -1.52506037840084        0.36111544937727
H           -2.13774258382585       -0.48058068628587       -1.23883282537012
H           -2.01551991037736       -1.18788112764353        0.36424873833803
H           -2.68157271178581        0.43692223314275        0.15371843736290
H           -0.64445071484007        2.32703003182296       -0.39390650257160

          :  Hamiltonian                  GFN1-xTB          :
         :: total energy             -19.065296067598 Eh    ::
         :: gradient norm              0.000413198648 Eh/a0 ::
         :: HOMO-LUMO gap              7.489886492935 eV    ::
         :: SCC energy               -19.256628814142 Eh    ::
         :: -> Gsolv                  -0.095045284094 Eh    ::
         :: repulsion energy           0.194812696222 Eh    ::

    * Orbital Energies and Occupations

         #    Occupation            Energy/Eh            Energy/eV
      -------------------------------------------------------------
         1        2.0000           -0.9096959             -24.7541
       ...           ...                  ...                  ...
         3        2.0000           -0.7655904             -20.8328
         4        2.0000           -0.7558149             -20.5668
         5        2.0000           -0.6871483             -18.6983
         6        2.0000           -0.6732113             -18.3190
         7        2.0000           -0.6638991             -18.0656
         8        2.0000           -0.6502897             -17.6953
         9        2.0000           -0.6223235             -16.9343
        10        2.0000           -0.6042226             -16.4417
        11        2.0000           -0.5661380             -15.4054
        12        2.0000           -0.5532751             -15.0554
        13        2.0000           -0.5443528             -14.8126
        14        2.0000           -0.5434481             -14.7880
        15        2.0000           -0.5241146             -14.2619 (HOMO)
        16                         -0.2488663              -6.7720 (LUMO)
        17                         -0.1894320              -5.1547
        18                         -0.1756991              -4.7810
        19                         -0.1499576              -4.0806
        20                         -0.1263268              -3.4375
        21                         -0.1081632              -2.9433
        22                         -0.0954509              -2.5974
        23                         -0.0790625              -2.1514
        24                         -0.0717133              -1.9514
        25                         -0.0516814              -1.4063
        26                          0.0902480               2.4558
       ...                                ...                  ...
        36                          0.6424484              17.4819
      -------------------------------------------------------------
                  HL-Gap            0.2752483 Eh            7.4899 eV

Wiberg/Mayer (AO) data.
largest (>0.10) Wiberg bond orders for each atom

     #   Z sym  total        # sym  WBO       # sym  WBO       # sym  WBO
 ---------------------------------------------------------------------------
     1   6 C    3.783 --     8 H    0.982     7 H    0.982     6 H    0.978
                             2 O    0.809
     2   8 O    2.394 --     1 C    0.809     3 B    0.768     9 H    0.759
     3   5 B    3.138 --     5 O    1.256     4 C    1.034     2 O    0.768
     4   6 C    3.986 --     3 B    1.034    11 H    0.973    12 H    0.967
                            10 H    0.948
     5   8 O    2.144 --     3 B    1.256    13 H    0.793
     6   1 H    1.000 --     1 C    0.978
     7   1 H    0.995 --     1 C    0.982
     8   1 H    0.995 --     1 C    0.982
     9   1 H    0.790 --     2 O    0.759
    10   1 H    0.990 --     4 C    0.948
    11   1 H    0.993 --     4 C    0.973
    12   1 H    0.992 --     4 C    0.967
    13   1 H    0.812 --     5 O    0.793
 ---------------------------------------------------------------------------

           -------------------------------------------------
          | TOTAL ENERGY              -19.065296067598 Eh   |
          | GRADIENT NORM               0.000413198648 Eh/α |
          | HOMO-LUMO GAP               7.489886492935 eV   |
           -------------------------------------------------

 * finished run on 2023/06/21 at 17:40:21.254
