   * xtb version 6.5.1 (579679a) compiled by 'ehlert@majestix' on 2022-07-11
          program call               : /lustre/hpc/kemi/ree/PhD/git/ReactivityQM/dep/xtb-6.5.1/bin/xtb --gfn 1 /lustre/hpc/kemi/ree/PhD/git/ReactivityQM/calculations/R02methylcation/reac01prodN02/conf07/R02methylcation_reac01prodN02_conf07_gfn1.xyz --opt --vfukui --chrg 0 --uhf 0 --alpb DMSO

   ID    Z sym.   atoms
    1    6 C      1, 3, 5, 7-10, 12, 14, 15, 18, 19, 22, 24
    2    8 O      2, 4, 13, 20, 23, 25
    3    7 N      6, 11, 16, 17, 21
    4    1 H      26-42

      * Solvation model:               ALPB
        Solvent                        DMSO
        Solvent mass                       7.8130E+01 g/mol
          :  Hamiltonian                  GFN1-xTB          :
 * total energy  :   -82.9416463 Eh     change       -0.6586021E-09 Eh
 * total energy  :   -82.9593673 Eh     change       -0.1772105E-01 Eh
 * total energy  :   -82.9670323 Eh     change       -0.7665044E-02 Eh
 * total energy  :   -82.9685071 Eh     change       -0.1474704E-02 Eh
 * total energy  :   -82.9694883 Eh     change       -0.9812702E-03 Eh
 * total energy  :   -82.9698764 Eh     change       -0.3880915E-03 Eh
 * total energy  :   -82.9702173 Eh     change       -0.3408863E-03 Eh
 * total energy  :   -82.9704446 Eh     change       -0.2272970E-03 Eh
 * total energy  :   -82.9706042 Eh     change       -0.1595823E-03 Eh
 * total energy  :   -82.9707139 Eh     change       -0.1096804E-03 Eh
 * total energy  :   -82.9714705 Eh     change       -0.1719107E-04 Eh
 * total energy  :   -82.9715032 Eh     change       -0.3268583E-04 Eh
 * total energy  :   -82.9715126 Eh     change       -0.9403106E-05 Eh
 * total energy  :   -82.9715193 Eh     change       -0.6762937E-05 Eh
 * total energy  :   -82.9715290 Eh     change       -0.9668371E-05 Eh
 * total energy  :   -82.9715275 Eh     change        0.1472396E-05 Eh
 * total energy  :   -82.9715334 Eh     change       -0.5919619E-05 Eh
 * total energy  :   -82.9715391 Eh     change       -0.5683547E-05 Eh
 * total energy  :   -82.9715432 Eh     change       -0.4123523E-05 Eh
   *** GEOMETRY OPTIMIZATION CONVERGED AFTER 35 ITERATIONS ***

 final structure:
================
42
 xtb: 6.5.1 (579679a)
C            5.88092161230063       -0.49331619443892        2.17138060036354
O            4.72194963247447       -0.54077851546590        1.34737305231771
C            4.66533383051624       -1.58132964255514        0.46578449910222
O            5.56443859259419       -2.40283412761521        0.41750561305312
C            3.45790625512065       -1.55504176585111       -0.34950332197598
N            2.58899083078306       -0.51634322360388       -0.08521623573903
C            1.50188622143979       -0.39318200813943       -0.74806253761663
C            0.55537799512146        0.75452277477557       -0.47133222910941
C            0.53398040505593        1.71426451051247       -1.66681813208197
C            0.95782954489597        1.46404369969361        0.82191889697460
N           -0.79186301482087        0.15429433678444       -0.29879932533825
C           -1.91661632486383        0.78961885411318       -0.08888096332788
O           -1.91483563542118        2.08610882927913       -0.00752713598467
C           -3.10328368246135        2.86451808941536        0.20670716077302
C           -3.08457892012001       -0.04959526770787        0.04072683739715
N           -3.05210694475399       -1.35437698301554       -0.01514199707153
N           -4.31594236200479       -1.78480383115717        0.14796242209304
C           -5.06384723614183       -0.72530764618040        0.29471898268430
C           -6.52446393965917       -0.66945064519304        0.49337101275607
O           -4.33816021430130        0.39976155002979        0.23678273868022
N            1.14518497891298       -1.27260142846816       -1.75346969436810
C            1.91253383173913       -2.35568076621302       -2.12111157411024
O            1.52998437357291       -3.08910447884920       -3.02422215664452
C            3.20203246582342       -2.53678833906983       -1.34687425737661
O            3.93163257294990       -3.49916839932971       -1.62775215152868
H            5.96316982749589       -1.40203617083081        2.77637183021576
H            5.77171909660216        0.37389508450692        2.82090581453331
H            6.78447203414633       -0.38872926036446        1.56188894846225
H           -0.07966085913605        2.58599831859684       -1.45678011844113
H            1.55241130682863        2.04257505468385       -1.87014321052554
H            0.14002743810004        1.20849105409743       -2.54608297313473
H            0.89007306677666        0.77323351611560        1.66094193649471
H            0.31629172998303        2.32085247811854        1.00808764437707
H            1.98957675328370        1.80050798425796        0.72676734879007
H           -0.86231265700205       -0.85778104201470       -0.34199025011996
H           -3.80639333920361        2.70507409711987       -0.61080654268880
H           -2.76946986554131        3.90023402309922        0.22636891680717
H           -3.56281611415360        2.59273920821789        1.15702101700023
H           -6.76174102886039        0.00755997054308        1.31336115027066
H           -7.00217527001293       -0.28281846594320       -0.40827807911735
H           -6.90704917244516       -1.66533088326087        0.70511733747268
H            0.29959018439549       -1.12189434868476       -2.27410787432120

          :  Hamiltonian                  GFN1-xTB          :
         :: total energy             -82.971543247999 Eh    ::
         :: gradient norm              0.000697386575 Eh/a0 ::
         :: HOMO-LUMO gap              0.229693926642 eV    ::
         :: SCC energy               -83.748630029699 Eh    ::
         :: -> Gsolv                  -0.114977627836 Eh    ::
         :: repulsion energy           0.802522496705 Eh    ::

    * Orbital Energies and Occupations

         #    Occupation            Energy/Eh            Energy/eV
      -------------------------------------------------------------
         1        2.0000           -0.8983439             -24.4452
       ...           ...                  ...                  ...
        55        2.0000           -0.5124498             -13.9445
        56        2.0000           -0.5053185             -13.7504
        57        2.0000           -0.5004650             -13.6183
        58        2.0000           -0.4922633             -13.3952
        59        2.0000           -0.4843499             -13.1798
        60        2.0000           -0.4802920             -13.0694
        61        2.0000           -0.4716319             -12.8338
        62        2.0000           -0.4686251             -12.7519
        63        2.0000           -0.4539801             -12.3534
        64        2.0000           -0.4462647             -12.1435
        65        2.0000           -0.4321037             -11.7581
        66        2.0000           -0.3893198             -10.5939
        67        1.9767           -0.3782531             -10.2928 (HOMO)
        68        0.0233           -0.3698120             -10.0631 (LUMO)
        69                         -0.2850249              -7.7559
        70                         -0.2807507              -7.6396
        71                         -0.2564608              -6.9787
        72                         -0.2499685              -6.8020
        73                         -0.2066682              -5.6237
        74                         -0.1565424              -4.2597
        75                         -0.1529631              -4.1623
        76                         -0.1379222              -3.7531
        77                         -0.1355204              -3.6877
        78                         -0.1259459              -3.4272
       ...                                ...                  ...
       134                          0.7629137              20.7599
      -------------------------------------------------------------
                  HL-Gap            0.0084411 Eh            0.2297 eV

Wiberg/Mayer (AO) data.
largest (>0.10) Wiberg bond orders for each atom

     #   Z sym  total        # sym  WBO       # sym  WBO       # sym  WBO
 ---------------------------------------------------------------------------
     1   6 C    3.895 --    27 H    0.987    28 H    0.980    26 H    0.980
                             2 O    0.922
     2   8 O    2.142 --     3 C    1.035     1 C    0.922     4 O    0.112
     3   6 C    3.850 --     4 O    1.604     5 C    1.104     2 O    1.035
     4   8 O    1.875 --     3 C    1.604     2 O    0.112
     5   6 C    3.900 --    24 C    1.256     6 N    1.166     3 C    1.104
                            25 O    0.125
     6   7 N    3.034 --     7 C    1.629     5 C    1.166
     7   6 C    3.927 --     6 N    1.629    21 N    1.087     8 C    0.977
     8   6 C    3.893 --    10 C    0.989     9 C    0.980     7 C    0.977
                            11 N    0.874
     9   6 C    3.984 --    31 H    0.983    30 H    0.982    29 H    0.981
                             8 C    0.980
    10   6 C    3.985 --     8 C    0.989    33 H    0.984    32 H    0.984
                            34 H    0.979
    11   7 N    3.468 --    12 C    1.451    35 H    0.875     8 C    0.874
                            13 O    0.110
    12   6 C    3.884 --    11 N    1.451    13 O    1.199    15 C    1.086
    13   8 O    2.279 --    12 C    1.199    14 C    0.858    11 N    0.110
    14   6 C    3.826 --    37 H    0.981    38 H    0.975    36 H    0.975
                            13 O    0.858
    15   6 C    3.886 --    16 N    1.542    12 C    1.086    20 O    1.055
    16   7 N    3.023 --    15 C    1.542    17 N    1.253
    17   7 N    2.989 --    18 C    1.553    16 N    1.253
    18   6 C    3.848 --    17 N    1.553    20 O    1.084    19 C    1.039
    19   6 C    3.979 --    18 C    1.039    41 H    0.979    39 H    0.962
                            40 H    0.950
    20   8 O    2.337 --    18 C    1.084    15 C    1.055
    21   7 N    3.412 --    22 C    1.143     7 C    1.087    42 H    0.896
                            23 O    0.133
    22   6 C    3.871 --    23 O    1.598    21 N    1.143    24 C    0.961
    23   8 O    1.873 --    22 C    1.598    21 N    0.133
    24   6 C    3.938 --    25 O    1.542     5 C    1.256    22 C    0.961
    25   8 O    1.839 --    24 C    1.542     5 C    0.125
    26   1 H    1.013 --     1 C    0.980
    27   1 H    1.015 --     1 C    0.987
    28   1 H    1.013 --     1 C    0.980
    29   1 H    1.003 --     9 C    0.981
    30   1 H    1.000 --     9 C    0.982
    31   1 H    0.999 --     9 C    0.983
    32   1 H    1.005 --    10 C    0.984
    33   1 H    1.004 --    10 C    0.984
    34   1 H    1.011 --    10 C    0.979
    35   1 H    0.940 --    11 N    0.875
    36   1 H    1.002 --    14 C    0.975
    37   1 H    1.003 --    14 C    0.981
    38   1 H    1.002 --    14 C    0.975
    39   1 H    0.992 --    19 C    0.962
    40   1 H    0.991 --    19 C    0.950
    41   1 H    0.995 --    19 C    0.979
    42   1 H    0.941 --    21 N    0.896
 ---------------------------------------------------------------------------

           -------------------------------------------------
          | TOTAL ENERGY              -82.971543247999 Eh   |
          | GRADIENT NORM               0.000697386575 Eh/α |
          | HOMO-LUMO GAP               0.229693926642 eV   |
           -------------------------------------------------

 * finished run on 2023/06/21 at 17:31:23.288
