   * xtb version 6.5.1 (579679a) compiled by 'ehlert@majestix' on 2022-07-11
          program call               : /lustre/hpc/kemi/ree/PhD/git/ReactivityQM/dep/xtb-6.5.1/bin/xtb --gfn 1 /lustre/hpc/kemi/ree/PhD/git/ReactivityQM/calculations/R02/reac01prodN06/conf02/R02_reac01prodN06_conf02_gfn1.xyz --opt --vfukui --chrg 1 --uhf 0 --alpb DMSO

   ID    Z sym.   atoms
    1    6 C      1, 3, 5, 7-10, 12, 14, 16, 17, 20, 22, 24
    2    8 O      2, 4, 13, 15, 23, 25
    3    7 N      6, 11, 18, 19, 21
    4    1 H      26-43

      * Solvation model:               ALPB
        Solvent                        DMSO
        Solvent mass                       7.8130E+01 g/mol
          :  Hamiltonian                  GFN1-xTB          :
 * total energy  :   -83.1565662 Eh     change       -0.5037748E-10 Eh
 * total energy  :   -83.1748800 Eh     change       -0.1831379E-01 Eh
 * total energy  :   -83.1819538 Eh     change       -0.7073809E-02 Eh
 * total energy  :   -83.1832381 Eh     change       -0.1284274E-02 Eh
 * total energy  :   -83.1842018 Eh     change       -0.9637742E-03 Eh
 * total energy  :   -83.1846674 Eh     change       -0.4655131E-03 Eh
 * total energy  :   -83.1851409 Eh     change       -0.4735795E-03 Eh
 * total energy  :   -83.1855767 Eh     change       -0.4358105E-03 Eh
 * total energy  :   -83.1858478 Eh     change       -0.2711049E-03 Eh
 * total energy  :   -83.1860437 Eh     change       -0.1958852E-03 Eh
 * total energy  :   -83.1876418 Eh     change       -0.2892593E-04 Eh
 * total energy  :   -83.1876648 Eh     change       -0.2305267E-04 Eh
 * total energy  :   -83.1876821 Eh     change       -0.1729469E-04 Eh
 * total energy  :   -83.1877166 Eh     change       -0.3447778E-04 Eh
 * total energy  :   -83.1877265 Eh     change       -0.9939726E-05 Eh
 * total energy  :   -83.1877344 Eh     change       -0.7866290E-05 Eh
 * total energy  :   -83.1877419 Eh     change       -0.7546863E-05 Eh
 * total energy  :   -83.1877484 Eh     change       -0.6481851E-05 Eh
 * total energy  :   -83.1877533 Eh     change       -0.4884648E-05 Eh
   *** GEOMETRY OPTIMIZATION CONVERGED AFTER 33 ITERATIONS ***

 final structure:
================
43
 xtb: 6.5.1 (579679a)
C            3.55852436999266        4.21362267191566       -0.33028056452696
O            3.63923028547555        2.84688157575092        0.09004556592846
C            2.53018694368942        2.12672874443814       -0.02601169354187
O            1.48712735398136        2.56708232304101       -0.45532333816693
C            2.68737009598961        0.70990036951176        0.41799720402016
N            1.53449077800063       -0.02558566905921        0.27315203691810
C            1.50768904172147       -1.27300931177699        0.59106699999773
C            0.23264525974213       -2.06114731659756        0.37249366956532
C           -0.19497835008755       -2.80894557511821        1.63959256875872
C            0.42289590527265       -3.01814647316102       -0.81283961005190
N           -0.78437309082650       -1.05940196765125        0.03264642185246
C           -2.04239536918060       -1.35119207822125       -0.27465783706341
O           -2.56786980220712       -2.44711708170081       -0.32256607437200
C           -2.85144916314807       -0.11801177984138       -0.58153857461240
O           -2.38015180751770        1.11475470271119       -0.48064449438506
C           -3.39007451459478        1.93090512017416       -0.82904668915195
C           -3.21970544557004        3.39328313181465       -0.82769362606509
N           -4.45359789790820        1.24710823002074       -1.13949421945994
N           -4.09969628113812       -0.04088044895871       -0.98074286622561
C           -5.07335663618254       -1.08209975438659       -1.23324684562349
N            2.60069532078807       -1.92257428322286        1.08212800776802
C            3.80808827474303       -1.29205334131638        1.28632695456157
O            4.78374202452072       -1.86866802335459        1.73692463608417
C            3.81952024483350        0.12278063292147        0.91091286383026
O            4.98322249377876        0.75267775738529        1.08520604347887
H            3.29953203272817        4.26270961833997       -1.39043681972316
H            2.79773602592733        4.73867291638163        0.25151506938659
H            4.53976510037241        4.65123830284597       -0.15744348974476
H           -1.14176228136852       -3.31625915151394        1.46414138021796
H           -0.31042798486191       -2.11023542348213        2.46640341500421
H            0.55435998476224       -3.55340680916541        1.89957614095021
H            0.64863194684485       -2.44990807186807       -1.71384543092954
H           -0.48465441232866       -3.59745984976331       -0.97104247188587
H            1.24610620781567       -3.69787185539777       -0.60257640324899
H           -0.45155886900298       -0.09792702709010        0.00308917644788
H           -2.45455144392062        3.67459532968507       -1.55303302678048
H           -2.88433029213556        3.72304014820930        0.15610405635468
H           -4.16176294130472        3.87387181565739       -1.08100288874156
H           -5.67517898276771       -1.21749267477959       -0.33473196487992
H           -5.70421161408512       -0.76020215333743       -2.05854239258816
H           -4.54885285262767       -2.00421263794271       -1.47181441275500
H            2.55696235936104       -2.89995753607060        1.32890320291441
H            5.63642098243015        0.12391390398199        1.44543032048418

          :  Hamiltonian                  GFN1-xTB          :
         :: total energy             -83.187753315002 Eh    ::
         :: gradient norm              0.000514492121 Eh/a0 ::
         :: HOMO-LUMO gap              1.840453233671 eV    ::
         :: SCC energy               -83.997717403155 Eh    ::
         :: -> Gsolv                  -0.106182366603 Eh    ::
         :: repulsion energy           0.835821817446 Eh    ::

    * Orbital Energies and Occupations

         #    Occupation            Energy/Eh            Energy/eV
      -------------------------------------------------------------
         1        2.0000           -0.9367316             -25.4898
       ...           ...                  ...                  ...
        55        2.0000           -0.5307124             -14.4414
        56        2.0000           -0.5190857             -14.1250
        57        2.0000           -0.5189359             -14.1210
        58        2.0000           -0.5179145             -14.0932
        59        2.0000           -0.5174962             -14.0818
        60        2.0000           -0.5017496             -13.6533
        61        2.0000           -0.4997758             -13.5996
        62        2.0000           -0.4981654             -13.5558
        63        2.0000           -0.4930620             -13.4169
        64        2.0000           -0.4831877             -13.1482
        65        2.0000           -0.4716664             -12.8347
        66        2.0000           -0.4621741             -12.5764
        67        2.0000           -0.4415255             -12.0145 (HOMO)
        68                         -0.3738901             -10.1741 (LUMO)
        69                         -0.3324629              -9.0468
        70                         -0.3229570              -8.7881
        71                         -0.2962244              -8.0607
        72                         -0.2537914              -6.9060
        73                         -0.2480150              -6.7488
        74                         -0.1705905              -4.6420
        75                         -0.1674515              -4.5566
        76                         -0.1671193              -4.5475
        77                         -0.1495869              -4.0705
        78                         -0.1401789              -3.8145
       ...                                ...                  ...
       136                          0.7253769              19.7385
      -------------------------------------------------------------
                  HL-Gap            0.0676354 Eh            1.8405 eV

Wiberg/Mayer (AO) data.
largest (>0.10) Wiberg bond orders for each atom

     #   Z sym  total        # sym  WBO       # sym  WBO       # sym  WBO
 ---------------------------------------------------------------------------
     1   6 C    3.868 --    28 H    0.986    27 H    0.979    26 H    0.979
                             2 O    0.893
     2   8 O    2.210 --     3 C    1.125     1 C    0.893     4 O    0.136
     3   6 C    3.854 --     4 O    1.653     2 O    1.125     5 C    0.996
     4   8 O    1.917 --     3 C    1.653     2 O    0.136
     5   6 C    3.960 --    24 C    1.508     6 N    1.166     3 C    0.996
     6   7 N    3.059 --     7 C    1.593     5 C    1.166
     7   6 C    3.934 --     6 N    1.593    21 N    1.172     8 C    0.983
     8   6 C    3.922 --     7 C    0.983     9 C    0.982    10 C    0.973
                            11 N    0.917
     9   6 C    3.984 --    30 H    0.984     8 C    0.982    31 H    0.981
                            29 H    0.978
    10   6 C    3.983 --    32 H    0.984    34 H    0.983    33 H    0.978
                             8 C    0.973
    11   7 N    3.414 --    12 C    1.328     8 C    0.917    35 H    0.859
                            13 O    0.204
    12   6 C    3.930 --    13 O    1.577    11 N    1.328    14 C    0.951
    13   8 O    1.938 --    12 C    1.577    11 N    0.204
    14   6 C    3.839 --    19 N    1.456    15 O    1.128    12 C    0.951
    15   8 O    2.373 --    14 C    1.128    16 C    1.069
    16   6 C    3.840 --    18 N    1.575    15 O    1.069    17 C    1.043
    17   6 C    3.970 --    16 C    1.043    38 H    0.977    37 H    0.951
                            36 H    0.947
    18   7 N    2.964 --    16 C    1.575    19 N    1.156
    19   7 N    3.660 --    14 C    1.456    18 N    1.156    20 C    0.909
    20   6 C    3.879 --    40 H    0.974    41 H    0.971    39 H    0.959
                            19 N    0.909
    21   7 N    3.466 --     7 C    1.172    22 C    1.130    42 H    0.879
                            23 O    0.133
    22   6 C    3.908 --    23 O    1.590    21 N    1.130    24 C    1.057
    23   8 O    1.913 --    22 C    1.590    21 N    0.133
    24   6 C    3.921 --     5 C    1.508    25 O    1.116    22 C    1.057
    25   8 O    2.093 --    24 C    1.116    43 H    0.803
    26   1 H    1.006 --     1 C    0.979
    27   1 H    1.007 --     1 C    0.979
    28   1 H    1.010 --     1 C    0.986
    29   1 H    1.003 --     9 C    0.978
    30   1 H    0.999 --     9 C    0.984
    31   1 H    0.997 --     9 C    0.981
    32   1 H    0.999 --    10 C    0.984
    33   1 H    1.003 --    10 C    0.978
    34   1 H    0.997 --    10 C    0.983
    35   1 H    0.948 --    11 N    0.859
    36   1 H    0.989 --    17 C    0.947
    37   1 H    0.989 --    17 C    0.951
    38   1 H    0.991 --    17 C    0.977
    39   1 H    0.990 --    20 C    0.959
    40   1 H    0.993 --    20 C    0.974
    41   1 H    1.003 --    20 C    0.971
    42   1 H    0.923 --    21 N    0.879
    43   1 H    0.842 --    25 O    0.803
 ---------------------------------------------------------------------------

           -------------------------------------------------
          | TOTAL ENERGY              -83.187753315002 Eh   |
          | GRADIENT NORM               0.000514492121 Eh/α |
          | HOMO-LUMO GAP               1.840453233671 eV   |
           -------------------------------------------------

 * finished run on 2023/06/20 at 15:25:11.873
