   * xtb version 6.5.1 (579679a) compiled by 'ehlert@majestix' on 2022-07-11
          program call               : /lustre/hpc/kemi/ree/PhD/git/ReactivityQM/dep/xtb-6.5.1/bin/xtb --gfn 1 /lustre/hpc/kemi/ree/PhD/git/ReactivityQM/calculations/R02/reac01prodN13/conf08/R02_reac01prodN13_conf08_gfn1.xyz --opt --vfukui --chrg 1 --uhf 0 --alpb DMSO

   ID    Z sym.   atoms
    1    6 C      1, 3, 5, 7-10, 12, 14, 17-19, 22, 24
    2    8 O      2, 4, 13, 20, 23, 25
    3    7 N      6, 11, 15, 16, 21
    4    1 H      26-43

      * Solvation model:               ALPB
        Solvent                        DMSO
        Solvent mass                       7.8130E+01 g/mol
          :  Hamiltonian                  GFN1-xTB          :
 * total energy  :   -83.0940540 Eh     change       -0.1662670E-10 Eh
 * total energy  :   -83.1086398 Eh     change       -0.1458581E-01 Eh
 * total energy  :   -83.1141224 Eh     change       -0.5482614E-02 Eh
 * total energy  :   -83.1150272 Eh     change       -0.9047500E-03 Eh
 * total energy  :   -83.1156665 Eh     change       -0.6393566E-03 Eh
 * total energy  :   -83.1159107 Eh     change       -0.2441352E-03 Eh
 * total energy  :   -83.1161099 Eh     change       -0.1991963E-03 Eh
 * total energy  :   -83.1162216 Eh     change       -0.1117021E-03 Eh
 * total energy  :   -83.1162787 Eh     change       -0.5716947E-04 Eh
 * total energy  :   -83.1163159 Eh     change       -0.3716438E-04 Eh
 * total energy  :   -83.1164065 Eh     change       -0.2649450E-04 Eh
 * total energy  :   -83.1164422 Eh     change       -0.3566597E-04 Eh
 * total energy  :   -83.1164708 Eh     change       -0.2861298E-04 Eh
 * total energy  :   -83.1164991 Eh     change       -0.2830410E-04 Eh
 * total energy  :   -83.1165144 Eh     change       -0.1533760E-04 Eh
 * total energy  :   -83.1165231 Eh     change       -0.8627497E-05 Eh
 * total energy  :   -83.1165288 Eh     change       -0.5773990E-05 Eh
 * total energy  :   -83.1165349 Eh     change       -0.6050949E-05 Eh
 * total energy  :   -83.1165383 Eh     change       -0.3393715E-05 Eh
   *** GEOMETRY OPTIMIZATION CONVERGED AFTER 21 ITERATIONS ***

 final structure:
================
43
 xtb: 6.5.1 (579679a)
C           -6.10939088200189       -2.07621972762476       -0.75293022718793
O           -4.93441722398277       -1.28736991560779       -0.52976417037091
C           -4.92960141393427       -0.06657633313620       -1.05871843783704
O           -5.84570677347756        0.38820812823687       -1.69979704047579
C           -3.65699026577565        0.66361465929718       -0.76122115684204
N           -2.72449260648963       -0.02042568316070       -0.02866982534659
C           -1.59604800011608        0.53203858572792        0.26354148895658
C           -0.58835795822538       -0.21861140719486        1.10314553309460
C           -0.57193236880215        0.39134951318765        2.51353955503983
C           -0.93137488604928       -1.71033486335090        1.14186656420013
N            0.73022104849294       -0.03822509287641        0.47257039450258
C            1.86354166912729       -0.52278307765556        1.00721208299556
O            1.99333350899635       -1.12254582981462        2.04754756476554
C            3.04035722171412       -0.22513710979004        0.10832497413480
N            2.96690323540273        0.46688485763509       -1.07494801646777
N            4.12934380166795        0.51513844687270       -1.56455957085394
C            5.04979019888328       -0.15999392096884       -0.70958617133181
C            5.67270493487847       -1.36642452200504       -1.42485330532027
C            6.10755425429658        0.81186515596703       -0.16975080408909
O            4.22591694014288       -0.61120315395464        0.36223772114558
N           -1.28380716649882        1.80536396903069       -0.11553826362928
C           -2.13722769282443        2.59530646760147       -0.85627244387441
O           -1.85550497858869        3.72963264463601       -1.19817901783215
C           -3.40661085654119        1.94488688735844       -1.18916208579617
O           -4.25905827160464        2.66805089054500       -1.90638088381087
H           -6.28367642644300       -2.19304155423169       -1.82515907060041
H           -5.92456681058107       -3.04342058629140       -0.29068434856793
H           -6.97561290844258       -1.59376799005403       -0.29402408738111
H           -1.58023974971311        0.36780316484490        2.92362586158092
H            0.09007720294367       -0.17784026867383        3.16242243526836
H           -0.22803166079976        1.42211724093439        2.46704580818176
H           -1.93379102020906       -1.83176294967206        1.54927775163591
H           -0.21903819746260       -2.24180815408483        1.76906827268585
H           -0.90458467834757       -2.12196693453131        0.13461582172803
H            0.77638602735966        0.40354570233714       -0.43188972779562
H            6.25830774225041       -1.00952449731801       -2.26843512371035
H            4.87957048868776       -2.02398702372246       -1.77383241147753
H            6.31159912438741       -1.89718055918289       -0.72287821878265
H            5.60994879685580        1.63426791702557        0.33938751139757
H            6.74827432641800        0.27776661623289        0.52800504029741
H            6.69400520481999        1.18979813238119       -1.00337898119865
H           -0.40008553059211        2.21350375604915        0.14235352683671
H           -3.86769139981419        3.53900941908059       -2.10185351782103

          :  Hamiltonian                  GFN1-xTB          :
         :: total energy             -83.116538280417 Eh    ::
         :: gradient norm              0.000813495950 Eh/a0 ::
         :: HOMO-LUMO gap              0.153419775265 eV    ::
         :: SCC energy               -83.906548037105 Eh    ::
         :: -> Gsolv                  -0.121829768701 Eh    ::
         :: repulsion energy           0.815788203473 Eh    ::

    * Orbital Energies and Occupations

         #    Occupation            Energy/Eh            Energy/eV
      -------------------------------------------------------------
         1        2.0000           -0.9365829             -25.4857
       ...           ...                  ...                  ...
        55        2.0000           -0.5341568             -14.5351
        56        2.0000           -0.5298113             -14.4169
        57        2.0000           -0.5225789             -14.2201
        58        2.0000           -0.5211956             -14.1825
        59        2.0000           -0.5163702             -14.0511
        60        2.0000           -0.5094612             -13.8631
        61        2.0000           -0.5028830             -13.6841
        62        2.0000           -0.5024297             -13.6718
        63        2.0000           -0.4990094             -13.5787
        64        2.0000           -0.4936610             -13.4332
        65        2.0000           -0.4798837             -13.0583
        66        2.0000           -0.4662089             -12.6862
        67        1.9021           -0.4495356             -12.2325 (HOMO)
        68        0.0979           -0.4438975             -12.0791 (LUMO)
        69                         -0.3628202              -9.8728
        70                         -0.3405898              -9.2679
        71                         -0.3055681              -8.3149
        72                         -0.2608027              -7.0968
        73                         -0.2544808              -6.9248
        74                         -0.1763419              -4.7985
        75                         -0.1626102              -4.4249
        76                         -0.1569429              -4.2706
        77                         -0.1503845              -4.0922
        78                         -0.1427132              -3.8834
       ...                                ...                  ...
       136                          0.7340333              19.9741
      -------------------------------------------------------------
                  HL-Gap            0.0056381 Eh            0.1534 eV

Wiberg/Mayer (AO) data.
largest (>0.10) Wiberg bond orders for each atom

     #   Z sym  total        # sym  WBO       # sym  WBO       # sym  WBO
 ---------------------------------------------------------------------------
     1   6 C    3.866 --    27 H    0.986    26 H    0.979    28 H    0.979
                             2 O    0.892
     2   8 O    2.205 --     3 C    1.121     1 C    0.892     4 O    0.139
     3   6 C    3.855 --     4 O    1.668     2 O    1.121     5 C    0.990
     4   8 O    1.931 --     3 C    1.668     2 O    0.139
     5   6 C    3.929 --    24 C    1.469     6 N    1.197     3 C    0.990
     6   7 N    3.006 --     7 C    1.572     5 C    1.197
     7   6 C    3.909 --     6 N    1.572    21 N    1.174     8 C    0.984
     8   6 C    3.909 --     7 C    0.984    10 C    0.982     9 C    0.966
                            11 N    0.907
     9   6 C    3.974 --    31 H    0.983    29 H    0.982    30 H    0.977
                             8 C    0.966
    10   6 C    3.978 --    34 H    0.984     8 C    0.982    33 H    0.981
                            32 H    0.980
    11   7 N    3.392 --    12 C    1.273     8 C    0.907    35 H    0.884
                            13 O    0.212
    12   6 C    3.924 --    13 O    1.628    11 N    1.273    14 C    0.942
    13   8 O    1.963 --    12 C    1.628    11 N    0.212
    14   6 C    3.747 --    20 O    1.344    15 N    1.205    12 C    0.942
    15   7 N    3.028 --    16 N    1.662    14 C    1.205
    16   7 N    2.923 --    15 N    1.662    17 C    1.054
    17   6 C    3.817 --    16 N    1.054    18 C    0.903    19 C    0.902
                            20 O    0.868
    18   6 C    3.938 --    37 H    0.979    36 H    0.977    38 H    0.976
                            17 C    0.903
    19   6 C    3.938 --    39 H    0.979    41 H    0.977    40 H    0.976
                            17 C    0.902
    20   8 O    2.383 --    14 C    1.344    17 C    0.868
    21   7 N    3.457 --     7 C    1.174    22 C    1.122    42 H    0.878
                            23 O    0.128
    22   6 C    3.899 --    23 O    1.601    21 N    1.122    24 C    1.051
    23   8 O    1.902 --    22 C    1.601    21 N    0.128
    24   6 C    3.876 --     5 C    1.469    25 O    1.138    22 C    1.051
    25   8 O    2.094 --    24 C    1.138    43 H    0.799
    26   1 H    1.006 --     1 C    0.979
    27   1 H    1.010 --     1 C    0.986
    28   1 H    1.005 --     1 C    0.979
    29   1 H    0.997 --     9 C    0.982
    30   1 H    1.003 --     9 C    0.977
    31   1 H    0.997 --     9 C    0.983
    32   1 H    1.006 --    10 C    0.980
    33   1 H    1.002 --    10 C    0.981
    34   1 H    1.001 --    10 C    0.984
    35   1 H    0.935 --    11 N    0.884
    36   1 H    0.991 --    18 C    0.977
    37   1 H    0.991 --    18 C    0.979
    38   1 H    0.991 --    18 C    0.976
    39   1 H    0.991 --    19 C    0.979
    40   1 H    0.991 --    19 C    0.976
    41   1 H    0.991 --    19 C    0.977
    42   1 H    0.919 --    21 N    0.878
    43   1 H    0.836 --    25 O    0.799
 ---------------------------------------------------------------------------

           -------------------------------------------------
          | TOTAL ENERGY              -83.116538280417 Eh   |
          | GRADIENT NORM               0.000813495950 Eh/α |
          | HOMO-LUMO GAP               0.153419775265 eV   |
           -------------------------------------------------

 * finished run on 2023/06/20 at 15:35:46.920
