   * xtb version 6.5.1 (579679a) compiled by 'ehlert@majestix' on 2022-07-11
          program call               : /lustre/hpc/kemi/ree/PhD/git/ReactivityQM/dep/xtb-6.5.1/bin/xtb --gfn 1 /lustre/hpc/kemi/ree/PhD/git/ReactivityQM/calculations/R02/reac01prodN15/conf13/R02_reac01prodN15_conf13_gfn1.xyz --opt --vfukui --chrg 1 --uhf 0 --alpb DMSO

   ID    Z sym.   atoms
    1    6 C      1, 3, 5, 7-10, 12, 14, 17, 18, 21, 23, 24
    2    8 O      2, 4, 13, 19, 22, 25
    3    7 N      6, 11, 15, 16, 20
    4    1 H      26-43

      * Solvation model:               ALPB
        Solvent                        DMSO
        Solvent mass                       7.8130E+01 g/mol
          :  Hamiltonian                  GFN1-xTB          :
 * total energy  :   -83.0962845 Eh     change       -0.3334719E-09 Eh
 * total energy  :   -83.1103172 Eh     change       -0.1403267E-01 Eh
 * total energy  :   -83.1173277 Eh     change       -0.7010524E-02 Eh
 * total energy  :   -83.1188814 Eh     change       -0.1553670E-02 Eh
 * total energy  :   -83.1201857 Eh     change       -0.1304353E-02 Eh
 * total energy  :   -83.1210532 Eh     change       -0.8674935E-03 Eh
 * total energy  :   -83.1219152 Eh     change       -0.8620063E-03 Eh
 * total energy  :   -83.1226845 Eh     change       -0.7693033E-03 Eh
 * total energy  :   -83.1231342 Eh     change       -0.4497199E-03 Eh
 * total energy  :   -83.1234035 Eh     change       -0.2692761E-03 Eh
 * total energy  :   -83.1256029 Eh     change       -0.4420410E-05 Eh
 * total energy  :   -83.1256661 Eh     change       -0.6323481E-04 Eh
 * total energy  :   -83.1256797 Eh     change       -0.1359242E-04 Eh
 * total energy  :   -83.1257003 Eh     change       -0.2057315E-04 Eh
 * total energy  :   -83.1257107 Eh     change       -0.1045987E-04 Eh
 * total energy  :   -83.1257170 Eh     change       -0.6335398E-05 Eh
 * total energy  :   -83.1257230 Eh     change       -0.5910516E-05 Eh
 * total energy  :   -83.1257264 Eh     change       -0.3461697E-05 Eh
 * total energy  :   -83.1257296 Eh     change       -0.3200969E-05 Eh
   *** GEOMETRY OPTIMIZATION CONVERGED AFTER 41 ITERATIONS ***

 final structure:
================
43
 xtb: 6.5.1 (579679a)
C           -5.36971535553799        0.70246886567333        1.99349381735416
O           -4.07747395189649        0.51127008814246        1.38721647861317
C           -4.05333105735163        0.22212022533888        0.11412117418460
O           -5.01171076269232        0.08863241833960       -0.60544181900060
C           -2.64108590559167        0.05926493155697       -0.41862831611557
N           -1.69729688743016       -0.20612054985306        0.42254666332374
C           -0.41386693737394       -0.30811177963596       -0.00510588394414
C            0.60159799138033       -0.69807252002637        1.01117880126480
C            0.47176663914017       -2.24187503697909        1.04467758829126
C            0.29511023065126       -0.09674811138654        2.38926685460974
N            1.92322963028082       -0.29590835470389        0.55688002992982
C            3.05743630940513       -0.69870942256242        1.21505702817220
O            3.09677373487626       -1.56142986054211        2.06665059857275
C            4.25528660653135        0.02403446253327        0.74545681509940
N            5.48275313057053       -0.12911718970303        1.13515922057704
N            6.23065519721965        0.76697118793408        0.44025794664362
C            5.41632262565560        1.41810998750308       -0.33293314589412
C            5.73941975231180        2.49703556527152       -1.28994262367468
O            4.14938819891452        0.99592017441707       -0.18763190949335
N           -0.09232225907212       -0.13467209063398       -1.27145313965783
C           -1.00775619447016        0.26230122968230       -2.30054349699138
O           -0.58948109652518        0.62550024274412       -3.35137075577996
C           -2.45198713073417        0.03902303174059       -1.90553309630331
C           -2.72877788858839       -1.45534946184843       -2.29920490487705
O           -3.26513400635253        0.89535149352304       -2.62074728081919
H           -5.97787621583182       -0.19122285532757        1.84512368795157
H           -5.18577473131649        0.87919224069027        3.05037166956246
H           -5.86025265317004        1.56258064582440        1.53452712995503
H            0.80513266207471       -2.65934532216947        0.09761672374009
H           -0.56609942280663       -2.51730452741711        1.22115123557328
H            1.08767240652422       -2.62915188604214        1.85396905413520
H            0.39039291649832        0.98618548359577        2.34855029745285
H            1.00238614380060       -0.49495100963997        3.11470235400606
H           -0.71779154372029       -0.35901247193162        2.68739648368777
H            1.98600091442105        0.58244182546655        0.06788901274075
H            5.53135188536923        2.16251727626240       -2.30671387870815
H            5.11594296322792        3.36797516339398       -1.08949946053427
H            6.79020942909869        2.76508011133714       -1.20225648964394
H            0.88252286097722       -0.13822804012326       -1.54953115998501
H           -3.76448040544060       -1.68434519987476       -2.05917950258578
H           -2.57192414526235       -1.54244031476182       -3.37286672258743
H           -2.06307810451857       -2.12853775478656       -1.76662217187292
H           -4.20413357323923        0.75667710897125       -2.40805490698649

          :  Hamiltonian                  GFN1-xTB          :
         :: total energy             -83.125729622655 Eh    ::
         :: gradient norm              0.000794621006 Eh/a0 ::
         :: HOMO-LUMO gap              0.874282162714 eV    ::
         :: SCC energy               -83.918397038970 Eh    ::
         :: -> Gsolv                  -0.121072431277 Eh    ::
         :: repulsion energy           0.819351193554 Eh    ::

    * Orbital Energies and Occupations

         #    Occupation            Energy/Eh            Energy/eV
      -------------------------------------------------------------
         1        2.0000           -0.9012340             -24.5238
       ...           ...                  ...                  ...
        55        2.0000           -0.5392523             -14.6738
        56        2.0000           -0.5345711             -14.5464
        57        2.0000           -0.5333055             -14.5120
        58        2.0000           -0.5265632             -14.3285
        59        2.0000           -0.5247905             -14.2803
        60        2.0000           -0.5158388             -14.0367
        61        2.0000           -0.5097114             -13.8700
        62        2.0000           -0.4939631             -13.4414
        63        2.0000           -0.4920797             -13.3902
        64        2.0000           -0.4853799             -13.2079
        65        2.0000           -0.4803938             -13.0722
        66        2.0000           -0.4642015             -12.6316
        67        2.0000           -0.4626460             -12.5892 (HOMO)
        68                         -0.4305167             -11.7150 (LUMO)
        69                         -0.3552307              -9.6663
        70                         -0.3292342              -8.9589
        71                         -0.3108162              -8.4577
        72                         -0.2678913              -7.2897
        73                         -0.2658228              -7.2334
        74                         -0.2153188              -5.8591
        75                         -0.1603389              -4.3630
        76                         -0.1570236              -4.2728
        77                         -0.1532094              -4.1690
        78                         -0.1461203              -3.9761
       ...                                ...                  ...
       136                          0.7215513              19.6344
      -------------------------------------------------------------
                  HL-Gap            0.0321293 Eh            0.8743 eV

Wiberg/Mayer (AO) data.
largest (>0.10) Wiberg bond orders for each atom

     #   Z sym  total        # sym  WBO       # sym  WBO       # sym  WBO
 ---------------------------------------------------------------------------
     1   6 C    3.836 --    27 H    0.984    26 H    0.975    28 H    0.974
                             2 O    0.865
     2   8 O    2.257 --     3 C    1.189     1 C    0.865     4 O    0.157
     3   6 C    3.865 --     4 O    1.665     2 O    1.189     5 C    0.942
     4   8 O    1.978 --     3 C    1.665     2 O    0.157
     5   6 C    3.902 --     6 N    1.628    23 C    1.001     3 C    0.942
     6   7 N    3.054 --     5 C    1.628     7 C    1.205
     7   6 C    3.879 --    20 N    1.416     6 N    1.205     8 C    1.027
     8   6 C    3.934 --     7 C    1.027    10 C    0.964    11 N    0.951
                             9 C    0.911
     9   6 C    3.965 --    29 H    0.984    30 H    0.982    31 H    0.958
                             8 C    0.911
    10   6 C    3.975 --    32 H    0.983    34 H    0.982    33 H    0.978
                             8 C    0.964
    11   7 N    3.287 --    12 C    1.180     8 C    0.951    35 H    0.888
                            13 O    0.155
    12   6 C    3.905 --    13 O    1.629    11 N    1.180    14 C    1.007
    13   8 O    1.937 --    12 C    1.629    11 N    0.155
    14   6 C    3.877 --    15 N    1.612    19 O    1.044    12 C    1.007
    15   7 N    3.006 --    14 C    1.612    16 N    1.211
    16   7 N    2.984 --    17 C    1.599    15 N    1.211
    17   6 C    3.864 --    16 N    1.599    19 O    1.073    18 C    1.034
    18   6 C    3.984 --    17 C    1.034    38 H    0.981    37 H    0.963
                            36 H    0.959
    19   8 O    2.317 --    17 C    1.073    14 C    1.044
    20   7 N    3.520 --     7 C    1.416    21 C    0.973    39 H    0.853
    21   6 C    3.855 --    22 O    1.810    20 N    0.973    23 C    0.950
    22   8 O    2.053 --    21 C    1.810
    23   6 C    3.943 --    25 O    1.010     5 C    1.001    21 C    0.950
                            24 C    0.852
    24   6 C    3.959 --    42 H    0.985    40 H    0.974    41 H    0.968
                            23 C    0.852
    25   8 O    1.927 --    23 C    1.010    43 H    0.809
    26   1 H    1.000 --     1 C    0.975
    27   1 H    1.005 --     1 C    0.984
    28   1 H    0.999 --     1 C    0.974
    29   1 H    0.996 --     9 C    0.984
    30   1 H    0.997 --     9 C    0.982
    31   1 H    1.004 --     9 C    0.958
    32   1 H    0.996 --    10 C    0.983
    33   1 H    1.000 --    10 C    0.978
    34   1 H    1.005 --    10 C    0.982
    35   1 H    0.930 --    11 N    0.888
    36   1 H    0.995 --    18 C    0.959
    37   1 H    0.995 --    18 C    0.963
    38   1 H    0.997 --    18 C    0.981
    39   1 H    0.902 --    20 N    0.853
    40   1 H    0.997 --    24 C    0.974
    41   1 H    0.992 --    24 C    0.968
    42   1 H    0.993 --    24 C    0.985
    43   1 H    0.848 --    25 O    0.809
 ---------------------------------------------------------------------------

           -------------------------------------------------
          | TOTAL ENERGY              -83.125729622655 Eh   |
          | GRADIENT NORM               0.000794621006 Eh/α |
          | HOMO-LUMO GAP               0.874282162714 eV   |
           -------------------------------------------------

 * finished run on 2023/06/20 at 15:40:34.812
