   * xtb version 6.5.1 (579679a) compiled by 'ehlert@majestix' on 2022-07-11
          program call               : /lustre/hpc/kemi/ree/PhD/git/ReactivityQM/dep/xtb-6.5.1/bin/xtb --gfn 1 /lustre/hpc/kemi/ree/PhD/git/ReactivityQM/calculations/R03/reac01prodN01/conf01/R03_reac01prodN01_conf01_gfn1.xyz --opt --vfukui --chrg 1 --uhf 0 --alpb DMSO

   ID    Z sym.   atoms
    1    6 C      1, 3-7, 9, 10
    2    7 N      2
    3    9 F      8
    4    1 H      11-21

      * Solvation model:               ALPB
        Solvent                        DMSO
        Solvent mass                       7.8130E+01 g/mol
          :  Hamiltonian                  GFN1-xTB          :
 * total energy  :   -30.8261545 Eh     change       -0.2099654E-11 Eh
 * total energy  :   -30.8299178 Eh     change       -0.3763346E-02 Eh
 * total energy  :   -30.8305048 Eh     change       -0.5870136E-03 Eh
 * total energy  :   -30.8305672 Eh     change       -0.6236008E-04 Eh
 * total energy  :   -30.8305896 Eh     change       -0.2245780E-04 Eh
 * total energy  :   -30.8305977 Eh     change       -0.8077155E-05 Eh
 * total energy  :   -30.8306045 Eh     change       -0.6820893E-05 Eh
 * total energy  :   -30.8306092 Eh     change       -0.4636680E-05 Eh
   *** GEOMETRY OPTIMIZATION CONVERGED AFTER 8 ITERATIONS ***

 final structure:
================
21
 xtb: 6.5.1 (579679a)
C           -2.36391411007591        0.72395661531402       -0.39716338662689
N           -2.06903530359360       -0.62073712191086        0.15201155878364
C           -0.94102612224412       -0.62343157861468        1.14143508017204
C            0.35740942707018       -0.26620051578117        0.46814809198798
C            1.03795044700625       -1.22847385976269       -0.27750730985321
C            2.23941219277510       -0.91823179589991       -0.89590830179909
C            2.74128751984232        0.36383356108322       -0.74980689960555
F            3.90135065292633        0.66878583360901       -1.33777944021120
C            2.09062387046884        1.34123296321542       -0.01711140542615
C            0.88766030630948        1.01687861606783        0.59313195532868
H           -1.47600189194967        1.09481791138194       -0.90327590383568
H           -3.19025055078742        0.62645942158586       -1.09673531391108
H           -2.63566057260902        1.38051151700338        0.42559647860330
H           -1.84803193474300       -1.25577234566165       -0.61149100148432
H           -2.89988393523993       -0.97647938978640        0.61503517483906
H           -1.20399856547224        0.08910767704815        1.92409518662904
H           -0.90830214211114       -1.63144829520593        1.55819074479160
H            0.62713317136377       -2.22586607098896       -0.36982833560600
H            2.77738703919857       -1.65571437314183       -1.47742581871145
H            2.51491415254411        2.33294521371595        0.07251040839692
H            0.36097734932106        1.76382601672952        1.17428443753836

          :  Hamiltonian                  GFN1-xTB          :
         :: total energy             -30.830609173762 Eh    ::
         :: gradient norm              0.000352632404 Eh/a0 ::
         :: HOMO-LUMO gap              4.526477202684 eV    ::
         :: SCC energy               -31.241714114330 Eh    ::
         :: -> Gsolv                  -0.102463993886 Eh    ::
         :: repulsion energy           0.421344482543 Eh    ::

    * Orbital Energies and Occupations

         #    Occupation            Energy/Eh            Energy/eV
      -------------------------------------------------------------
         1        2.0000           -0.8852411             -24.0886
       ...           ...                  ...                  ...
        15        2.0000           -0.5961522             -16.2221
        16        2.0000           -0.5819442             -15.8355
        17        2.0000           -0.5653877             -15.3850
        18        2.0000           -0.5643577             -15.3570
        19        2.0000           -0.5610454             -15.2668
        20        2.0000           -0.5588049             -15.2059
        21        2.0000           -0.5542558             -15.0821
        22        2.0000           -0.5349185             -14.5559
        23        2.0000           -0.5315708             -14.4648
        24        2.0000           -0.5181771             -14.1003
        25        2.0000           -0.4924773             -13.4010
        26        2.0000           -0.4714586             -12.8290
        27        2.0000           -0.4599031             -12.5146 (HOMO)
        28                         -0.2935581              -7.9881 (LUMO)
        29                         -0.2919399              -7.9441
        30                         -0.1831571              -4.9840
        31                         -0.1729767              -4.7069
        32                         -0.1688118              -4.5936
        33                         -0.1609309              -4.3792
        34                         -0.1378405              -3.7508
        35                         -0.1222147              -3.3256
        36                         -0.1119308              -3.0458
        37                         -0.1062772              -2.8919
        38                         -0.0987194              -2.6863
       ...                                ...                  ...
        62                          0.6265455              17.0492
      -------------------------------------------------------------
                  HL-Gap            0.1663450 Eh            4.5265 eV

Wiberg/Mayer (AO) data.
largest (>0.10) Wiberg bond orders for each atom

     #   Z sym  total        # sym  WBO       # sym  WBO       # sym  WBO
 ---------------------------------------------------------------------------
     1   6 C    3.898 --    13 H    0.984    11 H    0.983    12 H    0.981
                             2 N    0.922
     2   7 N    3.605 --     1 C    0.922     3 C    0.894    14 H    0.892
                            15 H    0.888
     3   6 C    3.902 --     4 C    1.008    16 H    0.975    17 H    0.969
                             2 N    0.894
     4   6 C    3.984 --    10 C    1.414     5 C    1.411     3 C    1.008
     5   6 C    3.993 --     6 C    1.450     4 C    1.411    18 H    0.969
                             9 C    0.109
     6   6 C    3.991 --     5 C    1.450     7 C    1.394    19 H    0.967
                            10 C    0.108
     7   6 C    3.866 --     9 C    1.397     6 C    1.394     8 F    0.941
     8   9 F    1.074 --     7 C    0.941
     9   6 C    3.991 --    10 C    1.445     7 C    1.397    20 H    0.967
                             5 C    0.109
    10   6 C    3.993 --     9 C    1.445     4 C    1.414    21 H    0.969
                             6 C    0.108
    11   1 H    0.999 --     1 C    0.983
    12   1 H    0.989 --     1 C    0.981
    13   1 H    0.991 --     1 C    0.984
    14   1 H    0.921 --     2 N    0.892
    15   1 H    0.909 --     2 N    0.888
    16   1 H    0.994 --     3 C    0.975
    17   1 H    0.993 --     3 C    0.969
    18   1 H    0.995 --     5 C    0.969
    19   1 H    0.995 --     6 C    0.967
    20   1 H    0.995 --     9 C    0.967
    21   1 H    0.997 --    10 C    0.969
 ---------------------------------------------------------------------------

           -------------------------------------------------
          | TOTAL ENERGY              -30.830609173762 Eh   |
          | GRADIENT NORM               0.000352632404 Eh/α |
          | HOMO-LUMO GAP               4.526477202684 eV   |
           -------------------------------------------------

 * finished run on 2023/06/20 at 15:13:51.001
