   * xtb version 6.5.1 (579679a) compiled by 'ehlert@majestix' on 2022-07-11
          program call               : /lustre/hpc/kemi/ree/PhD/git/ReactivityQM/dep/xtb-6.5.1/bin/xtb --gfn 1 /lustre/hpc/kemi/ree/PhD/git/ReactivityQM/calculations/R03/reac02prodN06/conf17/R03_reac02prodN06_conf17_gfn1.xyz --opt --vfukui --chrg 1 --uhf 0 --alpb DMSO

   ID    Z sym.   atoms
    1    6 C      1, 3, 5, 7-10, 12, 14, 16, 17, 20, 22, 23, 25
    2    8 O      2, 4, 13, 15, 24, 26
    3    7 N      6, 11, 18, 19, 21
    4    1 H      27-46

      * Solvation model:               ALPB
        Solvent                        DMSO
        Solvent mass                       7.8130E+01 g/mol
          :  Hamiltonian                  GFN1-xTB          :
 * total energy  :   -86.3366672 Eh     change       -0.5385914E-11 Eh
 * total energy  :   -86.3553455 Eh     change       -0.1867823E-01 Eh
 * total energy  :   -86.3620589 Eh     change       -0.6713498E-02 Eh
 * total energy  :   -86.3634657 Eh     change       -0.1406771E-02 Eh
 * total energy  :   -86.3646325 Eh     change       -0.1166746E-02 Eh
 * total energy  :   -86.3650925 Eh     change       -0.4600468E-03 Eh
 * total energy  :   -86.3654648 Eh     change       -0.3723323E-03 Eh
 * total energy  :   -86.3657616 Eh     change       -0.2967652E-03 Eh
 * total energy  :   -86.3659446 Eh     change       -0.1830307E-03 Eh
 * total energy  :   -86.3660470 Eh     change       -0.1023249E-03 Eh
 * total energy  :   -86.3665955 Eh     change       -0.7731360E-05 Eh
 * total energy  :   -86.3666009 Eh     change       -0.5436609E-05 Eh
 * total energy  :   -86.3666085 Eh     change       -0.7624838E-05 Eh
 * total energy  :   -86.3666175 Eh     change       -0.8962059E-05 Eh
 * total energy  :   -86.3666292 Eh     change       -0.1170102E-04 Eh
 * total energy  :   -86.3666419 Eh     change       -0.1270735E-04 Eh
 * total energy  :   -86.3666529 Eh     change       -0.1093462E-04 Eh
 * total energy  :   -86.3666580 Eh     change       -0.5174961E-05 Eh
 * total energy  :   -86.3666629 Eh     change       -0.4834136E-05 Eh
   *** GEOMETRY OPTIMIZATION CONVERGED AFTER 29 ITERATIONS ***

 final structure:
================
46
 xtb: 6.5.1 (579679a)
C           -5.95802107579401       -1.64015129084125       -1.55499807362206
O           -4.74985641493321       -1.09013188496226       -1.01357299811388
C           -4.65195526640031       -1.06091103031492        0.30619136654406
O           -5.52516315215855       -1.46860385530441        1.05174270521042
C           -3.38151134555495       -0.48586598912191        0.80592086964457
N           -2.46286356390036       -0.07407849012625       -0.11749416094526
C           -1.33293373443552        0.43001430612813        0.25601818037193
C           -0.42169654441258        0.88430960575440       -0.87592542102841
C           -0.50061396367746        2.41068134668476       -1.01467141326061
C           -0.86122634411705        0.21626540217015       -2.18606439669833
N            0.95357480217044        0.42816735589397       -0.59298255463204
C            2.01167064029361        0.79425470651753       -1.32121745463877
O            2.05957601587256        1.60569637452125       -2.22236093434727
C            3.26395233920500        0.07592624343239       -0.89890100090312
O            3.31158922108105       -0.81712539273575        0.07808062013609
C            4.58438929746619       -1.24977986137689        0.12520571532892
C            5.00549474527503       -2.25970858059470        1.10981770179859
N            5.30959824714596       -0.65856984004037       -0.78028378038351
N            4.46596995498700        0.17045690816059       -1.41791619183118
C            4.95616283586574        1.00844544339339       -2.49324977439672
N           -1.01549942771341        0.59933733984686        1.57832886646175
C            0.24334656515333        1.16443934955638        2.06761078499919
C           -1.86367597203691        0.18091839239591        2.60914819625645
O           -1.52953066532900        0.30445050086686        3.77571023518596
C           -3.13150522606096       -0.38445329783592        2.15110239606183
O           -3.97603868726745       -0.77767010317828        3.10324362329480
H           -6.81642750042548       -1.05184531320838       -1.22291624878814
H           -5.85988322553650       -1.59480065840736       -2.63747540917420
H           -6.07578262904911       -2.67448458807368       -1.22456188822179
H            0.01013702194410        2.73671209857752       -1.91755278043034
H           -0.05597675654105        2.91255243673224       -0.15961197063998
H           -1.54983533557171        2.69533287211397       -1.08318289646106
H           -0.83496842197388       -0.86641627242078       -2.07829299644095
H           -0.19022622618544        0.51474386238831       -2.98887532014637
H           -1.87626501743406        0.52346770726114       -2.43135968642577
H            1.06227860994025       -0.35497873306181        0.03109341657576
H            4.93041223156314       -1.84297088340960        2.11553244270936
H            4.34255601303364       -3.12368308962036        1.05755616976974
H            6.03227724530554       -2.56052297263459        0.91414580294078
H            4.15489562724679        1.15836284185578       -3.21370395298037
H            5.80984684185280        0.51021407535863       -2.94614465894470
H            5.25947478023041        1.96756762578512       -2.07316154840079
H            0.72738538402268        1.75272728578371        1.29968238244889
H            0.01987180410222        1.79487963761262        2.92887157842432
H            0.89873070748641        0.35273009371635        2.38127521040285
H           -4.79173543474425       -1.15589768526763        2.69882924728823

          :  Hamiltonian                  GFN1-xTB          :
         :: total energy             -86.366662860535 Eh    ::
         :: gradient norm              0.000965156363 Eh/a0 ::
         :: HOMO-LUMO gap              1.540656251485 eV    ::
         :: SCC energy               -87.208663907102 Eh    ::
         :: -> Gsolv                  -0.116644775435 Eh    ::
         :: repulsion energy           0.870736678404 Eh    ::

    * Orbital Energies and Occupations

         #    Occupation            Energy/Eh            Energy/eV
      -------------------------------------------------------------
         1        2.0000           -0.9393065             -25.5598
       ...           ...                  ...                  ...
        58        2.0000           -0.5276766             -14.3588
        59        2.0000           -0.5222233             -14.2104
        60        2.0000           -0.5192430             -14.1293
        61        2.0000           -0.5185179             -14.1096
        62        2.0000           -0.5154035             -14.0248
        63        2.0000           -0.5026487             -13.6778
        64        2.0000           -0.5016328             -13.6501
        65        2.0000           -0.4934683             -13.4280
        66        2.0000           -0.4860752             -13.2268
        67        2.0000           -0.4805649             -13.0768
        68        2.0000           -0.4660357             -12.6815
        69        2.0000           -0.4514045             -12.2833
        70        2.0000           -0.4343061             -11.8181 (HOMO)
        71                         -0.3776881             -10.2774 (LUMO)
        72                         -0.3305794              -8.9955
        73                         -0.3246821              -8.8350
        74                         -0.2928801              -7.9697
        75                         -0.2586259              -7.0376
        76                         -0.2473367              -6.7304
        77                         -0.1709037              -4.6505
        78                         -0.1675647              -4.5597
        79                         -0.1645473              -4.4776
        80                         -0.1501482              -4.0857
        81                         -0.1397803              -3.8036
       ...                                ...                  ...
       144                          0.7151517              19.4603
      -------------------------------------------------------------
                  HL-Gap            0.0566181 Eh            1.5407 eV

Wiberg/Mayer (AO) data.
largest (>0.10) Wiberg bond orders for each atom

     #   Z sym  total        # sym  WBO       # sym  WBO       # sym  WBO
 ---------------------------------------------------------------------------
     1   6 C    3.864 --    28 H    0.986    29 H    0.979    27 H    0.979
                             2 O    0.889
     2   8 O    2.218 --     3 C    1.139     1 C    0.889     4 O    0.131
     3   6 C    3.849 --     4 O    1.609     2 O    1.139     5 C    1.017
     4   8 O    1.945 --     3 C    1.609     2 O    0.131
     5   6 C    3.962 --    25 C    1.476     6 N    1.185     3 C    1.017
     6   7 N    3.033 --     7 C    1.574     5 C    1.185
     7   6 C    3.936 --     6 N    1.574    21 N    1.174     8 C    0.977
     8   6 C    3.913 --    10 C    0.986     9 C    0.981     7 C    0.977
                            11 N    0.900
     9   6 C    3.984 --    32 H    0.982     8 C    0.981    31 H    0.978
                            30 H    0.977
    10   6 C    3.984 --     8 C    0.986    33 H    0.984    34 H    0.983
                            35 H    0.981
    11   7 N    3.394 --    12 C    1.302     8 C    0.900    36 H    0.888
                            13 O    0.198
    12   6 C    3.928 --    13 O    1.594    11 N    1.302    14 C    0.955
    13   8 O    1.951 --    12 C    1.594    11 N    0.198
    14   6 C    3.841 --    19 N    1.456    15 O    1.125    12 C    0.955
    15   8 O    2.369 --    14 C    1.125    16 C    1.067
    16   6 C    3.838 --    18 N    1.572    15 O    1.067    17 C    1.044
    17   6 C    3.969 --    16 C    1.044    39 H    0.976    38 H    0.953
                            37 H    0.945
    18   7 N    2.966 --    16 C    1.572    19 N    1.159
    19   7 N    3.662 --    14 C    1.456    18 N    1.159    20 C    0.908
    20   6 C    3.877 --    41 H    0.976    40 H    0.969    42 H    0.958
                            19 N    0.908
    21   7 N    3.498 --     7 C    1.174    23 C    1.101    22 C    0.930
                            24 O    0.137
    22   6 C    3.922 --    43 H    0.979    45 H    0.975    44 H    0.972
                            21 N    0.930
    23   6 C    3.910 --    24 O    1.596    21 N    1.101    25 C    1.066
    24   8 O    1.911 --    23 C    1.596    21 N    0.137
    25   6 C    3.923 --     5 C    1.476    26 O    1.130    23 C    1.066
    26   8 O    2.097 --    25 C    1.130    46 H    0.775
    27   1 H    1.006 --     1 C    0.979
    28   1 H    1.010 --     1 C    0.986
    29   1 H    1.006 --     1 C    0.979
    30   1 H    1.006 --     9 C    0.977
    31   1 H    1.000 --     9 C    0.978
    32   1 H    1.000 --     9 C    0.982
    33   1 H    1.005 --    10 C    0.984
    34   1 H    1.001 --    10 C    0.983
    35   1 H    1.010 --    10 C    0.981
    36   1 H    0.929 --    11 N    0.888
    37   1 H    0.988 --    17 C    0.945
    38   1 H    0.989 --    17 C    0.953
    39   1 H    0.990 --    17 C    0.976
    40   1 H    1.002 --    20 C    0.969
    41   1 H    0.993 --    20 C    0.976
    42   1 H    0.990 --    20 C    0.958
    43   1 H    1.008 --    22 C    0.979
    44   1 H    1.004 --    22 C    0.972
    45   1 H    1.000 --    22 C    0.975
    46   1 H    0.850 --    26 O    0.775
 ---------------------------------------------------------------------------

           -------------------------------------------------
          | TOTAL ENERGY              -86.366662860535 Eh   |
          | GRADIENT NORM               0.000965156363 Eh/α |
          | HOMO-LUMO GAP               1.540656251485 eV   |
           -------------------------------------------------

 * finished run on 2023/06/20 at 15:40:52.229
