   * xtb version 6.5.1 (579679a) compiled by 'ehlert@majestix' on 2022-07-11
          program call               : /lustre/hpc/kemi/ree/PhD/git/ReactivityQM/dep/xtb-6.5.1/bin/xtb --gfn 1 /lustre/hpc/kemi/ree/PhD/git/ReactivityQM/calculations/R01/reac01prodN07/conf07/R01_reac01prodN07_conf07_gfn1.xyz --opt --vfukui --chrg 1 --uhf 0 --alpb DMSO

   ID    Z sym.   atoms
    1    6 C      1, 3, 5, 8-10
    2    8 O      2, 4, 11
    3    7 N      6, 7
    4    1 H      12-20

      * Solvation model:               ALPB
        Solvent                        DMSO
        Solvent mass                       7.8130E+01 g/mol
          :  Hamiltonian                  GFN1-xTB          :
 * total energy  :   -37.5561210 Eh     change       -0.3794298E-11 Eh
 * total energy  :   -37.5687501 Eh     change       -0.1262911E-01 Eh
 * total energy  :   -37.5735771 Eh     change       -0.4827066E-02 Eh
 * total energy  :   -37.5742566 Eh     change       -0.6794337E-03 Eh
 * total energy  :   -37.5746317 Eh     change       -0.3751453E-03 Eh
 * total energy  :   -37.5746849 Eh     change       -0.5314255E-04 Eh
 * total energy  :   -37.5747257 Eh     change       -0.4087852E-04 Eh
 * total energy  :   -37.5747481 Eh     change       -0.2234246E-04 Eh
 * total energy  :   -37.5747614 Eh     change       -0.1330657E-04 Eh
 * total energy  :   -37.5747668 Eh     change       -0.5446750E-05 Eh
 * total energy  :   -37.5747683 Eh     change       -0.1446538E-05 Eh
   *** GEOMETRY OPTIMIZATION CONVERGED AFTER 11 ITERATIONS ***

 final structure:
================
20
 xtb: 6.5.1 (579679a)
C            4.12664590140243       -0.18310223085250       -0.14494132514665
O            2.71606069116691       -0.13591078590225       -0.44176580857190
C            1.89365924961226       -0.01220869187954        0.56001129108425
O            2.14543739041004        0.07536125805946        1.72308571974305
C            0.44997704189892        0.00511779803396        0.03735576442550
N            0.07132494216480       -0.05266011113027       -1.28528303241998
N           -1.18732124073464       -0.01992367835693       -1.31379208756346
C           -1.71227031978666        0.06084660113572        0.00071078870934
C           -2.55486703469218       -1.18171385840148        0.33319008105240
C           -2.50048309346126        1.36416768633654        0.20641144336231
O           -0.54434200749868        0.07336305710356        0.81293977302344
H            4.32601466130161       -1.01915529131981        0.52669166248936
H            4.42650296736297        0.75228153822389        0.32928479893152
H            4.62903633500023       -0.31738979344483       -1.09955591961473
H           -3.41848201826248       -1.20151463806559       -0.32676562479882
H           -2.87451184556178       -1.11543519852821        1.37043385372237
H           -1.94878415631170       -2.07289364390758        0.18583889825647
H           -3.36252100506189        1.35606726531667       -0.45596522951423
H           -2.82329732699310        1.41404408058407        1.24363422485655
H           -1.85778013195581        2.21065863699517       -0.02512427202663

          :  Hamiltonian                  GFN1-xTB          :
         :: total energy             -37.574768281136 Eh    ::
         :: gradient norm              0.000338695968 Eh/a0 ::
         :: HOMO-LUMO gap              1.771982304356 eV    ::
         :: SCC energy               -37.910591997697 Eh    ::
         :: -> Gsolv                  -0.081339809861 Eh    ::
         :: repulsion energy           0.344242392233 Eh    ::

    * Orbital Energies and Occupations

         #    Occupation            Energy/Eh            Energy/eV
      -------------------------------------------------------------
         1        2.0000           -0.9571622             -26.0457
       ...           ...                  ...                  ...
        18        2.0000           -0.6146719             -16.7261
        19        2.0000           -0.6120725             -16.6553
        20        2.0000           -0.6111078             -16.6291
        21        2.0000           -0.5875176             -15.9872
        22        2.0000           -0.5858562             -15.9420
        23        2.0000           -0.5797587             -15.7760
        24        2.0000           -0.5749963             -15.6464
        25        2.0000           -0.5683666             -15.4660
        26        2.0000           -0.5556075             -15.1188
        27        2.0000           -0.5530520             -15.0493
        28        2.0000           -0.5428437             -14.7715
        29        2.0000           -0.5363246             -14.5941
        30        2.0000           -0.5246599             -14.2767 (HOMO)
        31                         -0.4595408             -12.5047 (LUMO)
        32                         -0.3774485             -10.2709
        33                         -0.2806150              -7.6359
        34                         -0.1700311              -4.6268
        35                         -0.1641960              -4.4680
        36                         -0.1607775              -4.3750
        37                         -0.1201703              -3.2700
        38                         -0.1122497              -3.0545
        39                         -0.0986245              -2.6837
        40                         -0.0958276              -2.6076
        41                         -0.0934729              -2.5435
       ...                                ...                  ...
        62                          0.7402720              20.1438
      -------------------------------------------------------------
                  HL-Gap            0.0651192 Eh            1.7720 eV

Wiberg/Mayer (AO) data.
largest (>0.10) Wiberg bond orders for each atom

     #   Z sym  total        # sym  WBO       # sym  WBO       # sym  WBO
 ---------------------------------------------------------------------------
     1   6 C    3.820 --    14 H    0.983    12 H    0.972    13 H    0.971
                             2 O    0.854
     2   8 O    2.261 --     3 C    1.193     1 C    0.854     4 O    0.173
     3   6 C    3.881 --     4 O    1.721     2 O    1.193     5 C    0.896
     4   8 O    2.013 --     3 C    1.721     2 O    0.173
     5   6 C    3.788 --    11 O    1.393     6 N    1.199     3 C    0.896
     6   7 N    3.022 --     7 N    1.678     5 C    1.199
     7   7 N    2.995 --     6 N    1.678     8 C    1.074
     8   6 C    3.813 --     7 N    1.074    10 C    0.885     9 C    0.883
                            11 O    0.868
     9   6 C    3.942 --    17 H    0.978    15 H    0.975    16 H    0.974
                             8 C    0.883
    10   6 C    3.942 --    20 H    0.978    18 H    0.975    19 H    0.974
                             8 C    0.885
    11   8 O    2.442 --     5 C    1.393     8 C    0.868
    12   1 H    0.996 --     1 C    0.972
    13   1 H    0.996 --     1 C    0.971
    14   1 H    1.002 --     1 C    0.983
    15   1 H    0.989 --     9 C    0.975
    16   1 H    0.989 --     9 C    0.974
    17   1 H    0.989 --     9 C    0.978
    18   1 H    0.989 --    10 C    0.975
    19   1 H    0.989 --    10 C    0.974
    20   1 H    0.989 --    10 C    0.978
 ---------------------------------------------------------------------------

           -------------------------------------------------
          | TOTAL ENERGY              -37.574768281136 Eh   |
          | GRADIENT NORM               0.000338695968 Eh/α |
          | HOMO-LUMO GAP               1.771982304356 eV   |
           -------------------------------------------------

 * finished run on 2023/06/20 at 14:56:44.393
