                         Program Version 5.0.1 -  RELEASE  -
|  1> # ORCA input file
|  2> ! SP r2SCAN-3c CPCM
|  3>
|  4> %maxcore 1875.0
|  5> %pal nprocs 4 end
|  6> %cpcm smd true SMDsolvent "DMSO" end
|  7>
|  8> *xyz 1 1
|  9> C      -4.885814   -2.110603   -2.714690
| 10> O      -3.819629   -1.326761   -2.147207
| 11> C      -4.102515   -0.604576   -1.096972
| 12> O      -5.178700   -0.519218   -0.559460
| 13> C      -2.892880    0.140279   -0.559364
| 14> C      -3.116247    1.163937    0.515726
| 15> O      -4.264450    1.919889    0.378748
| 16> C      -1.923784    2.084772    0.666545
| 17> C      -3.147187    0.333737    1.845180
| 18> O      -1.902062    3.183358    1.118161
| 19> N      -0.695642    1.444303    0.296123
| 20> C      -0.612189    0.361456   -0.449230
| 21> C       0.704280   -0.153297   -0.912636
| 22> C       0.898227    0.523372   -2.292395
| 23> C       0.693778   -1.681865   -1.052012
| 24> N       1.732053    0.270533    0.025967
| 25> C       3.063404    0.042946   -0.227145
| 26> O       3.525750   -0.248142   -1.307442
| 27> C       3.856560    0.219838    1.005138
| 28> N       3.379704    0.454026    2.192904
| 29> N       4.440143    0.495533    3.039305
| 30> C       5.501668    0.278581    2.317149
| 31> C       6.907048    0.221203    2.773406
| 32> O       5.194651    0.097253    1.025887
| 33> N      -1.720975   -0.256072   -0.929390
| 34> H      -5.741873   -1.467462   -2.924941
| 35> H      -4.488995   -2.546020   -3.628532
| 36> H      -5.174944   -2.888754   -2.006494
| 37> H      -5.053742    1.355350    0.308156
| 38> H      -3.995832   -0.345199    1.802821
| 39> H      -3.278197    1.035206    2.667113
| 40> H      -2.226463   -0.227779    1.973081
| 41> H       0.148511    1.958741    0.524768
| 42> H       0.029373    0.331473   -2.919153
| 43> H       1.782823    0.104098   -2.767245
| 44> H       1.025803    1.595684   -2.161431
| 45> H       0.555689   -2.140410   -0.075024
| 46> H       1.644354   -2.005397   -1.472277
| 47> H      -0.117355   -1.985825   -1.710357
| 48> H       1.475331    0.274293    1.002990
| 49> H       7.490200    0.998325    2.278894
| 50> H       6.947987    0.362901    3.850757
| 51> H       7.342139   -0.743707    2.512877
| 52> **                         ****END OF INPUT****

CARTESIAN COORDINATES (ANGSTROEM)
---------------------------------
  C     -4.885814   -2.110603   -2.714690
  O     -3.819629   -1.326761   -2.147207
  C     -4.102515   -0.604576   -1.096972
  O     -5.178700   -0.519218   -0.559460
  C     -2.892880    0.140279   -0.559364
  C     -3.116247    1.163937    0.515726
  O     -4.264450    1.919889    0.378748
  C     -1.923784    2.084772    0.666545
  C     -3.147187    0.333737    1.845180
  O     -1.902062    3.183358    1.118161
  N     -0.695642    1.444303    0.296123
  C     -0.612189    0.361456   -0.449230
  C      0.704280   -0.153297   -0.912636
  C      0.898227    0.523372   -2.292395
  C      0.693778   -1.681865   -1.052012
  N      1.732053    0.270533    0.025967
  C      3.063404    0.042946   -0.227145
  O      3.525750   -0.248142   -1.307442
  C      3.856560    0.219838    1.005138
  N      3.379704    0.454026    2.192904
  N      4.440143    0.495533    3.039305
  C      5.501668    0.278581    2.317149
  C      6.907048    0.221203    2.773406
  O      5.194651    0.097253    1.025887
  N     -1.720975   -0.256072   -0.929390
  H     -5.741873   -1.467462   -2.924941
  H     -4.488995   -2.546020   -3.628532
  H     -5.174944   -2.888754   -2.006494
  H     -5.053742    1.355350    0.308156
  H     -3.995832   -0.345199    1.802821
  H     -3.278197    1.035206    2.667113
  H     -2.226463   -0.227779    1.973081
  H      0.148511    1.958741    0.524768
  H      0.029373    0.331473   -2.919153
  H      1.782823    0.104098   -2.767245
  H      1.025803    1.595684   -2.161431
  H      0.555689   -2.140410   -0.075024
  H      1.644354   -2.005397   -1.472277
  H     -0.117355   -1.985825   -1.710357
  H      1.475331    0.274293    1.002990
  H      7.490200    0.998325    2.278894
  H      6.947987    0.362901    3.850757
  H      7.342139   -0.743707    2.512877

 Total Charge           Charge          ....    1
 Multiplicity           Mult            ....    1
 Number of Electrons    NEL             ....  184
 Basis Dimension        Dim             ....  620

ORBITAL ENERGIES
----------------

  NO   OCC          E(Eh)            E(eV)
   0   2.0000     -19.071217      -518.9542
   1   2.0000     -19.037811      -518.0452
   2   2.0000     -19.001426      -517.0551
   3   2.0000     -18.987250      -516.6693
   4   2.0000     -18.984314      -516.5895
   5   2.0000     -18.952361      -515.7200
   6   2.0000     -14.284332      -388.6964
   7   2.0000     -14.228993      -387.1906
   8   2.0000     -14.213564      -386.7707
   9   2.0000     -14.213349      -386.7649
  10   2.0000     -14.203068      -386.4851
  11   2.0000     -10.208324      -277.7826
  12   2.0000     -10.207117      -277.7498
  13   2.0000     -10.205577      -277.7079
  14   2.0000     -10.174204      -276.8542
  15   2.0000     -10.172293      -276.8022
  16   2.0000     -10.163354      -276.5589
  17   2.0000     -10.152631      -276.2671
  18   2.0000     -10.150050      -276.1969
  19   2.0000     -10.133633      -275.7502
  20   2.0000     -10.093344      -274.6539
  21   2.0000     -10.060228      -273.7527
  22   2.0000     -10.047988      -273.4196
  23   2.0000     -10.043209      -273.2896
  24   2.0000     -10.036329      -273.1024
  25   2.0000      -1.162205       -31.6252
  26   2.0000      -1.119723       -30.4692
  27   2.0000      -1.095534       -29.8110
  28   2.0000      -1.043471       -28.3943
  29   2.0000      -1.042474       -28.3672
  30   2.0000      -1.032277       -28.0897
  31   2.0000      -1.026452       -27.9312
  32   2.0000      -0.983314       -26.7573
  33   2.0000      -0.947920       -25.7942
  34   2.0000      -0.929508       -25.2932
  35   2.0000      -0.843366       -22.9491
  36   2.0000      -0.822096       -22.3704
  37   2.0000      -0.781427       -21.2637
  38   2.0000      -0.751599       -20.4521
  39   2.0000      -0.718595       -19.5540
  40   2.0000      -0.706220       -19.2172
  41   2.0000      -0.689465       -18.7613
  42   2.0000      -0.678502       -18.4630
  43   2.0000      -0.672007       -18.2863
  44   2.0000      -0.663619       -18.0580
  45   2.0000      -0.627877       -17.0854
  46   2.0000      -0.603338       -16.4177
  47   2.0000      -0.593375       -16.1466
  48   2.0000      -0.584419       -15.9029
  49   2.0000      -0.571087       -15.5401
  50   2.0000      -0.554688       -15.0938
  51   2.0000      -0.550465       -14.9789
  52   2.0000      -0.527607       -14.3569
  53   2.0000      -0.505613       -13.7584
  54   2.0000      -0.500391       -13.6163
  55   2.0000      -0.495300       -13.4778
  56   2.0000      -0.483508       -13.1569
  57   2.0000      -0.479873       -13.0580
  58   2.0000      -0.471196       -12.8219
  59   2.0000      -0.464086       -12.6284
  60   2.0000      -0.458172       -12.4675
  61   2.0000      -0.449391       -12.2285
  62   2.0000      -0.442976       -12.0540
  63   2.0000      -0.429485       -11.6869
  64   2.0000      -0.425442       -11.5769
  65   2.0000      -0.418019       -11.3749
  66   2.0000      -0.413295       -11.2463
  67   2.0000      -0.407549       -11.0900
  68   2.0000      -0.406575       -11.0635
  69   2.0000      -0.394052       -10.7227
  70   2.0000      -0.389991       -10.6122
  71   2.0000      -0.384299       -10.4573
  72   2.0000      -0.383614       -10.4387
  73   2.0000      -0.380225       -10.3464
  74   2.0000      -0.371848       -10.1185
  75   2.0000      -0.366426        -9.9710
  76   2.0000      -0.363442        -9.8898
  77   2.0000      -0.359676        -9.7873
  78   2.0000      -0.350627        -9.5411
  79   2.0000      -0.348310        -9.4780
  80   2.0000      -0.340450        -9.2641
  81   2.0000      -0.337235        -9.1766
  82   2.0000      -0.325651        -8.8614
  83   2.0000      -0.320578        -8.7234
  84   2.0000      -0.307705        -8.3731
  85   2.0000      -0.303212        -8.2508
  86   2.0000      -0.285448        -7.7674
  87   2.0000      -0.275215        -7.4890
  88   2.0000      -0.274468        -7.4687
  89   2.0000      -0.267786        -7.2868
  90   2.0000      -0.261658        -7.1201
  91   2.0000      -0.254775        -6.9328
  92   0.0000      -0.189337        -5.1521
  93   0.0000      -0.102333        -2.7846
  94   0.0000      -0.098769        -2.6876
  95   0.0000      -0.045073        -1.2265
  96   0.0000      -0.026193        -0.7127

MULLIKEN ATOMIC CHARGES
-----------------------
   0 C :   -0.297016
   1 O :   -0.157573
   2 C :    0.246933
   3 O :   -0.426577
   4 C :    0.420701
   5 C :    0.000896
   6 O :   -0.405231
   7 C :    0.250202
   8 C :   -0.473692
   9 O :   -0.290019
  10 N :   -0.038312
  11 C :    0.492858
  12 C :   -0.236047
  13 C :   -0.576303
  14 C :   -0.571462
  15 N :   -0.095518
  16 C :   -0.034776
  17 O :   -0.439385
  18 C :    0.366077
  19 N :   -0.150718
  20 N :   -0.295856
  21 C :    0.410420
  22 C :   -0.635495
  23 O :   -0.022958
  24 N :   -0.181612
  25 H :    0.189317
  26 H :    0.190556
  27 H :    0.192259
  28 H :    0.354713
  29 H :    0.204739
  30 H :    0.212785
  31 H :    0.226544
  32 H :    0.364978
  33 H :    0.207691
  34 H :    0.222089
  35 H :    0.204741
  36 H :    0.201209
  37 H :    0.208889
  38 H :    0.196227
  39 H :    0.351683
  40 H :    0.203556
  41 H :    0.206386
  42 H :    0.202100
Sum of atomic charges:    1.0000000

LOEWDIN ATOMIC CHARGES
----------------------
   0 C :   -0.016448
   1 O :   -0.526053
   2 C :    0.400411
   3 O :   -0.401391
   4 C :    0.359284
   5 C :    0.161702
   6 O :   -0.510610
   7 C :    0.426828
   8 C :   -0.286228
   9 O :   -0.289810
  10 N :   -0.375787
  11 C :    0.459485
  12 C :    0.105270
  13 C :   -0.306405
  14 C :   -0.323188
  15 N :   -0.583360
  16 C :    0.393599
  17 O :   -0.431634
  18 C :    0.415348
  19 N :   -0.353661
  20 N :   -0.352158
  21 C :    0.383677
  22 C :   -0.315762
  23 O :   -0.355045
  24 N :   -0.470475
  25 H :    0.192006
  26 H :    0.195038
  27 H :    0.192308
  28 H :    0.305431
  29 H :    0.191922
  30 H :    0.194228
  31 H :    0.190496
  32 H :    0.329521
  33 H :    0.183589
  34 H :    0.198399
  35 H :    0.183685
  36 H :    0.180455
  37 H :    0.184627
  38 H :    0.185116
  39 H :    0.307109
  40 H :    0.193485
  41 H :    0.192127
  42 H :    0.192869

  Mayer bond orders larger than 0.100000
B(  0-C ,  1-O ) :   0.8128 B(  0-C , 25-H ) :   0.9484 B(  0-C , 26-H ) :   0.9557
B(  0-C , 27-H ) :   0.9448 B(  1-O ,  2-C ) :   1.2205 B(  2-C ,  3-O ) :   1.7437
B(  2-C ,  4-C ) :   0.9870 B(  4-C ,  5-C ) :   0.9116 B(  4-C , 24-N ) :   1.4619
B(  5-C ,  6-O ) :   0.9656 B(  5-C ,  7-C ) :   0.9051 B(  5-C ,  8-C ) :   1.0571
B(  6-O , 28-H ) :   0.8291 B(  7-C ,  9-O ) :   2.1359 B(  7-C , 10-N ) :   0.8128
B(  8-C , 29-H ) :   0.9014 B(  8-C , 30-H ) :   0.9254 B(  8-C , 31-H ) :   0.9326
B( 10-N , 11-C ) :   1.3576 B( 10-N , 32-H ) :   0.8548 B( 11-C , 12-C ) :   0.8266
B( 11-C , 15-N ) :  -0.2127 B( 11-C , 24-N ) :   1.1343 B( 12-C , 13-C ) :   0.8997
B( 12-C , 14-C ) :   0.9215 B( 12-C , 15-N ) :   1.0031 B( 13-C , 33-H ) :   0.9455
B( 13-C , 34-H ) :   0.9344 B( 13-C , 35-H ) :   0.9465 B( 14-C , 36-H ) :   0.9577
B( 14-C , 37-H ) :   0.9514 B( 14-C , 38-H ) :   0.9448 B( 15-N , 16-C ) :   1.0760
B( 15-N , 39-H ) :   0.8506 B( 16-C , 17-O ) :   1.9113 B( 16-C , 18-C ) :   0.8718
B( 18-C , 19-N ) :   1.6580 B( 18-C , 21-C ) :   0.1032 B( 18-C , 23-O ) :   1.1245
B( 19-N , 20-N ) :   1.1853 B( 20-N , 21-C ) :   1.5821 B( 21-C , 22-C ) :   0.8347
B( 21-C , 23-O ) :   1.0773 B( 22-C , 40-H ) :   0.9397 B( 22-C , 41-H ) :   0.9869
B( 22-C , 42-H ) :   0.9422

Dispersion correction           -0.019000168
FINAL SINGLE POINT ENERGY     -1269.047907242179

DIPOLE MOMENT
-------------
                                X             Y             Z
Electronic contribution:      0.40595       8.57494       3.47368
Nuclear contribution   :     -1.90543     -10.07718      -4.30726
                        -----------------------------------------
Total Dipole Moment    :     -1.49948      -1.50224      -0.83357
                        -----------------------------------------
Magnitude (a.u.)       :      2.28035
Magnitude (Debye)      :      5.79619

Rotational constants in cm-1:     0.015708     0.003304     0.002954
Rotational constants in MHz :   470.926614    99.060208    88.562867

                             ****ORCA TERMINATED NORMALLY****
TOTAL RUN TIME: 0 days 0 hours 2 minutes 21 seconds 213 msec
