   * xtb version 6.5.1 (579679a) compiled by 'ehlert@majestix' on 2022-07-11
          program call               : /lustre/hpc/kemi/ree/PhD/git/ReactivityQM/dep/xtb-6.5.1/bin/xtb --gfn 1 /lustre/hpc/kemi/ree/PhD/git/ReactivityQM/calculations/R02/reac01prodN14/conf20/R02_reac01prodN14_conf20_gfn1.xyz --opt --vfukui --chrg 1 --uhf 0 --alpb DMSO

   ID    Z sym.   atoms
    1    6 C      1, 3, 5, 6, 8, 9, 12-15, 17, 19, 22, 23
    2    8 O      2, 4, 7, 10, 18, 24
    3    7 N      11, 16, 20, 21, 25
    4    1 H      26-43

      * Solvation model:               ALPB
        Solvent                        DMSO
        Solvent mass                       7.8130E+01 g/mol
          :  Hamiltonian                  GFN1-xTB          :
 * total energy  :   -83.0150939 Eh     change       -0.1329880E-08 Eh
 * total energy  :   -83.0351111 Eh     change       -0.2001711E-01 Eh
 * total energy  :   -83.0501321 Eh     change       -0.1502103E-01 Eh
 * total energy  :   -83.0540031 Eh     change       -0.3871016E-02 Eh
 * total energy  :   -83.0572286 Eh     change       -0.3225513E-02 Eh
 * total energy  :   -83.0590276 Eh     change       -0.1798999E-02 Eh
 * total energy  :   -83.0610554 Eh     change       -0.2027751E-02 Eh
 * total energy  :   -83.0630317 Eh     change       -0.1976370E-02 Eh
 * total energy  :   -83.0647788 Eh     change       -0.1747105E-02 Eh
 * total energy  :   -83.0664134 Eh     change       -0.1634568E-02 Eh
 * total energy  :   -83.1219467 Eh     change       -0.6804978E-05 Eh
 * total energy  :   -83.1219534 Eh     change       -0.6639425E-05 Eh
 * total energy  :   -83.1219599 Eh     change       -0.6555362E-05 Eh
 * total energy  :   -83.1219663 Eh     change       -0.6358073E-05 Eh
 * total energy  :   -83.1219723 Eh     change       -0.6028737E-05 Eh
 * total energy  :   -83.1219780 Eh     change       -0.5686473E-05 Eh
 * total energy  :   -83.1219833 Eh     change       -0.5308495E-05 Eh
 * total energy  :   -83.1219884 Eh     change       -0.5065764E-05 Eh
 * total energy  :   -83.1219933 Eh     change       -0.4934326E-05 Eh
   *** GEOMETRY OPTIMIZATION CONVERGED AFTER 81 ITERATIONS ***

 final structure:
================
43
 xtb: 6.5.1 (579679a)
C           -4.88581398590485       -2.11060274478215       -2.71468983650666
O           -3.81962949057386       -1.32676112049774       -2.14720744069674
C           -4.10251549660645       -0.60457615800927       -1.09697199183726
O           -5.17869966863529       -0.51921785459050       -0.55945986454357
C           -2.89288043908665        0.14027892370187       -0.55936384747403
C           -3.11624728666653        1.16393668883145        0.51572556013227
O           -4.26445038236283        1.91988933224340        0.37874812022384
C           -1.92378357383244        2.08477180628664        0.66654521564808
C           -3.14718723874808        0.33373732896107        1.84517961720589
O           -1.90206244924550        3.18335845509259        1.11816079729494
N           -0.69564151022242        1.44430308106728        0.29612339751475
C           -0.61218850554523        0.36145563216554       -0.44923026878120
C            0.70428000522159       -0.15329683649012       -0.91263577076585
C            0.89822682752097        0.52337193718626       -2.29239527845878
C            0.69377821142024       -1.68186540497144       -1.05201184095345
N            1.73205345205249        0.27053312400999        0.02596709631516
C            3.06340401284693        0.04294642481776       -0.22714519377580
O            3.52575000150655       -0.24814215215239       -1.30744178062490
C            3.85655973670162        0.21983828202067        1.00513766220510
N            3.37970449333317        0.45402624273355        2.19290372873449
N            4.44014307569475        0.49553334833652        3.03930488776292
C            5.50166831266437        0.27858073693420        2.31714876109602
C            6.90704804318009        0.22120307935137        2.77340596043042
O            5.19465125567386        0.09725254804568        1.02588737682346
N           -1.72097524400312       -0.25607170213469       -0.92938985122801
H           -5.74187348855045       -1.46746155978151       -2.92494062791890
H           -4.48899515358457       -2.54601992400344       -3.62853199346631
H           -5.17494440379446       -2.88875442954041       -2.00649384519434
H           -5.05374230300674        1.35534989372187        0.30815589524859
H           -3.99583208495773       -0.34519894190277        1.80282127535049
H           -3.27819744245068        1.03520590373506        2.66711288349230
H           -2.22646307540258       -0.22777912510436        1.97308143935690
H            0.14851107070203        1.95874079870027        0.52476789178247
H            0.02937311317408        0.33147346844582       -2.91915321789287
H            1.78282288207242        0.10409827324799       -2.76724506330110
H            1.02580277107701        1.59568368697653       -2.16143057528490
H            0.55568884173205       -2.14041047665834       -0.07502442841775
H            1.64435430309465       -2.00539668144437       -1.47227662726555
H           -0.11735479481320       -1.98582471087918       -1.71035657592844
H            1.47533056839263        0.27429303867571        1.00299021028720
H            7.49020024737590        0.99832496922401        2.27889390274758
H            6.94798657392460        0.36290125379101        3.85075691892749
H            7.34213921863739       -0.74370743536094        2.51287732170968

          :  Hamiltonian                  GFN1-xTB          :
         :: total energy             -83.121993287968 Eh    ::
         :: gradient norm              0.000177501335 Eh/a0 ::
         :: HOMO-LUMO gap              0.832537096701 eV    ::
         :: SCC energy               -83.913696170909 Eh    ::
         :: -> Gsolv                  -0.112115379961 Eh    ::
         :: repulsion energy           0.818279951522 Eh    ::

    * Orbital Energies and Occupations

         #    Occupation            Energy/Eh            Energy/eV
      -------------------------------------------------------------
         1        2.0000           -0.9035408             -24.5866
       ...           ...                  ...                  ...
        55        2.0000           -0.5389871             -14.6666
        56        2.0000           -0.5362878             -14.5931
        57        2.0000           -0.5343778             -14.5412
        58        2.0000           -0.5297704             -14.4158
        59        2.0000           -0.5258887             -14.3102
        60        2.0000           -0.5176931             -14.0871
        61        2.0000           -0.5105495             -13.8928
        62        2.0000           -0.4967906             -13.5184
        63        2.0000           -0.4947790             -13.4636
        64        2.0000           -0.4867727             -13.2458
        65        2.0000           -0.4812051             -13.0943
        66        2.0000           -0.4649689             -12.6524
        67        2.0000           -0.4639079             -12.6236 (HOMO)
        68        0.0000           -0.4333127             -11.7910 (LUMO)
        69                         -0.3570281              -9.7152
        70                         -0.3307167              -8.9993
        71                         -0.3135819              -8.5330
        72                         -0.2686138              -7.3094
        73                         -0.2666816              -7.2568
        74                         -0.2172720              -5.9123
        75                         -0.1602349              -4.3602
        76                         -0.1556087              -4.2343
        77                         -0.1541307              -4.1941
        78                         -0.1483452              -4.0367
       ...                                ...                  ...
       136                          0.7174089              19.5217
      -------------------------------------------------------------
                  HL-Gap            0.0305952 Eh            0.8325 eV

Wiberg/Mayer (AO) data.
largest (>0.10) Wiberg bond orders for each atom

     #   Z sym  total        # sym  WBO       # sym  WBO       # sym  WBO
 ---------------------------------------------------------------------------
     1   6 C    3.835 --    27 H    0.984    26 H    0.975    28 H    0.974
                             2 O    0.865
     2   8 O    2.258 --     3 C    1.190     1 C    0.865     4 O    0.157
     3   6 C    3.865 --     4 O    1.666     2 O    1.190     5 C    0.942
     4   8 O    1.980 --     3 C    1.666     2 O    0.157
     5   6 C    3.901 --    25 N    1.634     6 C    0.998     3 C    0.942
     6   6 C    3.943 --     7 O    1.009     5 C    0.998     8 C    0.950
                             9 C    0.857
     7   8 O    1.925 --     6 C    1.009    29 H    0.809
     8   6 C    3.854 --    10 O    1.810    11 N    0.972     6 C    0.950
     9   6 C    3.959 --    32 H    0.985    30 H    0.974    31 H    0.969
                             6 C    0.857
    10   8 O    2.055 --     8 C    1.810
    11   7 N    3.521 --    12 C    1.419     8 C    0.972    33 H    0.853
    12   6 C    3.877 --    11 N    1.419    25 N    1.203    13 C    1.027
    13   6 C    3.933 --    12 C    1.027    15 C    0.963    16 N    0.949
                            14 C    0.913
    14   6 C    3.966 --    36 H    0.984    34 H    0.983    35 H    0.960
                            13 C    0.913
    15   6 C    3.976 --    37 H    0.983    39 H    0.981    38 H    0.978
                            13 C    0.963
    16   7 N    3.278 --    17 C    1.169    13 C    0.949    40 H    0.890
                            18 O    0.153
    17   6 C    3.905 --    18 O    1.642    16 N    1.169    19 C    1.005
    18   8 O    1.949 --    17 C    1.642    16 N    0.153
    19   6 C    3.881 --    20 N    1.594    24 O    1.066    17 C    1.005
    20   7 N    3.025 --    19 C    1.594    21 N    1.216
    21   7 N    2.982 --    22 C    1.587    20 N    1.216
    22   6 C    3.866 --    21 N    1.587    24 O    1.088    23 C    1.033
    23   6 C    3.984 --    22 C    1.033    42 H    0.982    43 H    0.962
                            41 H    0.960
    24   8 O    2.338 --    22 C    1.088    19 C    1.066
    25   7 N    3.057 --     5 C    1.634    12 C    1.203
    26   1 H    1.000 --     1 C    0.975
    27   1 H    1.005 --     1 C    0.984
    28   1 H    0.999 --     1 C    0.974
    29   1 H    0.849 --     7 O    0.809
    30   1 H    0.996 --     9 C    0.974
    31   1 H    0.992 --     9 C    0.969
    32   1 H    0.993 --     9 C    0.985
    33   1 H    0.902 --    11 N    0.853
    34   1 H    0.997 --    14 C    0.983
    35   1 H    1.005 --    14 C    0.960
    36   1 H    0.996 --    14 C    0.984
    37   1 H    0.996 --    15 C    0.983
    38   1 H    0.999 --    15 C    0.978
    39   1 H    1.004 --    15 C    0.981
    40   1 H    0.946 --    16 N    0.890
    41   1 H    0.995 --    23 C    0.960
    42   1 H    0.997 --    23 C    0.982
    43   1 H    0.995 --    23 C    0.962
 ---------------------------------------------------------------------------

           -------------------------------------------------
          | TOTAL ENERGY              -83.121993287968 Eh   |
          | GRADIENT NORM               0.000177501335 Eh/α |
          | HOMO-LUMO GAP               0.832537096701 eV   |
           -------------------------------------------------

 * finished run on 2023/06/20 at 15:37:55.755
