   * xtb version 6.5.1 (579679a) compiled by 'ehlert@majestix' on 2022-07-11
          program call               : /lustre/hpc/kemi/ree/PhD/git/ReactivityQM/dep/xtb-6.5.1/bin/xtb --gfn 1 /lustre/hpc/kemi/ree/PhD/git/ReactivityQM/calculations/R02/reac01prodN01/conf15/R02_reac01prodN01_conf15_gfn1.xyz --opt --vfukui --chrg 1 --uhf 0 --alpb DMSO

   ID    Z sym.   atoms
    1    6 C      1, 3, 5, 7-10, 12, 14, 17, 18, 20, 22, 24
    2    8 O      2, 4, 13, 19, 23, 25
    3    7 N      6, 11, 15, 16, 21
    4    1 H      26-43

      * Solvation model:               ALPB
        Solvent                        DMSO
        Solvent mass                       7.8130E+01 g/mol
          :  Hamiltonian                  GFN1-xTB          :
 * total energy  :   -83.0812070 Eh     change       -0.2312106E-10 Eh
 * total energy  :   -83.1005102 Eh     change       -0.1930324E-01 Eh
 * total energy  :   -83.1099188 Eh     change       -0.9408609E-02 Eh
 * total energy  :   -83.1129138 Eh     change       -0.2995009E-02 Eh
 * total energy  :   -83.1147659 Eh     change       -0.1852076E-02 Eh
 * total energy  :   -83.1155738 Eh     change       -0.8079532E-03 Eh
 * total energy  :   -83.1160333 Eh     change       -0.4594918E-03 Eh
 * total energy  :   -83.1163167 Eh     change       -0.2833482E-03 Eh
 * total energy  :   -83.1164696 Eh     change       -0.1529393E-03 Eh
 * total energy  :   -83.1165710 Eh     change       -0.1013950E-03 Eh
 * total energy  :   -83.1177419 Eh     change       -0.7896745E-04 Eh
 * total energy  :   -83.1178387 Eh     change       -0.9680645E-04 Eh
 * total energy  :   -83.1179263 Eh     change       -0.8762058E-04 Eh
 * total energy  :   -83.1179804 Eh     change       -0.5407816E-04 Eh
 * total energy  :   -83.1179796 Eh     change        0.8262602E-06 Eh
 * total energy  :   -83.1180302 Eh     change       -0.5060079E-04 Eh
 * total energy  :   -83.1180498 Eh     change       -0.1959877E-04 Eh
 * total energy  :   -83.1180638 Eh     change       -0.1401956E-04 Eh
 * total energy  :   -83.1180684 Eh     change       -0.4655380E-05 Eh
   *** GEOMETRY OPTIMIZATION CONVERGED AFTER 38 ITERATIONS ***

 final structure:
================
43
 xtb: 6.5.1 (579679a)
C            6.89217497789292        1.23669831861648        0.77286833539146
O            5.67420890370851        0.98680485920134        0.06320726308253
C            4.68322352365088        0.43795732502012        0.76029498723546
O            4.77457411428270        0.14977901160450        1.93195874039496
C            3.44528989223882        0.21361485723857       -0.04518058464003
N            2.42161765921224       -0.35859721138650        0.67391373173035
C            1.29548734754319       -0.61995125184360        0.10798393291001
C            0.20751045714552       -1.30397665080115        0.91940253745125
C           -0.08190488314189       -2.69913796527681        0.35320008205328
C            0.64727847940311       -1.40718497451692        2.38062255678691
N           -1.02320099746003       -0.48229864608501        0.90957508607670
C           -1.88267363403540       -0.38347107857885       -0.10420975548818
O           -1.76011343980882       -0.84195560293722       -1.22768627377875
C           -3.08900225037202        0.41145364760043        0.27527738053055
N           -3.34407507893969        1.03269658303373        1.36356549786075
N           -4.57065612808298        1.62421342747286        1.25649004871234
C           -5.06108246162226        1.36111446693769        0.10502043739579
C           -6.35180975410857        1.76489029026574       -0.47248459136587
O           -4.15500744642524        0.56949103125997       -0.61021362712816
C           -4.26911327910826        0.00526757894235       -1.95839649229219
N            1.06285730965095       -0.35103647019253       -1.20984368934123
C            1.99541456724051        0.24142236995497       -2.02395340661254
O            1.78026085061318        0.51044858130880       -3.19608480315909
C            3.27366340188016        0.51960392773379       -1.36742354000349
O            4.20662940286450        1.07386792200600       -2.14627787742023
H            7.30164255735325        0.29933518795278        1.15705575732675
H            6.70627170331550        1.91853011458357        1.60603356835341
H            7.58002168629482        1.68756576506633        0.06032606298969
H            0.80462113059349       -3.32070019579694        0.47257291765588
H           -0.33786693626112       -2.65329239384003       -0.70200114100246
H           -0.90939267312706       -3.14857389901244        0.89869309897852
H            1.55634086523263       -2.00350489102984        2.44406840715733
H            0.85216383498193       -0.41705756304997        2.78515830598645
H           -0.13456396849864       -1.88393149977995        2.96793816097385
H           -1.27782504285726       -0.04288678582759        1.78211696198527
H           -6.87014294022784        2.39911923460611        0.24499396892372
H           -6.20019397405561        2.31293564002647       -1.40264358264199
H           -6.96232665954471        0.88740747693330       -0.68895839043094
H           -5.25420668465033        0.27403515142070       -2.32563131421029
H           -4.15082763206942       -1.07232410161561       -1.86835435570656
H           -3.47640436753868        0.44246587937711       -2.56089194078890
H            0.16225270034171       -0.56571280280148       -1.62082405305415
H            3.83888486649856        1.19487533620584       -3.04147840887920

          :  Hamiltonian                  GFN1-xTB          :
         :: total energy             -83.118068447559 Eh    ::
         :: gradient norm              0.000803079543 Eh/a0 ::
         :: HOMO-LUMO gap              1.874447735826 eV    ::
         :: SCC energy               -83.921649282498 Eh    ::
         :: -> Gsolv                  -0.127588366399 Eh    ::
         :: repulsion energy           0.829984324641 Eh    ::

    * Orbital Energies and Occupations

         #    Occupation            Energy/Eh            Energy/eV
      -------------------------------------------------------------
         1        2.0000           -0.9706418             -26.4125
       ...           ...                  ...                  ...
        55        2.0000           -0.5231856             -14.2366
        56        2.0000           -0.5199086             -14.1474
        57        2.0000           -0.5173306             -14.0773
        58        2.0000           -0.5168032             -14.0629
        59        2.0000           -0.5117918             -13.9266
        60        2.0000           -0.4999393             -13.6040
        61        2.0000           -0.4986996             -13.5703
        62        2.0000           -0.4930695             -13.4171
        63        2.0000           -0.4897198             -13.3260
        64        2.0000           -0.4894705             -13.3192
        65        2.0000           -0.4647508             -12.6465
        66        2.0000           -0.4563901             -12.4190
        67        2.0000           -0.4385358             -11.9332 (HOMO)
        68                         -0.3696512             -10.0587 (LUMO)
        69                         -0.3290262              -8.9533
        70                         -0.3166711              -8.6171
        71                         -0.2927581              -7.9664
        72                         -0.2514079              -6.8412
        73                         -0.2447086              -6.6589
        74                         -0.1906740              -5.1885
        75                         -0.1763725              -4.7993
        76                         -0.1642931              -4.4706
        77                         -0.1426375              -3.8814
        78                         -0.1400239              -3.8102
       ...                                ...                  ...
       136                          0.7280536              19.8113
      -------------------------------------------------------------
                  HL-Gap            0.0688847 Eh            1.8744 eV

Wiberg/Mayer (AO) data.
largest (>0.10) Wiberg bond orders for each atom

     #   Z sym  total        # sym  WBO       # sym  WBO       # sym  WBO
 ---------------------------------------------------------------------------
     1   6 C    3.870 --    28 H    0.986    27 H    0.980    26 H    0.979
                             2 O    0.895
     2   8 O    2.206 --     3 C    1.119     1 C    0.895     4 O    0.135
     3   6 C    3.853 --     4 O    1.657     2 O    1.119     5 C    0.997
     4   8 O    1.919 --     3 C    1.657     2 O    0.135
     5   6 C    3.961 --    24 C    1.507     6 N    1.171     3 C    0.997
     6   7 N    3.030 --     7 C    1.601     5 C    1.171
     7   6 C    3.936 --     6 N    1.601    21 N    1.172     8 C    0.970
     8   6 C    3.916 --    10 C    1.001     9 C    0.982     7 C    0.970
                            11 N    0.897
     9   6 C    3.985 --    31 H    0.983    29 H    0.983     8 C    0.982
                            30 H    0.979
    10   6 C    3.988 --     8 C    1.001    34 H    0.984    33 H    0.982
                            32 H    0.980
    11   7 N    3.390 --    12 C    1.316     8 C    0.897    35 H    0.887
                            13 O    0.192
    12   6 C    3.927 --    13 O    1.561    11 N    1.316    14 C    0.974
    13   8 O    1.946 --    12 C    1.561    11 N    0.192
    14   6 C    3.805 --    15 N    1.702    12 C    0.974    19 O    0.889
    15   7 N    3.045 --    14 C    1.702    16 N    1.150
    16   7 N    3.023 --    17 C    1.692    15 N    1.150
    17   6 C    3.801 --    16 N    1.692    18 C    1.044    19 O    0.878
    18   6 C    3.968 --    17 C    1.044    36 H    0.969    37 H    0.951
                            38 H    0.948
    19   8 O    2.656 --    14 C    0.889    17 C    0.878    20 C    0.742
    20   6 C    3.718 --    39 H    0.974    41 H    0.967    40 H    0.967
                            19 O    0.742
    21   7 N    3.470 --     7 C    1.172    22 C    1.144    42 H    0.856
                            23 O    0.135
    22   6 C    3.911 --    23 O    1.579    21 N    1.144    24 C    1.058
    23   8 O    1.903 --    22 C    1.579    21 N    0.135
    24   6 C    3.920 --     5 C    1.507    25 O    1.113    22 C    1.058
    25   8 O    2.091 --    24 C    1.113    43 H    0.804
    26   1 H    1.007 --     1 C    0.979
    27   1 H    1.007 --     1 C    0.980
    28   1 H    1.010 --     1 C    0.986
    29   1 H    0.999 --     9 C    0.983
    30   1 H    1.005 --     9 C    0.979
    31   1 H    0.997 --     9 C    0.983
    32   1 H    1.006 --    10 C    0.980
    33   1 H    1.003 --    10 C    0.982
    34   1 H    0.997 --    10 C    0.984
    35   1 H    0.934 --    11 N    0.887
    36   1 H    0.989 --    18 C    0.969
    37   1 H    0.988 --    18 C    0.951
    38   1 H    0.987 --    18 C    0.948
    39   1 H    0.990 --    20 C    0.974
    40   1 H    0.997 --    20 C    0.967
    41   1 H    0.998 --    20 C    0.967
    42   1 H    0.927 --    21 N    0.856
    43   1 H    0.844 --    25 O    0.804
 ---------------------------------------------------------------------------

           -------------------------------------------------
          | TOTAL ENERGY              -83.118068447559 Eh   |
          | GRADIENT NORM               0.000803079543 Eh/α |
          | HOMO-LUMO GAP               1.874447735826 eV   |
           -------------------------------------------------

 * finished run on 2023/06/20 at 15:18:25.730
