   * xtb version 6.5.1 (579679a) compiled by 'ehlert@majestix' on 2022-07-11
          program call               : /lustre/hpc/kemi/ree/PhD/git/ReactivityQM/dep/xtb-6.5.1/bin/xtb --gfn 1 /lustre/hpc/kemi/ree/PhD/git/ReactivityQM/calculations/R02methylcation/reac01prodN13/conf09/R02methylcation_reac01prodN13_conf09_gfn1.xyz --opt --vfukui --chrg 0 --uhf 0 --alpb DMSO

   ID    Z sym.   atoms
    1    6 C      1, 3, 5, 7-10, 12, 14, 17-19, 22, 24
    2    8 O      2, 4, 13, 20, 23, 25
    3    7 N      6, 11, 15, 16, 21
    4    1 H      26-42

      * Solvation model:               ALPB
        Solvent                        DMSO
        Solvent mass                       7.8130E+01 g/mol
          :  Hamiltonian                  GFN1-xTB          :
 * total energy  :   -82.9214774 Eh     change       -0.8526513E-12 Eh
 * total energy  :   -82.9324133 Eh     change       -0.1093593E-01 Eh
 * total energy  :   -82.9368786 Eh     change       -0.4465287E-02 Eh
 * total energy  :   -82.9375894 Eh     change       -0.7108389E-03 Eh
 * total energy  :   -82.9380006 Eh     change       -0.4111363E-03 Eh
 * total energy  :   -82.9381935 Eh     change       -0.1929114E-03 Eh
 * total energy  :   -82.9383649 Eh     change       -0.1714057E-03 Eh
 * total energy  :   -82.9385040 Eh     change       -0.1390907E-03 Eh
 * total energy  :   -82.9386179 Eh     change       -0.1139097E-03 Eh
 * total energy  :   -82.9387065 Eh     change       -0.8865358E-04 Eh
 * total energy  :   -82.9394580 Eh     change       -0.2110864E-04 Eh
 * total energy  :   -82.9394719 Eh     change       -0.1387222E-04 Eh
 * total energy  :   -82.9394772 Eh     change       -0.5301834E-05 Eh
 * total energy  :   -82.9394828 Eh     change       -0.5680498E-05 Eh
 * total energy  :   -82.9394891 Eh     change       -0.6284506E-05 Eh
 * total energy  :   -82.9394962 Eh     change       -0.7100319E-05 Eh
 * total energy  :   -82.9395027 Eh     change       -0.6514395E-05 Eh
 * total energy  :   -82.9395079 Eh     change       -0.5163229E-05 Eh
 * total energy  :   -82.9395123 Eh     change       -0.4410221E-05 Eh
   *** GEOMETRY OPTIMIZATION CONVERGED AFTER 35 ITERATIONS ***

 final structure:
================
42
 xtb: 6.5.1 (579679a)
C           -6.64881679561982        1.99951298160420       -0.61524287209561
O           -5.59013584667224        1.06212731678387       -0.81465505895990
C           -4.57255556169695        1.12662157986643        0.04499108000774
O           -4.52651482918689        1.93569009252548        0.94972375094132
C           -3.50699709431136        0.12109359209580       -0.20228794399190
N           -2.48783275531574        0.19744146168741        0.67743060465579
C           -1.47494884106249       -0.62023456334660        0.61160846044555
C           -0.36717523453783       -0.50165240378300        1.64451630925437
C           -0.13813154089083       -1.82906868260373        2.37495842234825
C           -0.71985037336586        0.59649841291804        2.64847775277801
N            0.85876257209939       -0.06812891162428        0.95215205253031
C            1.63353835967460       -0.84283680169959        0.16785278558686
O            1.42389650172060       -2.00758482761588       -0.13030499806407
C            2.81297259189419       -0.09061369076610       -0.32723453153461
N            3.03402986879397        1.21582906691100       -0.09727276812374
N            4.13439564371484        1.55072977497333       -0.66434413707500
C            4.69683749950153        0.39568060959129       -1.31865368307623
C            6.05370817656258        0.04181607041033       -0.70460896540096
C            4.78253045924959        0.62741570667791       -2.82984729934780
O            3.75644882939741       -0.64405144605047       -1.04520537848564
N           -1.38119513157548       -1.56589741826031       -0.35313127340774
C           -2.32694173862174       -1.75841448347375       -1.34450790083983
O           -2.16595496401466       -2.61952760006164       -2.18691737302690
C           -3.53177711431500       -0.84004431197413       -1.27573594214164
O           -4.42351147827727       -0.95418732910103       -2.11365223885757
H           -7.09346785951026        1.86110088815616        0.37368681418817
H           -7.38768866559522        1.80743801408096       -1.39106367200132
H           -6.26923670621689        3.02113891361308       -0.69761968067542
H           -1.02296670307725       -2.06732215283640        2.96327044988996
H            0.71633640501499       -1.73109712924116        3.04191526735792
H            0.05049284158869       -2.64355417875277        1.67972122790277
H           -0.86494373738492        1.54644583657064        2.13618431232517
H           -1.64329678966900        0.33598978996327        3.16323048189625
H            0.07962173600820        0.69867375012714        3.37908137878016
H            1.15084682608985        0.88590730000222        1.10412401092188
H            6.43039430902559       -0.86719067587416       -1.16743774799233
H            5.93490190530869       -0.11571988129829        0.36505616909280
H            6.74810502822294        0.85962348784196       -0.87909769824064
H            3.79255909411065        0.86181904085676       -3.21565174728400
H            5.45750260880546        1.45663737651883       -3.02518024411064
H            5.15710323239508       -0.27398632632539       -3.30892318302275
H           -0.56104372826297       -2.16411424909434       -0.38548699315257

          :  Hamiltonian                  GFN1-xTB          :
         :: total energy             -82.939512318202 Eh    ::
         :: gradient norm              0.000491316495 Eh/a0 ::
         :: HOMO-LUMO gap              0.059582005952 eV    ::
         :: SCC energy               -83.704020009283 Eh    ::
         :: -> Gsolv                  -0.065372212011 Eh    ::
         :: repulsion energy           0.790078467103 Eh    ::

    * Orbital Energies and Occupations

         #    Occupation            Energy/Eh            Energy/eV
      -------------------------------------------------------------
         1        2.0000           -0.8809227             -23.9711
       ...           ...                  ...                  ...
        55        2.0000           -0.5173511             -14.0778
        56        2.0000           -0.5115383             -13.9197
        57        2.0000           -0.5092650             -13.8578
        58        2.0000           -0.5034883             -13.7006
        59        2.0000           -0.4918099             -13.3828
        60        2.0000           -0.4859927             -13.2245
        61        2.0000           -0.4831615             -13.1475
        62        2.0000           -0.4772580             -12.9869
        63        2.0000           -0.4740499             -12.8996
        64        2.0000           -0.4693057             -12.7705
        65        2.0000           -0.4580972             -12.4655
        66        2.0000           -0.4235839             -11.5263
        67        1.5199           -0.4080334             -11.1032 (HOMO)
        68        0.4801           -0.4058438             -11.0436 (LUMO)
        69                         -0.3255768              -8.8594
        70                         -0.3097002              -8.4274
        71                         -0.2853321              -7.7643
        72                         -0.2351947              -6.4000
        73                         -0.2250103              -6.1228
        74                         -0.1574074              -4.2833
        75                         -0.1437507              -3.9117
        76                         -0.1382599              -3.7622
        77                         -0.1348439              -3.6693
        78                         -0.1344361              -3.6582
       ...                                ...                  ...
       134                          0.7470045              20.3270
      -------------------------------------------------------------
                  HL-Gap            0.0021896 Eh            0.0596 eV

Wiberg/Mayer (AO) data.
largest (>0.10) Wiberg bond orders for each atom

     #   Z sym  total        # sym  WBO       # sym  WBO       # sym  WBO
 ---------------------------------------------------------------------------
     1   6 C    3.875 --    27 H    0.986    28 H    0.979    26 H    0.979
                             2 O    0.902
     2   8 O    2.194 --     3 C    1.109     1 C    0.902     4 O    0.132
     3   6 C    3.841 --     4 O    1.633     2 O    1.109     5 C    1.022
     4   8 O    1.878 --     3 C    1.633     2 O    0.132
     5   6 C    3.716 --     6 N    1.303    24 C    1.160     3 C    1.022
     6   7 N    2.984 --     7 C    1.467     5 C    1.303
     7   6 C    3.794 --     6 N    1.467    21 N    1.210     8 C    0.968
     8   6 C    3.924 --    10 C    1.001     9 C    0.985     7 C    0.968
                            11 N    0.907
     9   6 C    3.981 --     8 C    0.985    29 H    0.983    30 H    0.983
                            31 H    0.978
    10   6 C    3.989 --     8 C    1.001    34 H    0.985    32 H    0.982
                            33 H    0.981
    11   7 N    3.335 --    12 C    1.259     8 C    0.907    35 H    0.888
                            13 O    0.187
    12   6 C    3.910 --    13 O    1.568    11 N    1.259    14 C    0.994
    13   8 O    1.908 --    12 C    1.568    11 N    0.187
    14   6 C    3.643 --    15 N    1.307    20 O    1.192    12 C    0.994
    15   7 N    3.015 --    16 N    1.541    14 C    1.307
    16   7 N    2.686 --    15 N    1.541    17 C    1.021
    17   6 C    3.836 --    16 N    1.021    18 C    0.939    19 C    0.938
                            20 O    0.878
    18   6 C    3.936 --    37 H    0.982    38 H    0.982    36 H    0.980
                            17 C    0.939
    19   6 C    3.936 --    39 H    0.982    40 H    0.982    41 H    0.980
                            17 C    0.938
    20   8 O    2.211 --    14 C    1.192    17 C    0.878
    21   7 N    3.432 --     7 C    1.210    22 C    1.111    42 H    0.856
                            23 O    0.110
    22   6 C    3.841 --    23 O    1.652    21 N    1.111    24 C    0.948
    23   8 O    1.870 --    22 C    1.652    21 N    0.110
    24   6 C    3.864 --    25 O    1.616     5 C    1.160    22 C    0.948
    25   8 O    1.792 --    24 C    1.616
    26   1 H    1.007 --     1 C    0.979
    27   1 H    1.011 --     1 C    0.986
    28   1 H    1.007 --     1 C    0.979
    29   1 H    0.999 --     9 C    0.983
    30   1 H    0.998 --     9 C    0.983
    31   1 H    1.007 --     9 C    0.978
    32   1 H    1.006 --    10 C    0.982
    33   1 H    1.005 --    10 C    0.981
    34   1 H    0.998 --    10 C    0.985
    35   1 H    0.944 --    11 N    0.888
    36   1 H    0.996 --    18 C    0.980
    37   1 H    0.996 --    18 C    0.982
    38   1 H    0.997 --    18 C    0.982
    39   1 H    0.996 --    19 C    0.982
    40   1 H    0.997 --    19 C    0.982
    41   1 H    0.996 --    19 C    0.980
    42   1 H    0.933 --    21 N    0.856
 ---------------------------------------------------------------------------

           -------------------------------------------------
          | TOTAL ENERGY              -82.939512318202 Eh   |
          | GRADIENT NORM               0.000491316495 Eh/α |
          | HOMO-LUMO GAP               0.059582005952 eV   |
           -------------------------------------------------

 * finished run on 2023/06/21 at 17:46:54.714
