   * xtb version 6.5.1 (579679a) compiled by 'ehlert@majestix' on 2022-07-11
          program call               : /lustre/hpc/kemi/ree/PhD/git/ReactivityQM/dep/xtb-6.5.1/bin/xtb --gfn 1 /lustre/hpc/kemi/ree/PhD/git/ReactivityQM/calculations/R02methylcation/reac01prodE05/conf20/R02methylcation_reac01prodE05_conf20_gfn1.xyz --opt --vfukui --chrg -2 --uhf 0 --alpb DMSO

   ID    Z sym.   atoms
    1    6 C      1, 3, 5, 6, 8, 11-14, 16, 18, 21, 22, 25
    2    8 O      2, 4, 7, 9, 17, 23
    3    7 N      10, 15, 19, 20, 24
    4    1 H      26-42

      * Solvation model:               ALPB
        Solvent                        DMSO
        Solvent mass                       7.8130E+01 g/mol
          :  Hamiltonian                  GFN1-xTB          :
 * total energy  :   -83.5605277 Eh     change       -0.2623750E-09 Eh
 * total energy  :   -83.5725477 Eh     change       -0.1201998E-01 Eh
 * total energy  :   -83.5771148 Eh     change       -0.4567107E-02 Eh
 * total energy  :   -83.5782935 Eh     change       -0.1178756E-02 Eh
 * total energy  :   -83.5797810 Eh     change       -0.1487455E-02 Eh
 * total energy  :   -83.5809844 Eh     change       -0.1203430E-02 Eh
 * total energy  :   -83.5821271 Eh     change       -0.1142706E-02 Eh
 * total energy  :   -83.5830086 Eh     change       -0.8815003E-03 Eh
 * total energy  :   -83.5836084 Eh     change       -0.5997797E-03 Eh
 * total energy  :   -83.5840298 Eh     change       -0.4214363E-03 Eh
 * total energy  :   -83.5919384 Eh     change       -0.8433574E-05 Eh
 * total energy  :   -83.5919472 Eh     change       -0.8861933E-05 Eh
 * total energy  :   -83.5919566 Eh     change       -0.9340119E-05 Eh
 * total energy  :   -83.5919664 Eh     change       -0.9806892E-05 Eh
 * total energy  :   -83.5919762 Eh     change       -0.9794318E-05 Eh
 * total energy  :   -83.5919855 Eh     change       -0.9353243E-05 Eh
 * total energy  :   -83.5919936 Eh     change       -0.8075280E-05 Eh
 * total energy  :   -83.5920001 Eh     change       -0.6513446E-05 Eh
 * total energy  :   -83.5920051 Eh     change       -0.4959241E-05 Eh
   *** GEOMETRY OPTIMIZATION CONVERGED AFTER 206 ITERATIONS ***

 final structure:
================
42
 xtb: 6.5.1 (579679a)
C           -3.20899711274684        3.69687469063959       -0.37388743827083
O           -2.67113702777470        2.49064519536461       -0.87784655862629
C           -2.42540184875515        1.51454201685929        0.06894984061255
O           -2.67750722530230        1.75908655344483        1.25877958513568
C           -1.90819245474453        0.28877214502518       -0.43971474850526
C           -1.56810827756442        0.03463030929176       -1.78551823253514
O           -1.69058839549590        0.83820666331043       -2.74067571670449
C           -0.92643794703786       -1.31168581195779       -2.06264738296183
O           -0.76380556209751       -1.77170216090985       -3.21401025345740
N           -0.44991059793840       -1.97504612410734       -0.98840775973176
C           -0.78496582056741       -1.76498273887634        0.35366328729556
C            0.39809962434484       -1.81774102776430        1.31797075088700
C            0.00895960416345       -1.21603361253444        2.67349461984874
C            0.86418025366316       -3.26482535049493        1.53590703152266
N            1.51426489917436       -0.99533230037314        0.80781495294021
C            2.24257688760906       -1.27777372173611       -0.31783548871979
O            2.40306068330630       -2.42777123025838       -0.78903638677992
C            2.89875006354012       -0.12137763773659       -0.89066398969170
N            3.69656746504185       -0.09250422366804       -1.94568019929954
N            4.13042914018391        1.20093747504245       -2.07380327256639
C            3.59501450233848        1.88052567615913       -1.11473945797713
C            3.78835332949726        3.32159088545566       -0.82186663546686
O            2.79772081419345        1.12675886495469       -0.32291263769751
N           -1.74675086197632       -0.73076645732377        0.58170909376646
C           -3.04357490673253       -1.29164227568326        1.01465393555414
H           -3.35903591044056        4.36615779107576       -1.22204166212951
H           -4.16937746087332        3.52499127596232        0.12600586925011
H           -2.52710112797575        4.16761333763698        0.34401375406178
H            0.09625337861757       -2.80635128902906       -1.18551255475606
H           -0.78040452015123       -1.81045225608111        3.13117170165089
H           -0.35582584361370       -0.19520164672010        2.54924396769790
H            0.87007670561809       -1.20673734085753        3.34112043873467
H            1.76054729769318       -3.28852107944576        2.15591843189188
H            1.07937291453022       -3.76278435605359        0.59255359376291
H            0.07126185537208       -3.81491334727757        2.04153018671367
H            1.42527315967727       -0.01195991852634        1.02794462565172
H            4.53345535452951        3.73038183708337       -1.49987682938020
H            2.85428620707410        3.87107832614848       -0.94223687461424
H            4.12618985591979        3.45312959639615        0.20543558823045
H           -3.63662509959983       -0.51502312019022        1.50045006553031
H           -2.85046821206790       -2.09210400981462        1.72881274221957
H           -3.61047878264307       -1.70269060240795        0.16828501690953

          :  Hamiltonian                  GFN1-xTB          :
         :: total energy             -83.592005061278 Eh    ::
         :: gradient norm              0.000159469172 Eh/a0 ::
         :: HOMO-LUMO gap              0.449411400213 eV    ::
         :: SCC energy               -84.312062865366 Eh    ::
         :: -> Gsolv                  -0.283257608749 Eh    ::
         :: repulsion energy           0.748184609038 Eh    ::

    * Orbital Energies and Occupations

         #    Occupation            Energy/Eh            Energy/eV
      -------------------------------------------------------------
         1        2.0000           -0.8134294             -22.1345
       ...           ...                  ...                  ...
        56        2.0000           -0.4391507             -11.9499
        57        2.0000           -0.4344338             -11.8215
        58        2.0000           -0.4199277             -11.4268
        59        2.0000           -0.4125312             -11.2255
        60        2.0000           -0.4103165             -11.1653
        61        2.0000           -0.4064955             -11.0613
        62        2.0000           -0.4027635             -10.9598
        63        2.0000           -0.3995190             -10.8715
        64        2.0000           -0.3886337             -10.5753
        65        2.0000           -0.3697598             -10.0617
        66        2.0000           -0.3474302              -9.4541
        67        2.0000           -0.3271537              -8.9023
        68        1.9997           -0.2793024              -7.6002 (HOMO)
        69        0.0003           -0.2627868              -7.1508 (LUMO)
        70                         -0.2304103              -6.2698
        71                         -0.2168466              -5.9007
        72                         -0.1637197              -4.4550
        73                         -0.1434905              -3.9046
        74                         -0.1270129              -3.4562
        75                         -0.1090977              -2.9687
        76                         -0.1044606              -2.8425
        77                         -0.0959412              -2.6107
        78                         -0.0933866              -2.5412
        79                         -0.0797370              -2.1698
       ...                                ...                  ...
       134                          0.7480038              20.3542
      -------------------------------------------------------------
                  HL-Gap            0.0165156 Eh            0.4494 eV

Wiberg/Mayer (AO) data.
largest (>0.10) Wiberg bond orders for each atom

     #   Z sym  total        # sym  WBO       # sym  WBO       # sym  WBO
 ---------------------------------------------------------------------------
     1   6 C    3.914 --    26 H    0.987    27 H    0.980    28 H    0.980
                             2 O    0.943
     2   8 O    2.115 --     3 C    0.989     1 C    0.943
     3   6 C    3.847 --     4 O    1.495     5 C    1.236     2 O    0.989
     4   8 O    1.807 --     3 C    1.495
     5   6 C    3.882 --     6 C    1.313     3 C    1.236    24 N    0.970
                             7 O    0.130
     6   6 C    3.940 --     7 O    1.483     5 C    1.313     8 C    0.960
     7   8 O    1.787 --     6 C    1.483     5 C    0.130
     8   6 C    3.900 --     9 O    1.471    10 N    1.241     6 C    0.960
     9   8 O    1.769 --     8 C    1.471    10 N    0.143
    10   7 N    3.444 --     8 C    1.241    11 C    1.046    29 H    0.902
                             9 O    0.143
    11   6 C    3.544 --    10 N    1.046    24 N    0.996    12 C    0.959
    12   6 C    3.933 --    13 C    1.000    14 C    0.994    11 C    0.959
                            15 N    0.904
    13   6 C    3.996 --    12 C    1.000    32 H    0.988    30 H    0.985
                            31 H    0.981
    14   6 C    3.995 --    12 C    0.994    35 H    0.987    33 H    0.987
                            34 H    0.978
    15   7 N    3.304 --    16 C    1.179    36 H    0.919    12 C    0.904
                            17 O    0.136
    16   6 C    3.923 --    17 O    1.425    15 N    1.179    18 C    1.099
    17   8 O    1.781 --    16 C    1.425    15 N    0.136
    18   6 C    3.846 --    19 N    1.474    16 C    1.099    23 O    0.991
    19   7 N    2.836 --    18 C    1.474    20 N    1.179
    20   7 N    2.980 --    21 C    1.636    19 N    1.179
    21   6 C    3.838 --    20 N    1.636    23 O    1.049    22 C    1.025
    22   6 C    3.993 --    21 C    1.025    37 H    0.985    39 H    0.972
                            38 H    0.969
    23   8 O    2.255 --    21 C    1.049    18 C    0.991
    24   7 N    3.112 --    11 C    0.996     5 C    0.970    25 C    0.952
    25   6 C    3.962 --    41 H    0.987    40 H    0.986    42 H    0.983
                            24 N    0.952
    26   1 H    1.019 --     1 C    0.987
    27   1 H    1.019 --     1 C    0.980
    28   1 H    1.019 --     1 C    0.980
    29   1 H    0.978 --    10 N    0.902
    30   1 H    1.010 --    13 C    0.985
    31   1 H    1.022 --    13 C    0.981
    32   1 H    1.007 --    13 C    0.988
    33   1 H    1.008 --    14 C    0.987
    34   1 H    1.026 --    14 C    0.978
    35   1 H    1.015 --    14 C    0.987
    36   1 H    0.964 --    15 N    0.919
    37   1 H    1.004 --    22 C    0.985
    38   1 H    1.000 --    22 C    0.969
    39   1 H    1.001 --    22 C    0.972
    40   1 H    1.029 --    25 C    0.986
    41   1 H    1.029 --    25 C    0.987
    42   1 H    1.012 --    25 C    0.983
 ---------------------------------------------------------------------------

           -------------------------------------------------
          | TOTAL ENERGY              -83.592005061278 Eh   |
          | GRADIENT NORM               0.000159469172 Eh/α |
          | HOMO-LUMO GAP               0.449411400213 eV   |
           -------------------------------------------------

 * finished run on 2023/06/21 at 17:12:38.044
