   * xtb version 6.5.1 (579679a) compiled by 'ehlert@majestix' on 2022-07-11
          program call               : /lustre/hpc/kemi/ree/PhD/git/ReactivityQM/dep/xtb-6.5.1/bin/xtb --gfn 1 /lustre/hpc/kemi/ree/PhD/git/ReactivityQM/calculations/RaltegravirCLI/reac02prodE08/conf04/RaltegravirCLI_reac02prodE08_conf04_gfn1.xyz --opt --vfukui --chrg -1 --uhf 0 --alpb DMSO

   ID    Z sym.   atoms
    1    6 C      1-5, 7, 9, 11-14, 17, 18, 20, 22-24
    2    7 N      6, 10, 15, 16
    3    8 O      8, 19, 21
    4    9 F      25
    5    1 H      26-47

      * Solvation model:               ALPB
        Solvent                        DMSO
        Solvent mass                       7.8130E+01 g/mol
          :  Hamiltonian                  GFN1-xTB          :
 * total energy  :   -80.1737224 Eh     change       -0.3454375E-09 Eh
 * total energy  :   -80.1828322 Eh     change       -0.9109892E-02 Eh
 * total energy  :   -80.1853376 Eh     change       -0.2505316E-02 Eh
 * total energy  :   -80.1857859 Eh     change       -0.4483652E-03 Eh
 * total energy  :   -80.1861323 Eh     change       -0.3463759E-03 Eh
 * total energy  :   -80.1863262 Eh     change       -0.1938991E-03 Eh
 * total energy  :   -80.1865238 Eh     change       -0.1976176E-03 Eh
 * total energy  :   -80.1866814 Eh     change       -0.1575305E-03 Eh
 * total energy  :   -80.1867673 Eh     change       -0.8598773E-04 Eh
 * total energy  :   -80.1868251 Eh     change       -0.5772875E-04 Eh
 * total energy  :   -80.1869508 Eh     change       -0.1514560E-04 Eh
 * total energy  :   -80.1869609 Eh     change       -0.1010168E-04 Eh
 * total energy  :   -80.1869665 Eh     change       -0.5593278E-05 Eh
 * total energy  :   -80.1869761 Eh     change       -0.9635468E-05 Eh
 * total energy  :   -80.1869873 Eh     change       -0.1120304E-04 Eh
 * total energy  :   -80.1869995 Eh     change       -0.1219405E-04 Eh
 * total energy  :   -80.1870094 Eh     change       -0.9836844E-05 Eh
 * total energy  :   -80.1870168 Eh     change       -0.7434434E-05 Eh
 * total energy  :   -80.1870203 Eh     change       -0.3529284E-05 Eh
   *** GEOMETRY OPTIMIZATION CONVERGED AFTER 22 ITERATIONS ***

 final structure:
================
47
 xtb: 6.5.1 (579679a)
C           -5.83085399065181        1.64259881520987        0.34072816666301
C           -5.74748101588025        0.09941585113478        0.52801480563426
C           -4.78954578732117       -0.52558592724244       -0.46370129693989
C           -3.59294981192974       -1.07990702309961       -0.09975470146919
C           -2.67371072974837       -1.62739503052949       -1.17916002251790
N           -1.46140668022507       -0.82077169610478       -1.30034934580146
C           -0.29304306472331       -1.20086766151512       -0.73770967180113
O           -0.14584568668346       -2.30269228203044       -0.20062467632690
C            0.82841216348397       -0.22592649776162       -0.81873771970868
N            1.92321879842445       -0.57772275292877       -0.07170001774612
C            2.98752284856407        0.15238921771214       -0.01561561474749
C            4.12963309342623       -0.39933439226799        0.83185735432559
C            5.12477804785707       -1.12599133581489       -0.08559659524735
C            3.55989737613649       -1.40207144097493        1.85034822001843
N            4.82461825500984        0.67391751456151        1.53897486098870
N            3.10613533152269        1.32780186781490       -0.72881004086562
C            4.28903030143287        2.18304728653501       -0.69074678458194
C            2.04951087510563        1.78027598603619       -1.52058939366530
O            2.12007988807507        2.83657906043352       -2.16751835596193
C            0.88505471445726        0.94700234913008       -1.54379231531138
O           -0.12959313677348        1.39783937005537       -2.33645588669107
C           -3.19204287129926       -1.20399333113423        1.24592791427115
C           -4.10090576359204       -0.79542610232727        2.25113479087588
C           -5.28507429052415       -0.24450724211782        1.91042106084336
F           -6.18099994246688        0.09698208369937        2.90306466512744
H           -6.54668967028320        2.06821970527145        1.04473049941905
H           -6.15138076956792        1.87697779828174       -0.67406400528196
H           -4.85379949189027        2.09403705684527        0.51361088301321
H           -6.77244426478298       -0.28412579575478        0.36719008944601
H           -5.08577100840162       -0.47638856010548       -1.50679699143489
H           -2.37029292390673       -2.65471989386995       -0.94461825624513
H           -3.17898764124188       -1.62958501865104       -2.15158562633845
H           -1.57741259478878        0.11294549834466       -1.65741316505433
H            5.90273130377646       -1.59490254202046        0.51518853584333
H            4.60827686525484       -1.89764803782081       -0.65609729711075
H            5.59686214274793       -0.43374156087386       -0.78045868041886
H            4.36576954183972       -1.77478532220551        2.47975572477006
H            2.81635728760626       -0.91450632360955        2.47982979495554
H            3.08955813434958       -2.24108530451832        1.33760112749528
H            5.68936423879244        0.31671527055739        1.91800371024573
H            4.26164078409549        0.99129620997644        2.31770637232591
H            4.31379900349153        2.74729791031514        0.24152206534838
H            4.23667784429837        2.87453770350511       -1.53235602044015
H            5.19371334300109        1.58678545286497       -0.76802753191223
H            0.16437107246657        2.23423859342865       -2.74117699469235
H           -2.24336570121820       -1.65243722534672        1.51187191981437
H           -3.86341741731433       -0.95478230108246        3.29854144689054

          :  Hamiltonian                  GFN1-xTB          :
         :: total energy             -80.187020314404 Eh    ::
         :: gradient norm              0.000309128122 Eh/a0 ::
         :: HOMO-LUMO gap              0.095811510167 eV    ::
         :: SCC energy               -81.043946923102 Eh    ::
         :: -> Gsolv                  -0.105094267186 Eh    ::
         :: repulsion energy           0.886402717398 Eh    ::

    * Orbital Energies and Occupations

         #    Occupation            Energy/Eh            Energy/eV
      -------------------------------------------------------------
         1        2.0000           -0.8041875             -21.8831
       ...           ...                  ...                  ...
        56        2.0000           -0.4556649             -12.3993
        57        2.0000           -0.4434527             -12.0670
        58        2.0000           -0.4409955             -12.0001
        59        2.0000           -0.4405300             -11.9874
        60        2.0000           -0.4273245             -11.6281
        61        2.0000           -0.4233128             -11.5189
        62        2.0000           -0.4205066             -11.4426
        63        2.0000           -0.4114931             -11.1973
        64        2.0000           -0.4050922             -11.0231
        65        2.0000           -0.4031194             -10.9694
        66        2.0000           -0.3956050             -10.7650
        67        2.0000           -0.3844939             -10.4626
        68        1.7290           -0.2938072              -7.9949 (HOMO)
        69        0.2710           -0.2902862              -7.8991 (LUMO)
        70                         -0.2509140              -6.8277
        71                         -0.2034567              -5.5363
        72                         -0.1980257              -5.3886
        73                         -0.1311311              -3.5683
        74                         -0.1265341              -3.4432
        75                         -0.1221025              -3.3226
        76                         -0.1160205              -3.1571
        77                         -0.1098988              -2.9905
        78                         -0.0948335              -2.5806
        79                         -0.0928844              -2.5275
       ...                                ...                  ...
       144                          0.7101939              19.3254
      -------------------------------------------------------------
                  HL-Gap            0.0035210 Eh            0.0958 eV

Wiberg/Mayer (AO) data.
largest (>0.10) Wiberg bond orders for each atom

     #   Z sym  total        # sym  WBO       # sym  WBO       # sym  WBO
 ---------------------------------------------------------------------------
     1   6 C    3.971 --    28 H    0.989    27 H    0.988    26 H    0.988
                             2 C    0.964
     2   6 C    3.992 --    24 C    1.007     3 C    1.005     1 C    0.964
                            29 H    0.961
     3   6 C    3.808 --     4 C    1.589     2 C    1.005    30 H    0.974
     4   6 C    3.983 --     3 C    1.589    22 C    1.311     5 C    0.983
     5   6 C    3.941 --     4 C    0.983    32 H    0.978    31 H    0.972
                             6 N    0.937
     6   7 N    3.317 --     7 C    1.248     5 C    0.937    33 H    0.900
                             8 O    0.161
     7   6 C    3.877 --     8 O    1.529     6 N    1.248     9 C    1.024
     8   8 O    1.811 --     7 C    1.529     6 N    0.161
     9   6 C    3.862 --    20 C    1.420    10 N    1.185     7 C    1.024
    10   7 N    3.028 --    11 C    1.581     9 C    1.185
    11   6 C    3.893 --    10 N    1.581    16 N    1.144    12 C    0.976
    12   6 C    3.966 --    14 C    0.990    13 C    0.984    15 N    0.982
                            11 C    0.976
    13   6 C    3.993 --    35 H    0.986    12 C    0.984    34 H    0.984
                            36 H    0.980
    14   6 C    3.995 --    12 C    0.990    37 H    0.987    38 H    0.985
                            39 H    0.983
    15   7 N    2.977 --    12 C    0.982    41 H    0.943    40 H    0.942
    16   7 N    3.417 --    11 C    1.144    18 C    1.091    17 C    0.938
                            19 O    0.115
    17   6 C    3.935 --    44 H    0.979    42 H    0.978    43 H    0.976
                            16 N    0.938
    18   6 C    3.869 --    19 O    1.486    20 C    1.156    16 N    1.091
    19   8 O    1.819 --    18 C    1.486    16 N    0.115
    20   6 C    3.822 --     9 C    1.420    18 C    1.156    21 O    1.038
    21   8 O    2.018 --    20 C    1.038    45 H    0.815
    22   6 C    3.762 --     4 C    1.311    23 C    1.276    46 H    0.977
    23   6 C    3.989 --    24 C    1.621    22 C    1.276    47 H    0.971
    24   6 C    3.687 --    23 C    1.621     2 C    1.007    25 F    0.859
    25   9 F    0.965 --    24 C    0.859
    26   1 H    1.010 --     1 C    0.988
    27   1 H    1.010 --     1 C    0.988
    28   1 H    1.017 --     1 C    0.989
    29   1 H    1.006 --     2 C    0.961
    30   1 H    1.002 --     3 C    0.974
    31   1 H    1.020 --     5 C    0.972
    32   1 H    1.010 --     5 C    0.978
    33   1 H    0.959 --     6 N    0.900
    34   1 H    1.001 --    13 C    0.984
    35   1 H    1.005 --    13 C    0.986
    36   1 H    1.006 --    13 C    0.980
    37   1 H    1.005 --    14 C    0.987
    38   1 H    1.009 --    14 C    0.985
    39   1 H    1.018 --    14 C    0.983
    40   1 H    0.957 --    15 N    0.942
    41   1 H    0.960 --    15 N    0.943
    42   1 H    1.019 --    17 C    0.978
    43   1 H    1.013 --    17 C    0.976
    44   1 H    1.022 --    17 C    0.979
    45   1 H    0.862 --    21 O    0.815
    46   1 H    1.007 --    22 C    0.977
    47   1 H    1.006 --    23 C    0.971
 ---------------------------------------------------------------------------

           -------------------------------------------------
          | TOTAL ENERGY              -80.187020314404 Eh   |
          | GRADIENT NORM               0.000309128122 Eh/α |
          | HOMO-LUMO GAP               0.095811510167 eV   |
           -------------------------------------------------

 * finished run on 2023/06/20 at 15:06:59.382
