   * xtb version 6.5.1 (579679a) compiled by 'ehlert@majestix' on 2022-07-11
          program call               : /lustre/hpc/kemi/ree/PhD/git/ReactivityQM/dep/xtb-6.5.1/bin/xtb --gfn 1 /lustre/hpc/kemi/ree/PhD/git/ReactivityQM/calculations/R02deprot/reac01prodN11/conf01/R02deprot_reac01prodN11_conf01_gfn1.xyz --opt --vfukui --chrg 0 --uhf 0 --alpb DMSO

   ID    Z sym.   atoms
    1    6 C      1, 3, 5, 6, 8, 11-15, 17, 19, 22, 23
    2    8 O      2, 4, 7, 9, 18, 24
    3    7 N      10, 16, 20, 21, 25
    4    1 H      26-42

      * Solvation model:               ALPB
        Solvent                        DMSO
        Solvent mass                       7.8130E+01 g/mol
          :  Hamiltonian                  GFN1-xTB          :
 * total energy  :   -82.9144181 Eh     change       -0.1149658E-10 Eh
 * total energy  :   -82.9289704 Eh     change       -0.1455230E-01 Eh
 * total energy  :   -82.9346102 Eh     change       -0.5639755E-02 Eh
 * total energy  :   -82.9355279 Eh     change       -0.9176936E-03 Eh
 * total energy  :   -82.9360841 Eh     change       -0.5561964E-03 Eh
 * total energy  :   -82.9363832 Eh     change       -0.2991125E-03 Eh
 * total energy  :   -82.9366546 Eh     change       -0.2714258E-03 Eh
 * total energy  :   -82.9368744 Eh     change       -0.2198000E-03 Eh
 * total energy  :   -82.9370562 Eh     change       -0.1817351E-03 Eh
 * total energy  :   -82.9372255 Eh     change       -0.1693779E-03 Eh
 * total energy  :   -82.9382541 Eh     change       -0.1044937E-04 Eh
 * total energy  :   -82.9382641 Eh     change       -0.9970598E-05 Eh
 * total energy  :   -82.9382759 Eh     change       -0.1183122E-04 Eh
 * total energy  :   -82.9382839 Eh     change       -0.8042290E-05 Eh
 * total energy  :   -82.9382948 Eh     change       -0.1086028E-04 Eh
 * total energy  :   -82.9383091 Eh     change       -0.1432853E-04 Eh
 * total energy  :   -82.9383182 Eh     change       -0.9040467E-05 Eh
 * total energy  :   -82.9383231 Eh     change       -0.4898438E-05 Eh
 * total energy  :   -82.9383273 Eh     change       -0.4240665E-05 Eh
   *** GEOMETRY OPTIMIZATION CONVERGED AFTER 41 ITERATIONS ***

 final structure:
================
42
 xtb: 6.5.1 (579679a)
C           -3.54226045474557       -3.48951752575068       -0.28255687405756
O           -2.89233738400505       -2.21436842653099       -0.16872165772657
C           -2.66837918330972       -1.55630298626086       -1.28222685672493
O           -2.95722455402018       -1.96482671597684       -2.39093484702625
C           -2.01976442991023       -0.21774530411910       -1.07491513309698
C           -1.59587216144364        0.53457785253491       -2.20938077528836
O           -1.84738137430096        0.16104707063976       -3.42238748694588
C           -0.83547125533823        1.80871084515577       -2.00648011058043
O           -0.31232727671504        2.39489803011484       -2.94955353715708
N           -0.83287085215348        2.24862928975138       -0.74005852749910
C           -1.33385920430148        1.51788633937439        0.35024494789301
C           -2.49949842120866        2.33155209008311        0.95926667536472
C           -0.14568635415573        1.34649630448594        1.38206023740204
C           -0.57591728436260        0.53846390681725        2.60445452679106
C            0.42330460930078        2.70713110581490        1.78307253797928
N            0.86560446142014        0.59934009782697        0.63188562602515
C            2.06036048714765        0.22606893761305        1.13157984067835
O            2.44582607665143        0.40221841346381        2.27389973625356
C            2.87112987118481       -0.44320525251594        0.08043029348915
N            2.53276355355479       -0.57997921441906       -1.16635712542920
N            3.56080571725837       -1.22764652175686       -1.78324216469165
C            4.46073360847144       -1.44409354796844       -0.87255807497654
C            5.76603744651198       -2.12081910157134       -1.03450411804316
O            4.08420169218659       -0.96968036593595        0.32475255893387
N           -1.86065705345980        0.21791589633257        0.13687436383299
H           -3.54699079832043       -3.92198284663652        0.71493885468769
H           -2.99253548037501       -4.12562179743878       -0.97812890870766
H           -4.56187421035930       -3.34808796923004       -0.64439288064895
H           -2.36907826179591       -0.68468618374388       -3.45696642490575
H           -3.29203257755839        2.38891341924281        0.21622802478547
H           -2.15710129266918        3.33546608440847        1.19377716092208
H           -2.88002325346124        1.84278771050722        1.85115872044559
H           -0.97134252156627       -0.42882780436887        2.30073416001163
H           -1.33613296087100        1.07473175605571        3.16787570455348
H            0.28573821203200        0.38414695546300        3.25258080996731
H           -0.29484989976750        3.25761018835231        2.38658951766267
H            0.67061499325268        3.28846798114914        0.89607886654981
H            1.32378643741621        2.55485837398362        2.37669546272587
H            0.69018428855185        0.41063231769652       -0.34577377433489
H            5.89156467410133       -2.43033613036132       -2.06921731491149
H            6.57374928676462       -1.44529689324648       -0.75318447041887
H            5.81506208437376       -2.99375837903251       -0.38363656377926

          :  Hamiltonian                  GFN1-xTB          :
         :: total energy             -82.938327297142 Eh    ::
         :: gradient norm              0.000852948555 Eh/a0 ::
         :: HOMO-LUMO gap              0.849532166195 eV    ::
         :: SCC energy               -83.700731013812 Eh    ::
         :: -> Gsolv                  -0.056632572624 Eh    ::
         :: repulsion energy           0.790027400807 Eh    ::

    * Orbital Energies and Occupations

         #    Occupation            Energy/Eh            Energy/eV
      -------------------------------------------------------------
         1        2.0000           -0.8657620             -23.5586
       ...           ...                  ...                  ...
        55        2.0000           -0.5079144             -13.8211
        56        2.0000           -0.5061834             -13.7740
        57        2.0000           -0.5039183             -13.7123
        58        2.0000           -0.4961873             -13.5019
        59        2.0000           -0.4890019             -13.3064
        60        2.0000           -0.4845470             -13.1852
        61        2.0000           -0.4670143             -12.7081
        62        2.0000           -0.4632277             -12.6051
        63        2.0000           -0.4586436             -12.4803
        64        2.0000           -0.4542450             -12.3606
        65        2.0000           -0.4492784             -12.2255
        66        2.0000           -0.4297601             -11.6944
        67        2.0000           -0.4228080             -11.5052 (HOMO)
        68        0.0000           -0.3915883             -10.6557 (LUMO)
        69                         -0.3286700              -8.9436
        70                         -0.3125342              -8.5045
        71                         -0.2587968              -7.0422
        72                         -0.2405692              -6.5462
        73                         -0.2009459              -5.4680
        74                         -0.1882785              -5.1233
        75                         -0.1452004              -3.9511
        76                         -0.1435092              -3.9051
        77                         -0.1404873              -3.8229
        78                         -0.1261493              -3.4327
       ...                                ...                  ...
       134                          0.7244138              19.7123
      -------------------------------------------------------------
                  HL-Gap            0.0312197 Eh            0.8495 eV

Wiberg/Mayer (AO) data.
largest (>0.10) Wiberg bond orders for each atom

     #   Z sym  total        # sym  WBO       # sym  WBO       # sym  WBO
 ---------------------------------------------------------------------------
     1   6 C    3.852 --    26 H    0.985    27 H    0.978    28 H    0.978
                             2 O    0.878
     2   8 O    2.242 --     3 C    1.172     1 C    0.878     4 O    0.139
     3   6 C    3.848 --     4 O    1.621     2 O    1.172     5 C    0.972
     4   8 O    1.965 --     3 C    1.621     2 O    0.139
     5   6 C    3.968 --    25 N    1.582     6 C    1.191     3 C    0.972
     6   6 C    3.828 --     7 O    1.287     5 C    1.191     8 C    0.993
                            10 N    0.171
     7   8 O    2.230 --     6 C    1.287    29 H    0.740
     8   6 C    3.934 --     9 O    1.539    10 N    1.300     6 C    0.993
     9   8 O    1.843 --     8 C    1.539    10 N    0.166
    10   7 N    3.024 --     8 C    1.300    11 C    1.061     6 C    0.171
                             9 O    0.166    25 N    0.160
    11   6 C    3.940 --    10 N    1.061    25 N    1.027    12 C    0.900
                            13 C    0.855
    12   6 C    3.977 --    30 H    0.982    32 H    0.982    31 H    0.979
                            11 C    0.900
    13   6 C    3.922 --    14 C    0.999    15 C    0.996    16 N    0.926
                            11 C    0.855
    14   6 C    3.988 --    13 C    0.999    33 H    0.982    34 H    0.981
                            35 H    0.971
    15   6 C    3.988 --    13 C    0.996    36 H    0.982    37 H    0.981
                            38 H    0.973
    16   7 N    3.352 --    17 C    1.256    13 C    0.926    39 H    0.893
                            18 O    0.179
    17   6 C    3.918 --    18 O    1.590    16 N    1.256    19 C    0.987
    18   8 O    1.912 --    17 C    1.590    16 N    0.179
    19   6 C    3.876 --    20 N    1.610    24 O    1.065    17 C    0.987
    20   7 N    3.019 --    19 C    1.610    21 N    1.199
    21   7 N    2.981 --    22 C    1.606    20 N    1.199
    22   6 C    3.870 --    21 N    1.606    24 O    1.081    23 C    1.032
    23   6 C    3.986 --    22 C    1.032    40 H    0.982    41 H    0.963
                            42 H    0.963
    24   8 O    2.330 --    22 C    1.081    19 C    1.065
    25   7 N    3.031 --     5 C    1.582    11 C    1.027    10 N    0.160
    26   1 H    1.008 --     1 C    0.985
    27   1 H    1.004 --     1 C    0.978
    28   1 H    1.003 --     1 C    0.978
    29   1 H    0.832 --     7 O    0.740
    30   1 H    1.001 --    12 C    0.982
    31   1 H    1.004 --    12 C    0.979
    32   1 H    1.003 --    12 C    0.982
    33   1 H    1.013 --    14 C    0.982
    34   1 H    1.002 --    14 C    0.981
    35   1 H    1.006 --    14 C    0.971
    36   1 H    1.001 --    15 C    0.982
    37   1 H    1.013 --    15 C    0.981
    38   1 H    1.004 --    15 C    0.973
    39   1 H    0.961 --    16 N    0.893
    40   1 H    0.998 --    23 C    0.982
    41   1 H    0.997 --    23 C    0.963
    42   1 H    0.997 --    23 C    0.963
 ---------------------------------------------------------------------------

           -------------------------------------------------
          | TOTAL ENERGY              -82.938327297142 Eh   |
          | GRADIENT NORM               0.000852948555 Eh/α |
          | HOMO-LUMO GAP               0.849532166195 eV   |
           -------------------------------------------------

 * finished run on 2023/06/20 at 18:18:10.581
