   * xtb version 6.5.1 (579679a) compiled by 'ehlert@majestix' on 2022-07-11
          program call               : /lustre/hpc/kemi/ree/PhD/git/ReactivityQM/dep/xtb-6.5.1/bin/xtb --gfn 1 /lustre/hpc/kemi/ree/PhD/git/ReactivityQM/calculations/R02methylcation/reac01prodN03/conf05/R02methylcation_reac01prodN03_conf05_gfn1.xyz --opt --vfukui --chrg 0 --uhf 0 --alpb DMSO

   ID    Z sym.   atoms
    1    6 C      1, 3, 5, 6, 8-11, 13, 15, 18, 19, 22, 24
    2    8 O      2, 4, 14, 20, 23, 25
    3    7 N      7, 12, 16, 17, 21
    4    1 H      26-42

      * Solvation model:               ALPB
        Solvent                        DMSO
        Solvent mass                       7.8130E+01 g/mol
          :  Hamiltonian                  GFN1-xTB          :
 * total energy  :   -82.9865008 Eh     change       -0.6806999E-11 Eh
 * total energy  :   -82.9977200 Eh     change       -0.1121913E-01 Eh
 * total energy  :   -83.0017939 Eh     change       -0.4073909E-02 Eh
 * total energy  :   -83.0025164 Eh     change       -0.7225249E-03 Eh
 * total energy  :   -83.0029805 Eh     change       -0.4640939E-03 Eh
 * total energy  :   -83.0032328 Eh     change       -0.2523368E-03 Eh
 * total energy  :   -83.0034902 Eh     change       -0.2574119E-03 Eh
 * total energy  :   -83.0037160 Eh     change       -0.2257855E-03 Eh
 * total energy  :   -83.0039150 Eh     change       -0.1990230E-03 Eh
 * total energy  :   -83.0041039 Eh     change       -0.1888873E-03 Eh
 * total energy  :   -83.0048346 Eh     change       -0.6949738E-05 Eh
 * total energy  :   -83.0048432 Eh     change       -0.8678735E-05 Eh
 * total energy  :   -83.0048524 Eh     change       -0.9113180E-05 Eh
 * total energy  :   -83.0048632 Eh     change       -0.1086167E-04 Eh
 * total energy  :   -83.0048806 Eh     change       -0.1738382E-04 Eh
 * total energy  :   -83.0048901 Eh     change       -0.9535000E-05 Eh
 * total energy  :   -83.0048999 Eh     change       -0.9806516E-05 Eh
 * total energy  :   -83.0049085 Eh     change       -0.8583530E-05 Eh
 * total energy  :   -83.0049125 Eh     change       -0.3959236E-05 Eh
   *** GEOMETRY OPTIMIZATION CONVERGED AFTER 33 ITERATIONS ***

 final structure:
================
42
 xtb: 6.5.1 (579679a)
C           -3.99298798438247        2.28001163193192        1.81539480008639
O           -3.35242427161888        1.87780635046281        0.59364848004980
C           -2.68210987697164        0.74686000948878        0.61096799885356
O           -2.57991801959990        0.00987019066212        1.55487981729818
C           -2.04564560974806        0.43072599512430       -0.77516463484687
C           -1.86474149881996        1.69075008834762       -1.61945963014768
N           -0.75910657608092       -0.16220084869274       -0.48941559104383
C           -0.64772245969155       -1.40907699301073       -0.28860798276795
C            0.69164499276677       -2.00501431664364        0.09813620733034
C            0.58484432363063       -2.67199887744192        1.47735693605191
C            1.14057528040542       -3.00433055083053       -0.97756792441923
N            1.63607412236815       -0.89324007989973        0.16549589334795
C            2.93691004576101       -1.03454991718724        0.47649638109024
O            3.49623562079082       -2.09236858470435        0.72174755707491
C            3.66869250758031        0.25823280847748        0.49907577674236
N            4.92672388726472        0.44254665973111        0.75354384982735
N            5.15256732606193        1.78416522071126        0.67217480099177
C            4.01835066010430        2.33640436692298        0.37432042973156
C            3.73885903117901        3.77571064872531        0.17986508795913
O            3.03694839806127        1.42636698384070        0.24942724238450
N           -1.69864423722576       -2.30761708388797       -0.41878789786506
C           -2.90332581746738       -1.99661832057237       -0.97513247048593
O           -3.78220205522731       -2.81342469868490       -1.12743493711739
C           -3.03282031434180       -0.53233698003805       -1.40993055872846
O           -3.89299158626288       -0.17796226542280       -2.17153726526325
H           -3.24156616544358        2.42070778125672        2.59408377399011
H           -4.50004498949560        3.21753063539027        1.60004009417831
H           -4.70827842412004        1.51687391770637        2.12810620049162
H           -1.28825663958384        2.42583909240186       -1.06408975972776
H           -1.33315101434501        1.43561323032728       -2.53392914319117
H           -2.83661535706258        2.10888586124877       -1.87436536353879
H            0.26663234247955       -1.94057342886262        2.21879965701459
H           -0.13652276622343       -3.48559323164527        1.44628842330849
H            1.55380095144894       -3.07688590646785        1.76392703723040
H            1.22611532528019       -2.50035665331710       -1.93894322004529
H            0.41513637823104       -3.81057364231642       -1.06193532618148
H            2.10595096876627       -3.42811598576264       -0.70688499072140
H            1.25833544006526        0.02776306332876       -0.01676708875392
H            2.99622711302148        4.11181115448532        0.90330339589775
H            4.65587233474541        4.34602703151473        0.30819602771611
H            3.33861275966069        3.94572494978207       -0.81916186318633
H           -1.56603214596332       -3.27339230648383       -0.15890022061786

          :  Hamiltonian                  GFN1-xTB          :
         :: total energy             -83.004912481110 Eh    ::
         :: gradient norm              0.000712360583 Eh/a0 ::
         :: HOMO-LUMO gap              2.421602704077 eV    ::
         :: SCC energy               -83.792756975840 Eh    ::
         :: -> Gsolv                  -0.054336709458 Eh    ::
         :: repulsion energy           0.814537646065 Eh    ::

    * Orbital Energies and Occupations

         #    Occupation            Energy/Eh            Energy/eV
      -------------------------------------------------------------
         1        2.0000           -0.8652160             -23.5437
       ...           ...                  ...                  ...
        55        2.0000           -0.5111550             -13.9092
        56        2.0000           -0.5054770             -13.7547
        57        2.0000           -0.5044700             -13.7273
        58        2.0000           -0.5031118             -13.6904
        59        2.0000           -0.4923976             -13.3988
        60        2.0000           -0.4798756             -13.0581
        61        2.0000           -0.4714328             -12.8283
        62        2.0000           -0.4636712             -12.6171
        63        2.0000           -0.4620059             -12.5718
        64        2.0000           -0.4588633             -12.4863
        65        2.0000           -0.4514631             -12.2849
        66        2.0000           -0.4476581             -12.1814
        67        2.0000           -0.4421814             -12.0324 (HOMO)
        68                         -0.3531892              -9.6108 (LUMO)
        69                         -0.3097297              -8.4282
        70                         -0.2981537              -8.1132
        71                         -0.2706111              -7.3637
        72                         -0.2568357              -6.9889
        73                         -0.2264963              -6.1633
        74                         -0.1974926              -5.3740
        75                         -0.1462937              -3.9809
        76                         -0.1430388              -3.8923
        77                         -0.1420299              -3.8648
        78                         -0.1257434              -3.4217
       ...                                ...                  ...
       134                          0.7591607              20.6578
      -------------------------------------------------------------
                  HL-Gap            0.0889923 Eh            2.4216 eV

Wiberg/Mayer (AO) data.
largest (>0.10) Wiberg bond orders for each atom

     #   Z sym  total        # sym  WBO       # sym  WBO       # sym  WBO
 ---------------------------------------------------------------------------
     1   6 C    3.852 --    27 H    0.985    28 H    0.980    26 H    0.980
                             2 O    0.874
     2   8 O    2.232 --     3 C    1.159     1 C    0.874     4 O    0.140
     3   6 C    3.845 --     4 O    1.696     2 O    1.159     5 C    0.863
     4   8 O    1.964 --     3 C    1.696     2 O    0.140
     5   6 C    3.962 --     6 C    0.984     7 N    0.977    24 C    0.949
                             3 C    0.863
     6   6 C    3.984 --    29 H    0.984     5 C    0.984    30 H    0.983
                            31 H    0.982
     7   7 N    3.048 --     8 C    1.753     5 C    0.977
     8   6 C    3.926 --     7 N    1.753    21 N    1.070     9 C    0.980
     9   6 C    3.939 --     8 C    0.980    11 C    0.978    10 C    0.977
                            12 N    0.937
    10   6 C    3.987 --    32 H    0.984    33 H    0.983    34 H    0.978
                             9 C    0.977
    11   6 C    3.986 --    35 H    0.985    36 H    0.983     9 C    0.978
                            37 H    0.977
    12   7 N    3.360 --    13 C    1.269     9 C    0.937    38 H    0.877
                            14 O    0.179
    13   6 C    3.919 --    14 O    1.577    12 N    1.269    15 C    0.991
    14   8 O    1.897 --    13 C    1.577    12 N    0.179
    15   6 C    3.872 --    16 N    1.624    20 O    1.047    13 C    0.991
    16   7 N    2.999 --    15 C    1.624    17 N    1.197
    17   7 N    2.982 --    18 C    1.613    16 N    1.197
    18   6 C    3.869 --    17 N    1.613    20 O    1.072    19 C    1.031
    19   6 C    3.987 --    18 C    1.031    40 H    0.982    41 H    0.964
                            39 H    0.963
    20   8 O    2.315 --    18 C    1.072    15 C    1.047
    21   7 N    3.428 --    22 C    1.184     8 C    1.070    42 H    0.880
                            23 O    0.149
    22   6 C    3.892 --    23 O    1.676    21 N    1.184    24 C    0.906
    23   8 O    1.960 --    22 C    1.676    21 N    0.149
    24   6 C    3.848 --    25 O    1.814     5 C    0.949    22 C    0.906
    25   8 O    2.028 --    24 C    1.814
    26   1 H    1.003 --     1 C    0.980
    27   1 H    1.007 --     1 C    0.985
    28   1 H    1.004 --     1 C    0.980
    29   1 H    1.003 --     6 C    0.984
    30   1 H    1.000 --     6 C    0.983
    31   1 H    1.007 --     6 C    0.982
    32   1 H    1.001 --    10 C    0.984
    33   1 H    0.998 --    10 C    0.983
    34   1 H    1.007 --    10 C    0.978
    35   1 H    1.001 --    11 C    0.985
    36   1 H    0.999 --    11 C    0.983
    37   1 H    1.008 --    11 C    0.977
    38   1 H    0.955 --    12 N    0.877
    39   1 H    0.997 --    19 C    0.963
    40   1 H    0.998 --    19 C    0.982
    41   1 H    0.997 --    19 C    0.964
    42   1 H    0.928 --    21 N    0.880
 ---------------------------------------------------------------------------

           -------------------------------------------------
          | TOTAL ENERGY              -83.004912481110 Eh   |
          | GRADIENT NORM               0.000712360583 Eh/α |
          | HOMO-LUMO GAP               2.421602704077 eV   |
           -------------------------------------------------

 * finished run on 2023/06/21 at 17:32:34.669
