   * xtb version 6.5.1 (579679a) compiled by 'ehlert@majestix' on 2022-07-11
          program call               : /lustre/hpc/kemi/ree/PhD/git/ReactivityQM/dep/xtb-6.5.1/bin/xtb --gfn 1 /lustre/hpc/kemi/ree/PhD/git/ReactivityQM/calculations/R02/reac01prodN18/conf11/R02_reac01prodN18_conf11_gfn1.xyz --opt --vfukui --chrg 1 --uhf 0 --alpb DMSO

   ID    Z sym.   atoms
    1    6 C      1, 3, 5, 6, 8, 11-15, 17, 19, 22, 23
    2    8 O      2, 4, 7, 9, 18, 24
    3    7 N      10, 16, 20, 21, 25
    4    1 H      26-43

      * Solvation model:               ALPB
        Solvent                        DMSO
        Solvent mass                       7.8130E+01 g/mol
          :  Hamiltonian                  GFN1-xTB          :
 * total energy  :   -83.1011264 Eh     change       -0.5735501E-10 Eh
 * total energy  :   -83.1164323 Eh     change       -0.1530592E-01 Eh
 * total energy  :   -83.1225322 Eh     change       -0.6099902E-02 Eh
 * total energy  :   -83.1239060 Eh     change       -0.1373838E-02 Eh
 * total energy  :   -83.1248456 Eh     change       -0.9395986E-03 Eh
 * total energy  :   -83.1254423 Eh     change       -0.5967147E-03 Eh
 * total energy  :   -83.1259934 Eh     change       -0.5510119E-03 Eh
 * total energy  :   -83.1264462 Eh     change       -0.4528466E-03 Eh
 * total energy  :   -83.1267264 Eh     change       -0.2802102E-03 Eh
 * total energy  :   -83.1268501 Eh     change       -0.1237147E-03 Eh
 * total energy  :   -83.1276184 Eh     change       -0.1639777E-04 Eh
 * total energy  :   -83.1276392 Eh     change       -0.2078978E-04 Eh
 * total energy  :   -83.1276543 Eh     change       -0.1511905E-04 Eh
 * total energy  :   -83.1276656 Eh     change       -0.1132274E-04 Eh
 * total energy  :   -83.1276754 Eh     change       -0.9707272E-05 Eh
 * total energy  :   -83.1276837 Eh     change       -0.8311933E-05 Eh
 * total energy  :   -83.1276910 Eh     change       -0.7293148E-05 Eh
 * total energy  :   -83.1276970 Eh     change       -0.6005799E-05 Eh
 * total energy  :   -83.1277017 Eh     change       -0.4763144E-05 Eh
   *** GEOMETRY OPTIMIZATION CONVERGED AFTER 41 ITERATIONS ***

 final structure:
================
43
 xtb: 6.5.1 (579679a)
C            5.76142176053833       -1.60308573520446       -1.27307845864468
O            4.46370240197085       -1.11807077515811       -0.88944087566650
C            4.41821942152269        0.04296922331537       -0.27866514851618
O            5.38927687552801        0.72647719212133       -0.01893174664962
C            3.04168963381009        0.47192950426240        0.09839028288144
C            2.84606206211964        1.65838015579165        0.75280068206237
O            3.79969880827953        2.51575609090205        1.06587567727274
C            1.48861438135105        2.07934144968511        1.12544273570066
O            1.09589654996917        3.11917596980697        1.53792195792942
N            0.51014215058426        0.93361465707124        1.05812124983498
C            0.57223960378459        0.30930154262923        2.42574295384257
C            0.79414572953087       -0.07850001033702        0.02244125314774
C           -0.37487045726077       -0.80404285787730       -0.59744226608061
C           -0.33816558159727       -0.51513204568190       -2.10849824062017
C           -0.23057535216160       -2.31407491316178       -0.35870826346353
N           -1.64161745065200       -0.27222558037609       -0.09927493012868
C           -2.34067710998595       -0.76729309165837        0.96179907098767
O           -1.88314820221243       -1.50017875965890        1.82010113067414
C           -3.73050003651004       -0.27364688547923        0.99704330164003
N           -4.64933156409246       -0.53846678775089        1.87312086294576
N           -5.76931177549954        0.12233796994111        1.47997676044160
C           -5.47016431926772        0.75248083823241        0.38501737266990
C           -6.34645649598738        1.61019012643287       -0.44022635489264
O           -4.19327796375324        0.54285091349079        0.02523446488386
N            1.98039790316549       -0.29538947100170       -0.34955301058320
H            6.23033098164506       -0.89472730821149       -1.95846012612542
H            5.59663005278692       -2.56110309694987       -1.76093296713074
H            6.38549271318883       -1.72290777969583       -0.38543393276883
H            4.68285274727066        2.17078876668920        0.77067373427459
H           -0.43284366582859        1.30731059488497        0.91400834372730
H            1.58422041747983       -0.04821823074927        2.59517431379538
H            0.30208393177142        1.07725566696186        3.14644244435267
H           -0.13670059472448       -0.51497309028457        2.44948854631293
H           -0.44661055057689        0.55210419975595       -2.29156250281199
H           -1.15333691678598       -1.04708258386110       -2.59528897677728
H            0.61118722593709       -0.85098290237878       -2.52209821196605
H            0.65875827102202       -2.66293716404147       -0.88107015479011
H           -1.10616316512595       -2.82733018508265       -0.75131316234497
H           -0.12583191695669       -2.53671700844096        0.70038859117799
H           -2.16748511091766        0.28017938682296       -0.76025083486298
H           -6.42845869964363        1.19419015858409       -1.44431055411000
H           -7.33340097366668        1.67379617401241        0.01245568891486
H           -5.91413572009231        2.60665668168423       -0.52526870055261

          :  Hamiltonian                  GFN1-xTB          :
         :: total energy             -83.127701724376 Eh    ::
         :: gradient norm              0.000468398420 Eh/a0 ::
         :: HOMO-LUMO gap              1.680565880026 eV    ::
         :: SCC energy               -83.921756788338 Eh    ::
         :: -> Gsolv                  -0.116821065011 Eh    ::
         :: repulsion energy           0.821753954195 Eh    ::

    * Orbital Energies and Occupations

         #    Occupation            Energy/Eh            Energy/eV
      -------------------------------------------------------------
         1        2.0000           -0.9077793             -24.7019
       ...           ...                  ...                  ...
        55        2.0000           -0.5330609             -14.5053
        56        2.0000           -0.5296248             -14.4118
        57        2.0000           -0.5234230             -14.2431
        58        2.0000           -0.5165003             -14.0547
        59        2.0000           -0.5153112             -14.0223
        60        2.0000           -0.5110787             -13.9072
        61        2.0000           -0.4936897             -13.4340
        62        2.0000           -0.4906166             -13.3504
        63        2.0000           -0.4841348             -13.1740
        64        2.0000           -0.4824648             -13.1285
        65        2.0000           -0.4770836             -12.9821
        66        2.0000           -0.4633851             -12.6093
        67        2.0000           -0.4621238             -12.5750 (HOMO)
        68                         -0.4003641             -10.8945 (LUMO)
        69                         -0.3327384              -9.0543
        70                         -0.3288330              -8.9480
        71                         -0.2994400              -8.1482
        72                         -0.2651904              -7.2162
        73                         -0.2172304              -5.9111
        74                         -0.2153609              -5.8603
        75                         -0.1682016              -4.5770
        76                         -0.1544107              -4.2017
        77                         -0.1479693              -4.0265
        78                         -0.1460742              -3.9749
       ...                                ...                  ...
       136                          0.7337308              19.9658
      -------------------------------------------------------------
                  HL-Gap            0.0617597 Eh            1.6806 eV

Wiberg/Mayer (AO) data.
largest (>0.10) Wiberg bond orders for each atom

     #   Z sym  total        # sym  WBO       # sym  WBO       # sym  WBO
 ---------------------------------------------------------------------------
     1   6 C    3.848 --    27 H    0.985    26 H    0.977    28 H    0.977
                             2 O    0.875
     2   8 O    2.238 --     3 C    1.168     1 C    0.875     4 O    0.140
     3   6 C    3.862 --     4 O    1.616     2 O    1.168     5 C    0.999
     4   8 O    1.966 --     3 C    1.616     2 O    0.140
     5   6 C    3.959 --     6 C    1.515    25 N    1.108     3 C    0.999
                             7 O    0.114
     6   6 C    3.931 --     5 C    1.515     7 O    1.164     8 C    1.030
     7   8 O    2.126 --     6 C    1.164    29 H    0.746     5 C    0.114
     8   6 C    3.856 --     9 O    1.829     6 C    1.030    10 N    0.847
     9   8 O    2.083 --     8 C    1.829
    10   7 N    3.602 --    12 C    0.887    30 H    0.858    11 C    0.853
                             8 C    0.847
    11   6 C    3.853 --    31 H    0.985    32 H    0.978    33 H    0.960
                            10 N    0.853
    12   6 C    3.896 --    25 N    1.783    13 C    0.987    10 N    0.887
    13   6 C    3.932 --    12 C    0.987    15 C    0.969    14 C    0.966
                            16 N    0.939
    14   6 C    3.979 --    34 H    0.983    36 H    0.981    35 H    0.979
                            13 C    0.966
    15   6 C    3.979 --    37 H    0.983    38 H    0.981    39 H    0.979
                            13 C    0.969
    16   7 N    3.311 --    17 C    1.208    13 C    0.939    40 H    0.886
                            18 O    0.161
    17   6 C    3.908 --    18 O    1.595    16 N    1.208    19 C    1.009
    18   8 O    1.931 --    17 C    1.595    16 N    0.161
    19   6 C    3.878 --    20 N    1.611    24 O    1.045    17 C    1.009
    20   7 N    3.006 --    19 C    1.611    21 N    1.211
    21   7 N    2.983 --    22 C    1.598    20 N    1.211
    22   6 C    3.864 --    21 N    1.598    24 O    1.074    23 C    1.034
    23   6 C    3.984 --    22 C    1.034    42 H    0.982    43 H    0.961
                            41 H    0.960
    24   8 O    2.319 --    22 C    1.074    19 C    1.045
    25   7 N    3.084 --    12 C    1.783     5 C    1.108
    26   1 H    1.002 --     1 C    0.977
    27   1 H    1.007 --     1 C    0.985
    28   1 H    1.002 --     1 C    0.977
    29   1 H    0.828 --     7 O    0.746
    30   1 H    0.922 --    10 N    0.858
    31   1 H    0.992 --    11 C    0.985
    32   1 H    0.988 --    11 C    0.978
    33   1 H    1.003 --    11 C    0.960
    34   1 H    0.995 --    14 C    0.983
    35   1 H    0.993 --    14 C    0.979
    36   1 H    1.001 --    14 C    0.981
    37   1 H    1.001 --    15 C    0.983
    38   1 H    0.996 --    15 C    0.981
    39   1 H    1.010 --    15 C    0.979
    40   1 H    0.929 --    16 N    0.886
    41   1 H    0.995 --    23 C    0.960
    42   1 H    0.997 --    23 C    0.982
    43   1 H    0.995 --    23 C    0.961
 ---------------------------------------------------------------------------

           -------------------------------------------------
          | TOTAL ENERGY              -83.127701724376 Eh   |
          | GRADIENT NORM               0.000468398420 Eh/α |
          | HOMO-LUMO GAP               1.680565880026 eV   |
           -------------------------------------------------

 * finished run on 2023/06/20 at 15:45:50.084
