   * xtb version 6.5.1 (579679a) compiled by 'ehlert@majestix' on 2022-07-11
          program call               : /lustre/hpc/kemi/ree/PhD/git/ReactivityQM/dep/xtb-6.5.1/bin/xtb --gfn 1 /lustre/hpc/kemi/ree/PhD/git/ReactivityQM/calculations/R02methylcation/reac01prodE03/conf20/R02methylcation_reac01prodE03_conf20_gfn1.xyz --opt --vfukui --chrg -2 --uhf 0 --alpb DMSO

   ID    Z sym.   atoms
    1    6 C      1, 3, 5, 6, 8-11, 13, 15, 18, 19, 22, 24
    2    8 O      2, 4, 14, 20, 23, 25
    3    7 N      7, 12, 16, 17, 21
    4    1 H      26-42

      * Solvation model:               ALPB
        Solvent                        DMSO
        Solvent mass                       7.8130E+01 g/mol
          :  Hamiltonian                  GFN1-xTB          :
 * total energy  :   -83.5531921 Eh     change       -0.1296385E-08 Eh
 * total energy  :   -83.5685814 Eh     change       -0.1538933E-01 Eh
 * total energy  :   -83.5743708 Eh     change       -0.5789351E-02 Eh
 * total energy  :   -83.5757221 Eh     change       -0.1351337E-02 Eh
 * total energy  :   -83.5764084 Eh     change       -0.6862547E-03 Eh
 * total energy  :   -83.5766898 Eh     change       -0.2814040E-03 Eh
 * total energy  :   -83.5769185 Eh     change       -0.2287433E-03 Eh
 * total energy  :   -83.5771232 Eh     change       -0.2046309E-03 Eh
 * total energy  :   -83.5773069 Eh     change       -0.1837115E-03 Eh
 * total energy  :   -83.5774544 Eh     change       -0.1475243E-03 Eh
 * total energy  :   -83.5815358 Eh     change       -0.1186459E-04 Eh
 * total energy  :   -83.5815508 Eh     change       -0.1491798E-04 Eh
 * total energy  :   -83.5815549 Eh     change       -0.4122777E-05 Eh
 * total energy  :   -83.5815679 Eh     change       -0.1305353E-04 Eh
 * total energy  :   -83.5815764 Eh     change       -0.8513789E-05 Eh
 * total energy  :   -83.5815839 Eh     change       -0.7442446E-05 Eh
 * total energy  :   -83.5815878 Eh     change       -0.3894651E-05 Eh
 * total energy  :   -83.5815943 Eh     change       -0.6494253E-05 Eh
 * total energy  :   -83.5815979 Eh     change       -0.3675580E-05 Eh
   *** GEOMETRY OPTIMIZATION CONVERGED AFTER 68 ITERATIONS ***

 final structure:
================
42
 xtb: 6.5.1 (579679a)
C           -3.83669948975304        1.37256853054961        1.67131663689409
O           -3.76149021812692        1.74828530772470        0.30327411556277
C           -3.75881911196365        0.71216129213437       -0.63475587971194
O           -4.84137852987285        0.74634516979439       -1.49764208695786
C           -6.12262770454217        0.81009871266573       -0.89854207720694
C           -2.71380371142917       -0.18174751077038       -0.75812082311384
N           -1.65111934462090        0.03076171182989        0.12758156783463
C           -0.61015168525367       -0.73096576567424        0.07250890415584
C            0.54510453261257       -0.53909154905336        1.04193264628949
C            0.44375710748453        0.83746318325958        1.71345533745744
C            0.48404055564038       -1.65795827269339        2.09425546094679
N            1.77905864872966       -0.65649106623470        0.25594719553738
C            3.02288542309437       -0.36214963724133        0.84682101745497
O            3.24234863703496       -0.48267281206061        2.07225689206117
C            3.98126225226808        0.02590104230309       -0.13413961418980
N            3.74915807664711        0.18311004469755       -1.44464198295703
N            4.92770685444096        0.60198111240259       -1.99900567415808
C            5.79675287536756        0.68221814640181       -1.04584441114206
C            7.21562253431765        1.10175468894743       -1.16613702052867
O            5.29494132389783        0.33795065220324        0.16554387324271
N           -0.49545086967407       -1.74974526815540       -0.82083456015737
C           -1.49383526444540       -2.09729880579083       -1.74481248727326
O           -1.26277551937239       -3.07902238693162       -2.49923112430760
C           -2.68627279277692       -1.27627733219427       -1.72826609742769
O           -3.65624741177167       -1.51289422424481       -2.52185953044711
H           -4.67117906030194        0.68451141888174        1.85453762749049
H           -3.99620775777766        2.28670270756010        2.24636657483575
H           -2.90414490903679        0.89649445070032        2.00166761163360
H           -6.25009697725225        1.73603640111105       -0.32533443517259
H           -6.29755597761722       -0.04475085938225       -0.23192605468917
H           -6.85778513570251        0.79103522534631       -1.70499368676995
H            0.51132192187651        1.62637395440379        0.96411033609446
H           -0.51586747081475        0.92235320451749        2.22231819927191
H            1.24194785775984        0.96585913036540        2.44260949543326
H            1.27070670535808       -1.53357779637777        2.83621019348998
H            0.60450433916484       -2.62814106290284        1.61285588984108
H           -0.48227697355747       -1.63098728113179        2.59722193151009
H            1.69706068242693       -0.24034493653566       -0.66833061019715
H            7.40028445520022        1.99677748331708       -0.57121598235843
H            7.87841919396744        0.31554626157062       -0.80412140762981
H            7.44344245731332        1.31220124279649       -2.20847951180644
H            0.33546048106043       -2.32037450810316       -0.81804144883606

          :  Hamiltonian                  GFN1-xTB          :
         :: total energy             -83.581597949200 Eh    ::
         :: gradient norm              0.000339219694 Eh/a0 ::
         :: HOMO-LUMO gap              0.037641623458 eV    ::
         :: SCC energy               -84.302883832123 Eh    ::
         :: -> Gsolv                  -0.271852122437 Eh    ::
         :: repulsion energy           0.747071105418 Eh    ::

    * Orbital Energies and Occupations

         #    Occupation            Energy/Eh            Energy/eV
      -------------------------------------------------------------
         1        2.0000           -0.7988572             -21.7380
       ...           ...                  ...                  ...
        56        2.0000           -0.4444138             -12.0931
        57        2.0000           -0.4294505             -11.6859
        58        2.0000           -0.4277849             -11.6406
        59        2.0000           -0.4067148             -11.0673
        60        2.0000           -0.4055756             -11.0363
        61        2.0000           -0.4035287             -10.9806
        62        2.0000           -0.4024720             -10.9518
        63        2.0000           -0.3957071             -10.7677
        64        2.0000           -0.3867965             -10.5253
        65        2.0000           -0.3783897             -10.2965
        66        2.0000           -0.3464612              -9.4277
        67        2.0000           -0.3417091              -9.2984
        68        1.3487           -0.2673277              -7.2744 (HOMO)
        69        0.6513           -0.2659444              -7.2367 (LUMO)
        70                         -0.2085994              -5.6763
        71                         -0.2069435              -5.6312
        72                         -0.1802830              -4.9057
        73                         -0.1385788              -3.7709
        74                         -0.1237776              -3.3682
        75                         -0.1165647              -3.1719
        76                         -0.1111710              -3.0251
        77                         -0.0966200              -2.6292
        78                         -0.0921361              -2.5072
        79                         -0.0762533              -2.0750
       ...                                ...                  ...
       134                          0.7289489              19.8357
      -------------------------------------------------------------
                  HL-Gap            0.0013833 Eh            0.0376 eV

Wiberg/Mayer (AO) data.
largest (>0.10) Wiberg bond orders for each atom

     #   Z sym  total        # sym  WBO       # sym  WBO       # sym  WBO
 ---------------------------------------------------------------------------
     1   6 C    3.908 --    27 H    0.986    26 H    0.982    28 H    0.975
                             2 O    0.934
     2   8 O    2.011 --     3 C    0.941     1 C    0.934
     3   6 C    3.544 --     6 C    1.465     4 O    0.965     2 O    0.941
     4   8 O    2.034 --     3 C    0.965     5 C    0.939
     5   6 C    3.912 --    31 H    0.985    29 H    0.982    30 H    0.981
                             4 O    0.939
     6   6 C    3.940 --     3 C    1.465    24 C    1.115     7 N    1.104
     7   7 N    2.979 --     8 C    1.573     6 C    1.104    21 N    0.111
     8   6 C    3.912 --     7 N    1.573    21 N    1.163     9 C    0.975
     9   6 C    3.951 --    10 C    0.991    11 C    0.985     8 C    0.975
                            12 N    0.940
    10   6 C    3.993 --     9 C    0.991    32 H    0.986    34 H    0.984
                            33 H    0.983
    11   6 C    3.991 --    37 H    0.988    36 H    0.986     9 C    0.985
                            35 H    0.980
    12   7 N    3.131 --    13 C    1.065     9 C    0.940    38 H    0.920
                            14 O    0.103
    13   6 C    3.743 --    14 O    1.444    15 C    1.166    12 N    1.065
    14   8 O    1.683 --    13 C    1.444    12 N    0.103
    15   6 C    3.690 --    16 N    1.381    13 C    1.166    20 O    0.974
    16   7 N    2.733 --    15 C    1.381    17 N    1.185
    17   7 N    2.980 --    18 C    1.629    16 N    1.185
    18   6 C    3.818 --    17 N    1.629    20 O    1.048    19 C    1.023
    19   6 C    3.994 --    18 C    1.023    41 H    0.986    40 H    0.972
                            39 H    0.971
    20   8 O    2.178 --    18 C    1.048    15 C    0.974
    21   7 N    3.389 --     8 C    1.163    22 C    1.041    42 H    0.907
                             7 N    0.111
    22   6 C    3.770 --    23 O    1.423    24 C    1.140    21 N    1.041
    23   8 O    1.645 --    22 C    1.423
    24   6 C    3.811 --    25 O    1.391    22 C    1.140     6 C    1.115
    25   8 O    1.585 --    24 C    1.391
    26   1 H    1.015 --     1 C    0.982
    27   1 H    1.019 --     1 C    0.986
    28   1 H    1.043 --     1 C    0.975
    29   1 H    1.019 --     5 C    0.982
    30   1 H    1.012 --     5 C    0.981
    31   1 H    1.019 --     5 C    0.985
    32   1 H    1.011 --    10 C    0.986
    33   1 H    1.021 --    10 C    0.983
    34   1 H    1.014 --    10 C    0.984
    35   1 H    1.023 --    11 C    0.980
    36   1 H    1.010 --    11 C    0.986
    37   1 H    1.008 --    11 C    0.988
    38   1 H    0.983 --    12 N    0.920
    39   1 H    1.001 --    19 C    0.971
    40   1 H    1.001 --    19 C    0.972
    41   1 H    1.005 --    19 C    0.986
    42   1 H    0.966 --    21 N    0.907
 ---------------------------------------------------------------------------

           -------------------------------------------------
          | TOTAL ENERGY              -83.581597949200 Eh   |
          | GRADIENT NORM               0.000339219694 Eh/α |
          | HOMO-LUMO GAP               0.037641623458 eV   |
           -------------------------------------------------

 * finished run on 2023/06/21 at 17:07:42.562
