   * xtb version 6.5.1 (579679a) compiled by 'ehlert@majestix' on 2022-07-11
          program call               : /lustre/hpc/kemi/ree/PhD/git/ReactivityQM/dep/xtb-6.5.1/bin/xtb --gfn 1 /lustre/hpc/kemi/ree/PhD/git/ReactivityQM/calculations/R01/reac01/conf01/R01_reac01_conf01_gfn1.xyz --opt --vfukui --chrg 0 --uhf 0 --alpb DMSO

   ID    Z sym.   atoms
    1    6 C      1, 3, 5, 8, 9
    2    8 O      2, 4, 10
    3    7 N      6, 7
    4    1 H      11-16

      * Solvation model:               ALPB
        Solvent                        DMSO
        Solvent mass                       7.8130E+01 g/mol
          :  Hamiltonian                  GFN1-xTB          :
 * total energy  :   -34.2873846 Eh     change       -0.2160050E-11 Eh
 * total energy  :   -34.2928343 Eh     change       -0.5449737E-02 Eh
 * total energy  :   -34.2948848 Eh     change       -0.2050492E-02 Eh
 * total energy  :   -34.2954459 Eh     change       -0.5610919E-03 Eh
 * total energy  :   -34.2958482 Eh     change       -0.4023504E-03 Eh
 * total energy  :   -34.2960679 Eh     change       -0.2196900E-03 Eh
 * total energy  :   -34.2962115 Eh     change       -0.1435807E-03 Eh
 * total energy  :   -34.2963047 Eh     change       -0.9315282E-04 Eh
 * total energy  :   -34.2963526 Eh     change       -0.4790066E-04 Eh
 * total energy  :   -34.2963790 Eh     change       -0.2645948E-04 Eh
 * total energy  :   -34.2966439 Eh     change        0.7019462E-04 Eh
 * total energy  :   -34.2967332 Eh     change       -0.8930861E-04 Eh
 * total energy  :   -34.2967417 Eh     change       -0.8556049E-05 Eh
 * total energy  :   -34.2967541 Eh     change       -0.1234447E-04 Eh
 * total energy  :   -34.2967649 Eh     change       -0.1086618E-04 Eh
 * total energy  :   -34.2967720 Eh     change       -0.7026749E-05 Eh
 * total energy  :   -34.2967666 Eh     change        0.5366462E-05 Eh
 * total energy  :   -34.2967856 Eh     change       -0.1897958E-04 Eh
 * total energy  :   -34.2967895 Eh     change       -0.3899569E-05 Eh
   *** GEOMETRY OPTIMIZATION CONVERGED AFTER 38 ITERATIONS ***

 final structure:
================
16
 xtb: 6.5.1 (579679a)
C            3.30825008950013        0.48954040732431       -0.39315210501935
O            1.88250961450465        0.38131646744634       -0.29621177565231
C            1.38406705004913       -0.84025437377299       -0.17550223895700
O            2.04082819776124       -1.85292977819245       -0.14389710095136
C           -0.09554529138264       -0.83174554869482       -0.07843122712918
N           -0.86589785419038       -1.86958071831481        0.05564236771594
N           -2.14088096655111       -1.40618074312273        0.11182210088076
C           -2.07375797928995       -0.11215100596265        0.00844150000478
C           -3.19282061859308        0.85388799607718        0.01092989443103
O           -0.80926434507047        0.31155817571336       -0.11481527883158
H            3.53428323105461        1.55290182543578       -0.42088859105635
H            3.65654414844182        0.00087685949754       -1.30543263373534
H            3.77748943628331        0.02022022805254        0.47397153810847
H           -3.03378989202589        1.60529448183014        0.78361677411116
H           -3.24342147733701        1.36610310147165       -0.95018111096519
H           -4.12859534315435        0.33114262521163        0.19327388704545

          :  Hamiltonian                  GFN1-xTB          :
         :: total energy             -34.296789477365 Eh    ::
         :: gradient norm              0.000678804891 Eh/a0 ::
         :: HOMO-LUMO gap              3.732786729694 eV    ::
         :: SCC energy               -34.589977423880 Eh    ::
         :: -> Gsolv                  -0.021557342918 Eh    ::
         :: repulsion energy           0.299145542202 Eh    ::

    * Orbital Energies and Occupations

         #    Occupation            Energy/Eh            Energy/eV
      -------------------------------------------------------------
         1        2.0000           -0.8706630             -23.6919
       ...           ...                  ...                  ...
        15        2.0000           -0.5965722             -16.2336
        16        2.0000           -0.5708055             -15.5324
        17        2.0000           -0.5647515             -15.3677
        18        2.0000           -0.5495730             -14.9546
        19        2.0000           -0.5484351             -14.9237
        20        2.0000           -0.5371665             -14.6170
        21        2.0000           -0.5204085             -14.1610
        22        2.0000           -0.5120032             -13.9323
        23        2.0000           -0.5038837             -13.7114
        24        2.0000           -0.4942333             -13.4488
        25        2.0000           -0.4836848             -13.1617
        26        2.0000           -0.4620482             -12.5730
        27        2.0000           -0.4604639             -12.5299 (HOMO)
        28                         -0.3232865              -8.7971 (LUMO)
        29                         -0.2623767              -7.1396
        30                         -0.2088523              -5.6832
        31                         -0.1450509              -3.9470
        32                         -0.1403496              -3.8191
        33                         -0.0770387              -2.0963
        34                         -0.0769026              -2.0926
        35                         -0.0765326              -2.0826
        36                         -0.0755211              -2.0550
        37                          0.0024974               0.0680
        38                          0.0386854               1.0527
       ...                                ...                  ...
        52                          0.7373875              20.0653
      -------------------------------------------------------------
                  HL-Gap            0.1371774 Eh            3.7328 eV

Wiberg/Mayer (AO) data.
largest (>0.10) Wiberg bond orders for each atom

     #   Z sym  total        # sym  WBO       # sym  WBO       # sym  WBO
 ---------------------------------------------------------------------------
     1   6 C    3.861 --    11 H    0.985    13 H    0.979    12 H    0.979
                             2 O    0.887
     2   8 O    2.217 --     3 C    1.133     1 C    0.887     4 O    0.142
     3   6 C    3.866 --     4 O    1.660     2 O    1.133     5 C    0.991
     4   8 O    1.931 --     3 C    1.660     2 O    0.142
     5   6 C    3.880 --     6 N    1.608    10 O    1.056     3 C    0.991
     6   7 N    3.005 --     5 C    1.608     7 N    1.215
     7   7 N    2.981 --     8 C    1.592     6 N    1.215
     8   6 C    3.868 --     7 N    1.592    10 O    1.088     9 C    1.033
     9   6 C    3.985 --     8 C    1.033    16 H    0.982    14 H    0.964
                            15 H    0.960
    10   8 O    2.328 --     8 C    1.088     5 C    1.056
    11   1 H    1.009 --     1 C    0.985
    12   1 H    1.004 --     1 C    0.979
    13   1 H    1.005 --     1 C    0.979
    14   1 H    0.996 --     9 C    0.964
    15   1 H    0.996 --     9 C    0.960
    16   1 H    0.998 --     9 C    0.982
 ---------------------------------------------------------------------------

           -------------------------------------------------
          | TOTAL ENERGY              -34.296789477365 Eh   |
          | GRADIENT NORM               0.000678804891 Eh/α |
          | HOMO-LUMO GAP               3.732786729694 eV   |
           -------------------------------------------------

 * finished run on 2023/06/20 at 14:51:56.538
