   * xtb version 6.5.1 (579679a) compiled by 'ehlert@majestix' on 2022-07-11
          program call               : /lustre/hpc/kemi/ree/PhD/git/ReactivityQM/dep/xtb-6.5.1/bin/xtb --gfn 1 /lustre/hpc/kemi/ree/PhD/git/ReactivityQM/calculations/RaltegravirCLI/reac02prodE09/conf14/RaltegravirCLI_reac02prodE09_conf14_gfn1.xyz --opt --vfukui --chrg -1 --uhf 0 --alpb DMSO

   ID    Z sym.   atoms
    1    6 C      1, 3-6, 9, 10, 13-18, 20-22, 24
    2    7 N      2, 7, 8, 12
    3    8 O      11, 23, 25
    4    9 F      19
    5    1 H      26-47

      * Solvation model:               ALPB
        Solvent                        DMSO
        Solvent mass                       7.8130E+01 g/mol
          :  Hamiltonian                  GFN1-xTB          :
 * total energy  :   -80.1797691 Eh     change       -0.3064926E-08 Eh
 * total energy  :   -80.1898071 Eh     change       -0.1003807E-01 Eh
 * total energy  :   -80.1934378 Eh     change       -0.3630636E-02 Eh
 * total energy  :   -80.1946007 Eh     change       -0.1162952E-02 Eh
 * total energy  :   -80.1958676 Eh     change       -0.1266901E-02 Eh
 * total energy  :   -80.1971759 Eh     change       -0.1308320E-02 Eh
 * total energy  :   -80.1994597 Eh     change       -0.2283728E-02 Eh
 * total energy  :   -80.2026541 Eh     change       -0.3194384E-02 Eh
 * total energy  :   -80.2040492 Eh     change       -0.1395109E-02 Eh
 * total energy  :   -80.2071147 Eh     change       -0.3065538E-02 Eh
 * total energy  :   -80.2251015 Eh     change       -0.2160585E-04 Eh
 * total energy  :   -80.2251225 Eh     change       -0.2100553E-04 Eh
 * total energy  :   -80.2251332 Eh     change       -0.1078404E-04 Eh
 * total energy  :   -80.2251421 Eh     change       -0.8890895E-05 Eh
 * total energy  :   -80.2251534 Eh     change       -0.1131003E-04 Eh
 * total energy  :   -80.2251634 Eh     change       -0.9988986E-05 Eh
 * total energy  :   -80.2251705 Eh     change       -0.7044561E-05 Eh
 * total energy  :   -80.2251765 Eh     change       -0.6012384E-05 Eh
 * total energy  :   -80.2251815 Eh     change       -0.4981818E-05 Eh
   *** GEOMETRY OPTIMIZATION CONVERGED AFTER 99 ITERATIONS ***

 final structure:
================
47
 xtb: 6.5.1 (579679a)
C           -4.26516897473989        1.16139655016595        2.31150198288074
N           -3.16692863948225        0.84930766221665        1.39801364585865
C           -3.29133463785873        0.05558931774309        0.28277415058376
C           -4.60605264879549       -0.60244799166110       -0.16002754460195
C           -4.91229563850310       -1.82166994820160        0.72304792542979
C           -5.79295073692336        0.36859220258096       -0.21452269674116
N           -4.42191647745992       -1.10114604898920       -1.51906288868834
N           -2.27241908436696       -0.21095704317226       -0.47286976511542
C           -1.03392963118932        0.31015188880276       -0.23117448426366
C            0.03902643307592       -0.13972501314012       -1.18488893900518
O           -0.03900073918207       -1.20280346418221       -1.78734630537731
N            1.06941169995896        0.71434167631100       -1.32287417371834
C            2.19217916797839        0.41562639096115       -2.19784503289940
C            3.43597830981857        0.00632316531707       -1.43481228485703
C            4.60683206688784       -0.24667138637439       -2.14779995018941
C            5.76665311585649       -0.62328314790937       -1.48872067771018
C            5.78926241392206       -0.75664811174728       -0.09995920918879
C            7.05365951812861       -1.12987124282635        0.61314692993910
F            8.64144358883904        1.40245462974010        1.17475359856276
C            4.61370294705027       -0.50660964441249        0.60648886711525
C            3.45052255185394       -0.13116551578103       -0.05101051380174
C           -0.85262682030128        1.13368285253910        0.83944439922266
O            0.33098025460696        1.69626004417487        1.17171746465716
C           -1.95766258529730        1.44391113134181        1.72251868550465
O           -1.82160469061193        2.17952542613127        2.69895695176038
H           -4.88916594302632        0.28851919124793        2.46971353877783
H           -3.83249858002554        1.46849448495923        3.26357801849477
H           -4.85858451896917        1.98202677482894        1.91069117457550
H           -5.16319768580171       -1.53226614072211        1.74077544210359
H           -4.04965757747979       -2.48691986150876        0.75150983256223
H           -5.75765501942225       -2.35955585437128        0.29567345210084
H           -5.47781918654237        1.33839588939904       -0.59732474597668
H           -6.54162793091733       -0.04398495296208       -0.89077790051302
H           -6.25954160074569        0.50338359933618        0.75759412027747
H           -3.59926555463054       -1.69803316364848       -1.54569167691773
H           -4.24401130408431       -0.31611425938967       -2.13373703619009
H            1.07176001044508        1.59522035662083       -0.83764888864731
H            2.40341734579921        1.30183549873101       -2.80586095830842
H            1.88559711387852       -0.39193415336153       -2.87315891386428
H            4.60861179920225       -0.15028772059890       -3.22841062640763
H            6.66380027555430       -0.82305533965057       -2.06658097392979
H            6.83726484420158       -1.64405437119476        1.54964189940173
H            7.62844396798593       -0.21807628044929        0.84560314884713
H            7.67724183860206       -1.77209941009531       -0.00907964622923
H            4.59990488702450       -0.60991861007520        1.68702434123904
H            2.54910151864099        0.05889355728946        0.52105934905640
H            0.19212353673821        2.24536838468583        1.96595691373805

          :  Hamiltonian                  GFN1-xTB          :
         :: total energy             -80.225181475814 Eh    ::
         :: gradient norm              0.000590937316 Eh/a0 ::
         :: HOMO-LUMO gap              0.699234338905 eV    ::
         :: SCC energy               -81.117877927840 Eh    ::
         :: -> Gsolv                  -0.157010681726 Eh    ::
         :: repulsion energy           0.922078136357 Eh    ::

    * Orbital Energies and Occupations

         #    Occupation            Energy/Eh            Energy/eV
      -------------------------------------------------------------
         1        2.0000           -0.8242516             -22.4290
       ...           ...                  ...                  ...
        56        2.0000           -0.4623018             -12.5799
        57        2.0000           -0.4564808             -12.4215
        58        2.0000           -0.4497944             -12.2395
        59        2.0000           -0.4438903             -12.0789
        60        2.0000           -0.4304372             -11.7128
        61        2.0000           -0.4296558             -11.6915
        62        2.0000           -0.4234894             -11.5237
        63        2.0000           -0.4171343             -11.3508
        64        2.0000           -0.4096163             -11.1462
        65        2.0000           -0.4067321             -11.0677
        66        2.0000           -0.3313775              -9.0172
        67        2.0000           -0.3313746              -9.0172
        68        2.0000           -0.3308522              -9.0029 (HOMO)
        69        0.0000           -0.3051558              -8.3037 (LUMO)
        70                         -0.2706139              -7.3638
        71                         -0.2453345              -6.6759
        72                         -0.2410988              -6.5606
        73                         -0.2240505              -6.0967
        74                         -0.1491448              -4.0584
        75                         -0.1442885              -3.9263
        76                         -0.1263797              -3.4390
        77                         -0.1206057              -3.2818
        78                         -0.1164373              -3.1684
        79                         -0.1132601              -3.0820
       ...                                ...                  ...
       144                          0.7186985              19.5568
      -------------------------------------------------------------
                  HL-Gap            0.0256964 Eh            0.6992 eV

Wiberg/Mayer (AO) data.
largest (>0.10) Wiberg bond orders for each atom

     #   Z sym  total        # sym  WBO       # sym  WBO       # sym  WBO
 ---------------------------------------------------------------------------
     1   6 C    3.926 --    26 H    0.977    28 H    0.977    27 H    0.973
                             2 N    0.933
     2   7 N    3.506 --     3 C    1.168    24 C    1.128     1 C    0.933
                            25 O    0.132
     3   6 C    3.919 --     8 N    1.565     2 N    1.168     4 C    0.963
     4   6 C    3.969 --     7 N    0.997     6 C    0.992     5 C    0.983
                             3 C    0.963
     5   6 C    3.994 --    30 H    0.985    31 H    0.983     4 C    0.983
                            29 H    0.979
     6   6 C    3.994 --     4 C    0.992    32 H    0.986    33 H    0.983
                            34 H    0.982
     7   7 N    2.959 --     4 C    0.997    36 H    0.945    35 H    0.939
     8   7 N    3.040 --     3 C    1.565     9 C    1.201
     9   6 C    3.964 --    22 C    1.512     8 N    1.201    10 C    0.979
    10   6 C    3.908 --    11 O    1.578    12 N    1.272     9 C    0.979
    11   8 O    1.873 --    10 C    1.578    12 N    0.174
    12   7 N    3.360 --    10 C    1.272    13 C    0.947    37 H    0.897
                            11 O    0.174
    13   6 C    3.944 --    14 C    0.993    38 H    0.969    39 H    0.964
                            12 N    0.947
    14   6 C    3.985 --    21 C    1.420    15 C    1.406    13 C    0.993
                            17 C    0.105
    15   6 C    3.995 --    16 C    1.458    14 C    1.406    40 H    0.974
                            20 C    0.109
    16   6 C    3.995 --    15 C    1.458    17 C    1.400    41 H    0.973
                            21 C    0.107
    17   6 C    3.987 --    20 C    1.409    16 C    1.400    18 C    1.032
                            14 C    0.105
    18   6 C    3.989 --    17 C    1.032    42 H    0.984    44 H    0.983
                            43 H    0.927
    19   9 F    0.100
    20   6 C    3.995 --    21 C    1.446    17 C    1.409    45 H    0.973
                            15 C    0.109
    21   6 C    3.995 --    20 C    1.446    14 C    1.420    46 H    0.971
                            16 C    0.107
    22   6 C    3.918 --     9 C    1.512    24 C    1.097    23 O    1.066
    23   8 O    2.058 --    22 C    1.066    47 H    0.805
    24   6 C    3.916 --    25 O    1.537     2 N    1.128    22 C    1.097
    25   8 O    1.887 --    24 C    1.537     2 N    0.132
    26   1 H    1.008 --     1 C    0.977
    27   1 H    1.008 --     1 C    0.973
    28   1 H    1.003 --     1 C    0.977
    29   1 H    1.005 --     5 C    0.979
    30   1 H    1.003 --     5 C    0.985
    31   1 H    1.006 --     5 C    0.983
    32   1 H    1.001 --     6 C    0.986
    33   1 H    1.007 --     6 C    0.983
    34   1 H    1.004 --     6 C    0.982
    35   1 H    0.977 --     7 N    0.939
    36   1 H    0.967 --     7 N    0.945
    37   1 H    0.947 --    12 N    0.897
    38   1 H    1.007 --    13 C    0.969
    39   1 H    1.015 --    13 C    0.964
    40   1 H    1.001 --    15 C    0.974
    41   1 H    1.003 --    16 C    0.973
    42   1 H    1.006 --    18 C    0.984
    43   1 H    1.038 --    18 C    0.927
    44   1 H    1.006 --    18 C    0.983
    45   1 H    1.003 --    20 C    0.973
    46   1 H    1.011 --    21 C    0.971
    47   1 H    0.848 --    23 O    0.805
 ---------------------------------------------------------------------------

           -------------------------------------------------
          | TOTAL ENERGY              -80.225181475814 Eh   |
          | GRADIENT NORM               0.000590937316 Eh/α |
          | HOMO-LUMO GAP               0.699234338905 eV   |
           -------------------------------------------------

 * finished run on 2023/06/20 at 15:09:35.287
