   * xtb version 6.5.1 (579679a) compiled by 'ehlert@majestix' on 2022-07-11
          program call               : /lustre/hpc/kemi/ree/PhD/git/ReactivityQM/dep/xtb-6.5.1/bin/xtb --gfn 1 /lustre/hpc/kemi/ree/PhD/git/ReactivityQM/calculations/R02oxygendeprot/reac01prodN13/conf02/R02oxygendeprot_reac01prodN13_conf02_gfn1.xyz --opt --vfukui --chrg 0 --uhf 0 --alpb DMSO

   ID    Z sym.   atoms
    1    6 C      1, 3, 5, 7-10, 12, 14, 17-19, 22, 24
    2    8 O      2, 4, 13, 20, 23, 25
    3    7 N      6, 11, 15, 16, 21
    4    1 H      26-42

      * Solvation model:               ALPB
        Solvent                        DMSO
        Solvent mass                       7.8130E+01 g/mol
          :  Hamiltonian                  GFN1-xTB          :
 * total energy  :   -82.9260809 Eh     change       -0.1321609E-11 Eh
 * total energy  :   -82.9358581 Eh     change       -0.9777220E-02 Eh
 * total energy  :   -82.9397080 Eh     change       -0.3849878E-02 Eh
 * total energy  :   -82.9403336 Eh     change       -0.6256091E-03 Eh
 * total energy  :   -82.9408472 Eh     change       -0.5135787E-03 Eh
 * total energy  :   -82.9411381 Eh     change       -0.2908952E-03 Eh
 * total energy  :   -82.9413801 Eh     change       -0.2420016E-03 Eh
 * total energy  :   -82.9415807 Eh     change       -0.2005933E-03 Eh
 * total energy  :   -82.9417186 Eh     change       -0.1379290E-03 Eh
 * total energy  :   -82.9418119 Eh     change       -0.9332842E-04 Eh
 * total energy  :   -82.9425756 Eh     change       -0.1137500E-04 Eh
 * total energy  :   -82.9425874 Eh     change       -0.1179999E-04 Eh
 * total energy  :   -82.9425968 Eh     change       -0.9318133E-05 Eh
 * total energy  :   -82.9426042 Eh     change       -0.7480154E-05 Eh
 * total energy  :   -82.9426120 Eh     change       -0.7734276E-05 Eh
 * total energy  :   -82.9426200 Eh     change       -0.8050475E-05 Eh
 * total energy  :   -82.9426263 Eh     change       -0.6248011E-05 Eh
 * total energy  :   -82.9426314 Eh     change       -0.5162210E-05 Eh
 * total energy  :   -82.9426360 Eh     change       -0.4584300E-05 Eh
   *** GEOMETRY OPTIMIZATION CONVERGED AFTER 39 ITERATIONS ***

 final structure:
================
42
 xtb: 6.5.1 (579679a)
C            6.27567284134616        2.34178842362732       -1.17750802662335
O            5.37076535833498        1.63635644602337       -0.32713329089762
C            4.31819071180243        1.07385851820097       -0.92229328269302
O            4.12425532753839        1.14491042758802       -2.11896101715372
C            3.40929323381599        0.35328248262049        0.00677070483101
N            2.34658518910210       -0.19918346863704       -0.61206825222369
C            1.45463600846155       -0.87929547151447        0.05251506746422
C            0.28033754860162       -1.48108428816694       -0.70034829718846
C            0.24508919043764       -3.00548211957824       -0.54139666585984
C            0.37703207386106       -1.10739734682835       -2.17995544769971
N           -0.96397018747820       -0.87788113646674       -0.19259661778057
C           -1.54979608334921       -1.15653391335745        0.98618763011012
O           -1.11528762156567       -1.90370791482581        1.85200678818948
C           -2.82644530217906       -0.42809631644060        1.17268327747684
N           -3.60434436768492       -0.50571360301728        2.26339221529961
N           -4.62144152213910        0.25596764967439        2.09526117080267
C           -4.53372768317693        0.88933898720526        0.80623422023276
C           -4.43915924632980        2.40881056944687        0.96391420590721
C           -5.70861286062797        0.46650396042960       -0.07855449880275
O           -3.31123088825442        0.38363965156658        0.25944640267653
N            1.55152819616731       -1.06849978243130        1.38922139994091
C            2.56150852998062       -0.54363122096063        2.17599690463223
O            2.56671409959071       -0.73640044113632        3.37628038930200
C            3.61449349282284        0.25214757462257        1.42980549417421
O            4.54661205733570        0.75168542479530        2.05571871320149
H            6.72022912179714        1.65795122894861       -1.90495953668566
H            7.04699079780376        2.76247585677507       -0.53518457292375
H            5.74982574629156        3.13819102015908       -1.70976368795843
H            0.24170211636532       -3.29830442979612        0.50589823621245
H            1.12220457311703       -3.43358051683867       -1.02408006144570
H           -0.65049207218988       -3.39621003824641       -1.02026485432790
H           -0.47807293972831       -1.51021571021560       -2.71837001011614
H            0.39821760349138       -0.02488718589428       -2.29571205099941
H            1.29221335854484       -1.51976613187779       -2.60199545603162
H           -1.43651834326003       -0.23979789323612       -0.81242122815776
H           -3.56888087456690        2.65509324762328        1.56881490247441
H           -4.34281751090912        2.86592454985876       -0.01763766972191
H           -5.34020953915118        2.77211063915663        1.45166402998026
H           -6.63661006142320        0.80484854589478        0.37559402710429
H           -5.71899932167193       -0.61726413160099       -0.17125847389443
H           -5.59464932283039        0.91450907552531       -1.06241805073002
H            0.82716757191243       -1.59646021867089        1.86901626990027

          :  Hamiltonian                  GFN1-xTB          :
         :: total energy             -82.942636019371 Eh    ::
         :: gradient norm              0.000402270354 Eh/a0 ::
         :: HOMO-LUMO gap              0.047586639281 eV    ::
         :: SCC energy               -83.706995945553 Eh    ::
         :: -> Gsolv                  -0.069519519085 Eh    ::
         :: repulsion energy           0.790009061949 Eh    ::

    * Orbital Energies and Occupations

         #    Occupation            Energy/Eh            Energy/eV
      -------------------------------------------------------------
         1        2.0000           -0.8811760             -23.9780
       ...           ...                  ...                  ...
        55        2.0000           -0.5157968             -14.0355
        56        2.0000           -0.5108792             -13.9017
        57        2.0000           -0.5075666             -13.8116
        58        2.0000           -0.5032015             -13.6928
        59        2.0000           -0.4912202             -13.3668
        60        2.0000           -0.4856644             -13.2156
        61        2.0000           -0.4826105             -13.1325
        62        2.0000           -0.4761460             -12.9566
        63        2.0000           -0.4733006             -12.8792
        64        2.0000           -0.4668452             -12.7035
        65        2.0000           -0.4574960             -12.4491
        66        2.0000           -0.4233635             -11.5203
        67        1.4302           -0.4074877             -11.0883 (HOMO)
        68        0.5698           -0.4057389             -11.0407 (LUMO)
        69                         -0.3227810              -8.7833
        70                         -0.3095359              -8.4229
        71                         -0.2848002              -7.7498
        72                         -0.2348710              -6.3912
        73                         -0.2232999              -6.0763
        74                         -0.1571169              -4.2754
        75                         -0.1431370              -3.8950
        76                         -0.1376779              -3.7464
        77                         -0.1341341              -3.6500
        78                         -0.1323469              -3.6013
       ...                                ...                  ...
       134                          0.7466551              20.3175
      -------------------------------------------------------------
                  HL-Gap            0.0017488 Eh            0.0476 eV

Wiberg/Mayer (AO) data.
largest (>0.10) Wiberg bond orders for each atom

     #   Z sym  total        # sym  WBO       # sym  WBO       # sym  WBO
 ---------------------------------------------------------------------------
     1   6 C    3.875 --    27 H    0.986    28 H    0.979    26 H    0.979
                             2 O    0.902
     2   8 O    2.194 --     3 C    1.109     1 C    0.902     4 O    0.132
     3   6 C    3.841 --     4 O    1.634     2 O    1.109     5 C    1.021
     4   8 O    1.879 --     3 C    1.634     2 O    0.132
     5   6 C    3.713 --     6 N    1.305    24 C    1.159     3 C    1.021
     6   7 N    2.983 --     7 C    1.465     5 C    1.305
     7   6 C    3.789 --     6 N    1.465    21 N    1.213     8 C    0.969
     8   6 C    3.925 --    10 C    1.001     9 C    0.982     7 C    0.969
                            11 N    0.909
     9   6 C    3.980 --    30 H    0.984    31 H    0.982     8 C    0.982
                            29 H    0.978
    10   6 C    3.988 --     8 C    1.001    32 H    0.985    33 H    0.982
                            34 H    0.981
    11   7 N    3.339 --    12 C    1.270     8 C    0.909    35 H    0.887
                            13 O    0.187
    12   6 C    3.909 --    13 O    1.552    11 N    1.270    14 C    0.999
    13   8 O    1.892 --    12 C    1.552    11 N    0.187
    14   6 C    3.626 --    15 N    1.316    20 O    1.169    12 C    0.999
    15   7 N    3.000 --    16 N    1.543    14 C    1.316
    16   7 N    2.686 --    15 N    1.543    17 C    1.023
    17   6 C    3.834 --    16 N    1.023    18 C    0.939    19 C    0.939
                            20 O    0.870
    18   6 C    3.938 --    36 H    0.982    38 H    0.982    37 H    0.980
                            17 C    0.939
    19   6 C    3.937 --    40 H    0.982    39 H    0.982    41 H    0.980
                            17 C    0.939
    20   8 O    2.193 --    14 C    1.169    17 C    0.870
    21   7 N    3.431 --     7 C    1.213    22 C    1.112    42 H    0.853
                            23 O    0.110
    22   6 C    3.840 --    23 O    1.650    21 N    1.112    24 C    0.948
    23   8 O    1.868 --    22 C    1.650    21 N    0.110
    24   6 C    3.862 --    25 O    1.616     5 C    1.159    22 C    0.948
    25   8 O    1.791 --    24 C    1.616
    26   1 H    1.007 --     1 C    0.979
    27   1 H    1.011 --     1 C    0.986
    28   1 H    1.007 --     1 C    0.979
    29   1 H    1.007 --     9 C    0.978
    30   1 H    0.999 --     9 C    0.984
    31   1 H    0.997 --     9 C    0.982
    32   1 H    0.998 --    10 C    0.985
    33   1 H    1.004 --    10 C    0.982
    34   1 H    1.006 --    10 C    0.981
    35   1 H    0.930 --    11 N    0.887
    36   1 H    0.996 --    18 C    0.982
    37   1 H    0.996 --    18 C    0.980
    38   1 H    0.997 --    18 C    0.982
    39   1 H    0.997 --    19 C    0.982
    40   1 H    0.996 --    19 C    0.982
    41   1 H    0.996 --    19 C    0.980
    42   1 H    0.932 --    21 N    0.853
 ---------------------------------------------------------------------------

           -------------------------------------------------
          | TOTAL ENERGY              -82.942636019371 Eh   |
          | GRADIENT NORM               0.000402270354 Eh/α |
          | HOMO-LUMO GAP               0.047586639281 eV   |
           -------------------------------------------------

 * finished run on 2023/06/21 at 17:29:10.259
