   * xtb version 6.5.1 (579679a) compiled by 'ehlert@majestix' on 2022-07-11
          program call               : /lustre/hpc/kemi/ree/PhD/git/ReactivityQM/dep/xtb-6.5.1/bin/xtb --gfn 1 /lustre/hpc/kemi/ree/PhD/git/ReactivityQM/calculations/R02/reac01prodE09/conf11/R02_reac01prodE09_conf11_gfn1.xyz --opt --vfukui --chrg -1 --uhf 0 --alpb DMSO

   ID    Z sym.   atoms
    1    6 C      1, 3, 5, 7-10, 12, 14, 16, 17, 20, 22, 24
    2    8 O      2, 4, 13, 15, 23, 25
    3    7 N      6, 11, 18, 19, 21
    4    1 H      26-43

      * Solvation model:               ALPB
        Solvent                        DMSO
        Solvent mass                       7.8130E+01 g/mol
          :  Hamiltonian                  GFN1-xTB          :
 * total energy  :   -83.8330512 Eh     change       -0.2671641E-11 Eh
 * total energy  :   -83.8440643 Eh     change       -0.1101305E-01 Eh
 * total energy  :   -83.8478679 Eh     change       -0.3803693E-02 Eh
 * total energy  :   -83.8487699 Eh     change       -0.9019117E-03 Eh
 * total energy  :   -83.8497192 Eh     change       -0.9493438E-03 Eh
 * total energy  :   -83.8506385 Eh     change       -0.9192936E-03 Eh
 * total energy  :   -83.8520267 Eh     change       -0.1388175E-02 Eh
 * total energy  :   -83.8531862 Eh     change       -0.1159504E-02 Eh
 * total energy  :   -83.8543401 Eh     change       -0.1153903E-02 Eh
 * total energy  :   -83.8551556 Eh     change       -0.8154972E-03 Eh
 * total energy  :   -83.8571030 Eh     change       -0.5736449E-04 Eh
 * total energy  :   -83.8571374 Eh     change       -0.3438594E-04 Eh
 * total energy  :   -83.8571675 Eh     change       -0.3010977E-04 Eh
 * total energy  :   -83.8571836 Eh     change       -0.1603326E-04 Eh
 * total energy  :   -83.8572064 Eh     change       -0.2280708E-04 Eh
 * total energy  :   -83.8572149 Eh     change       -0.8539150E-05 Eh
 * total energy  :   -83.8572211 Eh     change       -0.6243998E-05 Eh
 * total energy  :   -83.8572265 Eh     change       -0.5376991E-05 Eh
 * total energy  :   -83.8572296 Eh     change       -0.3073667E-05 Eh
   *** GEOMETRY OPTIMIZATION CONVERGED AFTER 36 ITERATIONS ***

 final structure:
================
43
 xtb: 6.5.1 (579679a)
C            6.76769669773153        1.33454451292458        0.95391897066449
O            5.58686915956536        0.59173970391961        1.24017761195179
C            4.58328750908518        0.71038886530022        0.34374015032179
O            4.69035001773241        1.41101060377497       -0.65101698507461
C            3.38671200258310       -0.07137158282737        0.68092986673206
N            2.36498229819960        0.04728119970559       -0.23851610225020
C            1.25856079537843       -0.58982089547661       -0.06336643026431
C            0.15187673724281       -0.51848171492942       -1.09808568157613
C            0.38422012703561       -1.69142045463273       -2.06729019350615
C            0.21746464858608        0.82447392557047       -1.84006313072043
N           -1.11128395385865       -0.68810735007967       -0.37779513866848
C           -2.33701989745339       -0.53324635774211       -1.12872632339830
O           -2.39268170064103       -0.79258589612597       -2.36447059729925
C           -3.39264225967816       -0.08465232552434       -0.37371949001023
O           -3.35034053694777        0.15880184252097        1.01119689774577
C           -4.61936313216238        0.45325012673039        1.34168001053911
C           -4.92240772394505        0.79553150337850        2.75648247797811
N           -5.47392358325321        0.41580669218205        0.39149834912984
N           -4.77324173005321        0.00339883751516       -0.77828108257365
C           -5.03422197952196        0.93980018665804       -1.87885781698905
N            1.04952695949070       -1.41458055449738        1.00903637865615
C            1.99108770758886       -1.60428707681307        1.99908445268475
O            1.78658365472250       -2.34142150712804        2.96842876983650
C            3.21843661997522       -0.87855389486442        1.79430260951101
O            4.16408824544351       -1.05123840117072        2.74929834962584
H            7.18027734952355        1.04011160282705       -0.01557121458032
H            6.55126127643301        2.40672234164927        0.93763794742255
H            7.48132249927757        1.11123549908079        1.74507905442481
H            0.26965915480945       -2.63542576818136       -1.53585978831210
H           -0.33111133479649       -1.65717652494604       -2.88686554894789
H            1.39354799767468       -1.63319247360774       -2.47425553662679
H            1.21192735338004        0.96086324664503       -2.26425385882472
H           -0.51928012667025        0.84365466163344       -2.64148020454603
H            0.01524026196625        1.64227234246825       -1.14914378108964
H           -1.13748633817613       -0.08299307405456        0.43661520037406
H           -5.98358123236243        1.00604152679507        2.86504352255327
H           -4.34599735297846        1.67018708738313        3.05746038573217
H           -4.64579823642753       -0.03156778171189        3.41027639064926
H           -6.10333987376673        0.94293560545544       -2.08428702730607
H           -4.70513602858886        1.95145164185301       -1.62331055159559
H           -4.48961757483552        0.58230256092918       -2.75236488875198
H            0.16105064752017       -1.88785132724607        1.10196220913331
H            3.80244487514989       -1.65583215535226        3.42158176724843

          :  Hamiltonian                  GFN1-xTB          :
         :: total energy             -83.857229595110 Eh    ::
         :: gradient norm              0.000765236309 Eh/a0 ::
         :: HOMO-LUMO gap              0.090037038184 eV    ::
         :: SCC energy               -84.618839766552 Eh    ::
         :: -> Gsolv                  -0.107753834071 Eh    ::
         :: repulsion energy           0.787411654912 Eh    ::

    * Orbital Energies and Occupations

         #    Occupation            Energy/Eh            Energy/eV
      -------------------------------------------------------------
         1        2.0000           -0.8146023             -22.1665
       ...           ...                  ...                  ...
        56        2.0000           -0.4762542             -12.9595
        57        2.0000           -0.4678181             -12.7300
        58        2.0000           -0.4590226             -12.4906
        59        2.0000           -0.4586185             -12.4796
        60        2.0000           -0.4432022             -12.0601
        61        2.0000           -0.4345537             -11.8248
        62        2.0000           -0.4338813             -11.8065
        63        2.0000           -0.4235624             -11.5257
        64        2.0000           -0.4070192             -11.0756
        65        2.0000           -0.4045318             -11.0079
        66        2.0000           -0.4014488             -10.9240
        67        2.0000           -0.3841758             -10.4540
        68        1.7017           -0.3062522              -8.3335 (HOMO)
        69        0.2983           -0.3029434              -8.2435 (LUMO)
        70                         -0.2545242              -6.9260
        71                         -0.2252017              -6.1280
        72                         -0.2145349              -5.8378
        73                         -0.1492976              -4.0626
        74                         -0.1307618              -3.5582
        75                         -0.1285529              -3.4981
        76                         -0.1279146              -3.4807
        77                         -0.1040256              -2.8307
        78                         -0.1013770              -2.7586
        79                         -0.0999053              -2.7186
       ...                                ...                  ...
       136                          0.7141162              19.4321
      -------------------------------------------------------------
                  HL-Gap            0.0033088 Eh            0.0900 eV

Wiberg/Mayer (AO) data.
largest (>0.10) Wiberg bond orders for each atom

     #   Z sym  total        # sym  WBO       # sym  WBO       # sym  WBO
 ---------------------------------------------------------------------------
     1   6 C    3.888 --    28 H    0.987    27 H    0.980    26 H    0.980
                             2 O    0.915
     2   8 O    2.153 --     3 C    1.063     1 C    0.915     4 O    0.117
     3   6 C    3.784 --     4 O    1.596     2 O    1.063     5 C    1.059
     4   8 O    1.832 --     3 C    1.596     2 O    0.117
     5   6 C    3.876 --    24 C    1.412     6 N    1.162     3 C    1.059
     6   7 N    3.010 --     7 C    1.597     5 C    1.162
     7   6 C    3.904 --     6 N    1.597    21 N    1.152     8 C    0.979
     8   6 C    3.960 --    10 C    0.987     7 C    0.979     9 C    0.976
                            11 N    0.962
     9   6 C    3.991 --    31 H    0.988    29 H    0.987     8 C    0.976
                            30 H    0.975
    10   6 C    3.993 --     8 C    0.987    34 H    0.986    32 H    0.985
                            33 H    0.983
    11   7 N    3.079 --    12 C    0.974     8 C    0.962    35 H    0.931
    12   6 C    3.875 --    14 C    1.421    13 O    1.368    11 N    0.974
    13   8 O    1.683 --    12 C    1.368    14 C    0.124
    14   6 C    3.566 --    12 C    1.421    19 N    0.982    15 O    0.913
                            13 O    0.124
    15   8 O    2.182 --    16 C    1.068    14 C    0.913    18 N    0.113
    16   6 C    3.896 --    18 N    1.708    15 O    1.068    17 C    1.020
    17   6 C    3.993 --    16 C    1.020    36 H    0.986    38 H    0.970
                            37 H    0.970
    18   7 N    2.933 --    16 C    1.708    19 N    1.004    15 O    0.113
    19   7 N    3.075 --    18 N    1.004    14 C    0.982    20 C    0.950
    20   6 C    3.954 --    39 H    0.989    41 H    0.984    40 H    0.984
                            19 N    0.950
    21   7 N    3.399 --     7 C    1.152    22 C    1.110    42 H    0.883
                            23 O    0.117
    22   6 C    3.866 --    23 O    1.512    24 C    1.128    21 N    1.110
    23   8 O    1.816 --    22 C    1.512    21 N    0.117
    24   6 C    3.811 --     5 C    1.412    22 C    1.128    25 O    1.065
    25   8 O    2.025 --    24 C    1.065    43 H    0.821
    26   1 H    1.011 --     1 C    0.980
    27   1 H    1.010 --     1 C    0.980
    28   1 H    1.014 --     1 C    0.987
    29   1 H    1.009 --     9 C    0.987
    30   1 H    1.026 --     9 C    0.975
    31   1 H    1.007 --     9 C    0.988
    32   1 H    1.016 --    10 C    0.985
    33   1 H    1.015 --    10 C    0.983
    34   1 H    1.006 --    10 C    0.986
    35   1 H    0.970 --    11 N    0.931
    36   1 H    1.003 --    17 C    0.986
    37   1 H    1.001 --    17 C    0.970
    38   1 H    1.001 --    17 C    0.970
    39   1 H    1.019 --    20 C    0.989
    40   1 H    1.009 --    20 C    0.984
    41   1 H    1.030 --    20 C    0.984
    42   1 H    0.948 --    21 N    0.883
    43   1 H    0.863 --    25 O    0.821
 ---------------------------------------------------------------------------

           -------------------------------------------------
          | TOTAL ENERGY              -83.857229595110 Eh   |
          | GRADIENT NORM               0.000765236309 Eh/α |
          | HOMO-LUMO GAP               0.090037038184 eV   |
           -------------------------------------------------

 * finished run on 2023/06/20 at 15:09:33.773
