   * xtb version 6.5.1 (579679a) compiled by 'ehlert@majestix' on 2022-07-11
          program call               : /lustre/hpc/kemi/ree/PhD/git/ReactivityQM/dep/xtb-6.5.1/bin/xtb --gfn 1 /lustre/hpc/kemi/ree/PhD/git/ReactivityQM/calculations/R01/reac01prodE05/conf01/R01_reac01prodE05_conf01_gfn1.xyz --opt --vfukui --chrg -1 --uhf 0 --alpb DMSO

   ID    Z sym.   atoms
    1    6 C      1, 3, 5, 8-10
    2    8 O      2, 4, 11
    3    7 N      6, 7
    4    1 H      12-20

      * Solvation model:               ALPB
        Solvent                        DMSO
        Solvent mass                       7.8130E+01 g/mol
          :  Hamiltonian                  GFN1-xTB          :
 * total energy  :   -38.2551731 Eh     change       -0.1070077E-10 Eh
 * total energy  :   -38.2715253 Eh     change       -0.1635217E-01 Eh
 * total energy  :   -38.2766753 Eh     change       -0.5149992E-02 Eh
 * total energy  :   -38.2772550 Eh     change       -0.5797338E-03 Eh
 * total energy  :   -38.2776721 Eh     change       -0.4171281E-03 Eh
 * total energy  :   -38.2778156 Eh     change       -0.1435319E-03 Eh
 * total energy  :   -38.2778876 Eh     change       -0.7196550E-04 Eh
 * total energy  :   -38.2779262 Eh     change       -0.3862035E-04 Eh
 * total energy  :   -38.2779462 Eh     change       -0.1994188E-04 Eh
 * total energy  :   -38.2779641 Eh     change       -0.1794840E-04 Eh
 * total energy  :   -38.2779714 Eh     change       -0.7299057E-05 Eh
 * total energy  :   -38.2779743 Eh     change       -0.2925801E-05 Eh
   *** GEOMETRY OPTIMIZATION CONVERGED AFTER 12 ITERATIONS ***

 final structure:
================
20
 xtb: 6.5.1 (579679a)
C            4.13096801003608       -0.33498053738416       -0.08343884365401
O            2.79477146682119        0.09621093622472       -0.15369454686379
C            1.83025737636028       -0.93907403107962        0.16778042203977
O            2.26922425457281       -2.09547270500746        0.48597113795839
C            0.54367806033555       -0.52100927511739        0.08235092466253
N           -0.63588250935514       -1.27923258671231        0.32854516588208
N           -1.60846509058028       -0.40748889819657        0.10522880835226
C           -2.97667272223481       -0.84354292752880        0.24943363776030
C           -1.21297820377168        0.79231601758844       -0.26270852770101
C           -2.05191816887786        1.98630948634101       -0.54044113158280
O            0.15652022305984        0.84589942708298       -0.30036087651779
H            4.39877198171288       -0.68491092195575        0.92514303440207
H            4.76682599445471        0.51743532046088       -0.33803974815214
H            4.33771398057404       -1.15210258693199       -0.79133571017054
H           -2.97348642261065       -1.80461198244597        0.75943240778999
H           -3.53793208055941       -0.11473142686018        0.83163164547073
H           -3.43885384976925       -0.95108454035903       -0.73228488608156
H           -2.50549018426398        2.38241758188599        0.37237701025442
H           -2.85850213649280        1.74501034194888       -1.23412463606625
H           -1.42854997941157        2.76264430804650       -0.98055128778269

          :  Hamiltonian                  GFN1-xTB          :
         :: total energy             -38.277974345420 Eh    ::
         :: gradient norm              0.000551961009 Eh/a0 ::
         :: HOMO-LUMO gap              0.970642538360 eV    ::
         :: SCC energy               -38.591322880473 Eh    ::
         :: -> Gsolv                  -0.121768707618 Eh    ::
         :: repulsion energy           0.321488372673 Eh    ::

    * Orbital Energies and Occupations

         #    Occupation            Energy/Eh            Energy/eV
      -------------------------------------------------------------
         1        2.0000           -0.8003103             -21.7776
       ...           ...                  ...                  ...
        19        2.0000           -0.5141294             -13.9902
        20        2.0000           -0.5112173             -13.9109
        21        2.0000           -0.5035944             -13.7035
        22        2.0000           -0.4851016             -13.2003
        23        2.0000           -0.4659678             -12.6796
        24        2.0000           -0.4595971             -12.5063
        25        2.0000           -0.4553612             -12.3910
        26        2.0000           -0.4370848             -11.8937
        27        2.0000           -0.4068654             -11.0714
        28        2.0000           -0.4027892             -10.9605
        29        2.0000           -0.3698300             -10.0636
        30        2.0000           -0.3653705              -9.9422
        31        2.0000           -0.2579294              -7.0186 (HOMO)
        32                         -0.2222589              -6.0480 (LUMO)
        33                         -0.1397771              -3.8035
        34                         -0.1243925              -3.3849
        35                         -0.0997147              -2.7134
        36                         -0.0987720              -2.6877
        37                         -0.0806987              -2.1959
        38                         -0.0701769              -1.9096
        39                         -0.0536341              -1.4595
        40                         -0.0482358              -1.3126
        41                         -0.0382471              -1.0408
        42                         -0.0351346              -0.9561
       ...                                ...                  ...
        62                          0.7117033              19.3664
      -------------------------------------------------------------
                  HL-Gap            0.0356705 Eh            0.9706 eV

Wiberg/Mayer (AO) data.
largest (>0.10) Wiberg bond orders for each atom

     #   Z sym  total        # sym  WBO       # sym  WBO       # sym  WBO
 ---------------------------------------------------------------------------
     1   6 C    3.932 --    13 H    0.986    14 H    0.980    12 H    0.979
                             2 O    0.970
     2   8 O    2.001 --     1 C    0.970     3 C    0.856
     3   6 C    3.877 --     5 C    1.544     4 O    1.309     2 O    0.856
     4   8 O    1.639 --     3 C    1.309     5 C    0.168
     5   6 C    3.711 --     3 C    1.544     6 N    1.059    11 O    0.836
                             4 O    0.168
     6   7 N    2.758 --     7 N    1.185     5 C    1.059     9 C    0.329
     7   7 N    3.635 --     9 C    1.374     6 N    1.185     8 C    0.952
     8   6 C    3.956 --    15 H    0.985    16 H    0.984    17 H    0.980
                             7 N    0.952
     9   6 C    3.866 --     7 N    1.374    11 O    1.028    10 C    1.024
                             6 N    0.329
    10   6 C    3.994 --     9 C    1.024    20 H    0.983    19 H    0.977
                            18 H    0.969
    11   8 O    2.086 --     9 C    1.028     5 C    0.836
    12   1 H    1.028 --     1 C    0.979
    13   1 H    1.023 --     1 C    0.986
    14   1 H    1.027 --     1 C    0.980
    15   1 H    1.014 --     8 C    0.985
    16   1 H    1.003 --     8 C    0.984
    17   1 H    1.003 --     8 C    0.980
    18   1 H    1.004 --    10 C    0.969
    19   1 H    1.004 --    10 C    0.977
    20   1 H    1.003 --    10 C    0.983
 ---------------------------------------------------------------------------

           -------------------------------------------------
          | TOTAL ENERGY              -38.277974345420 Eh   |
          | GRADIENT NORM               0.000551961009 Eh/α |
          | HOMO-LUMO GAP               0.970642538360 eV   |
           -------------------------------------------------

 * finished run on 2023/06/20 at 14:53:58.479
