   * xtb version 6.5.1 (579679a) compiled by 'ehlert@majestix' on 2022-07-11
          program call               : /lustre/hpc/kemi/ree/PhD/git/ReactivityQM/dep/xtb-6.5.1/bin/xtb --gfn 1 /lustre/hpc/kemi/ree/PhD/git/ReactivityQM/calculations/R02methylcation/reac01prodE08/conf06/R02methylcation_reac01prodE08_conf06_gfn1.xyz --opt --vfukui --chrg -2 --uhf 0 --alpb DMSO

   ID    Z sym.   atoms
    1    6 C      1, 3, 5, 7-10, 12, 14, 15, 18, 19, 22, 24
    2    8 O      2, 4, 13, 20, 23, 25
    3    7 N      6, 11, 16, 17, 21
    4    1 H      26-42

      * Solvation model:               ALPB
        Solvent                        DMSO
        Solvent mass                       7.8130E+01 g/mol
          :  Hamiltonian                  GFN1-xTB          :
 * total energy  :   -83.6237575 Eh     change       -0.2061995E-10 Eh
 * total energy  :   -83.6374750 Eh     change       -0.1371754E-01 Eh
 * total energy  :   -83.6428660 Eh     change       -0.5391002E-02 Eh
 * total energy  :   -83.6440006 Eh     change       -0.1134547E-02 Eh
 * total energy  :   -83.6448623 Eh     change       -0.8617202E-03 Eh
 * total energy  :   -83.6453222 Eh     change       -0.4599367E-03 Eh
 * total energy  :   -83.6457545 Eh     change       -0.4322673E-03 Eh
 * total energy  :   -83.6462225 Eh     change       -0.4680514E-03 Eh
 * total energy  :   -83.6467434 Eh     change       -0.5208593E-03 Eh
 * total energy  :   -83.6473453 Eh     change       -0.6018621E-03 Eh
 * total energy  :   -83.6652294 Eh     change       -0.2106628E-04 Eh
 * total energy  :   -83.6652459 Eh     change       -0.1653139E-04 Eh
 * total energy  :   -83.6652720 Eh     change       -0.2611253E-04 Eh
 * total energy  :   -83.6652971 Eh     change       -0.2507071E-04 Eh
 * total energy  :   -83.6653141 Eh     change       -0.1696735E-04 Eh
 * total energy  :   -83.6653275 Eh     change       -0.1339196E-04 Eh
 * total energy  :   -83.6653413 Eh     change       -0.1381895E-04 Eh
 * total energy  :   -83.6653538 Eh     change       -0.1253767E-04 Eh
 * total energy  :   -83.6653579 Eh     change       -0.4090073E-05 Eh
   *** GEOMETRY OPTIMIZATION CONVERGED AFTER 44 ITERATIONS ***

 final structure:
================
42
 xtb: 6.5.1 (579679a)
C            6.16180230915843        1.15826159034697       -0.01273513752662
O            4.79231278194145        0.80912795319824       -0.01989640963392
C            4.52689306564435       -0.54994553861789       -0.15698133864958
O            5.47472709112164       -1.32736101710282       -0.26848789774590
C            3.12283067913721       -0.84787788018493       -0.14907054333092
N            2.27120418763749        0.24453599353874        0.00373469895696
C            0.99168608745739        0.02692999096301        0.00401950199877
C            0.11004739121428        1.26270316636647        0.22990021998917
C            0.64571208619031        2.46527682658039       -0.55087204977074
C            0.09093931887579        1.58060896465955        1.73006487839534
N           -1.26961749509772        0.95151517391368       -0.16489514729070
C           -1.58937829430502        0.48688978776867       -1.38368888671740
O           -0.96717364003719        0.69492839680651       -2.41632284633934
C           -2.83076037663091       -0.43485868702476       -1.37864504608290
C           -3.41657459312901       -0.59830057717986       -2.77874323357506
N           -2.39009606347937       -1.73778810248783       -0.83390333117288
N           -3.18880562021300       -1.96922047658909        0.31446346518520
C           -3.97491450487820       -0.98621487590345        0.44688558932253
C           -5.02549435825352       -0.82758485239570        1.48409225296821
O           -3.83338730758264        0.01741238638435       -0.47240732688003
N            0.36050748922246       -1.15790267772963       -0.12059323655381
C            1.09868058071743       -2.28144415691869       -0.27987691316562
O            0.54067433220297       -3.39480169234762       -0.41452625881512
C            2.61246698948024       -2.16800167029941       -0.29203388745248
O            3.30940614496155       -3.20441924247212       -0.42973976491987
H            6.22007345114062        2.24221915878812        0.08992019752260
H            6.68730927581480        0.68676792950335        0.82647433188875
H            6.65548356615692        0.85556544180188       -0.94420841261866
H            0.63791585287812        2.26598781594232       -1.62173547401326
H            0.04270549781351        3.35001849495038       -0.35088339331459
H            1.67344689345511        2.65323049561636       -0.23918339225483
H           -0.52029765643486        2.45897326636530        1.93316805548656
H            1.10849689082452        1.77223712589755        2.06940452316559
H           -0.31061673999206        0.73615606186413        2.29046828317590
H           -1.87614968326658        0.67203761317582        0.59047070279221
H           -3.79422894883051        0.35854751821499       -3.13288142302205
H           -4.23155060786784       -1.31781898027617       -2.75210591078906
H           -2.64129173160696       -0.95176625190863       -3.45645965558535
H           -4.90483712460087        0.12549709959787        1.99668531890185
H           -6.01122123781667       -0.83558399118572        1.01923779522673
H           -4.96063070340006       -1.64033767362969        2.20345772005395
H           -1.39829327561605       -1.64420090796257       -0.47885961783527

          :  Hamiltonian                  GFN1-xTB          :
         :: total energy             -83.665357898820 Eh    ::
         :: gradient norm              0.000491263449 Eh/a0 ::
         :: HOMO-LUMO gap              2.206050532631 eV    ::
         :: SCC energy               -84.397878394079 Eh    ::
         :: -> Gsolv                  -0.298934054558 Eh    ::
         :: repulsion energy           0.760505809963 Eh    ::

    * Orbital Energies and Occupations

         #    Occupation            Energy/Eh            Energy/eV
      -------------------------------------------------------------
         1        2.0000           -0.8057548             -21.9257
       ...           ...                  ...                  ...
        56        2.0000           -0.4411852             -12.0053
        57        2.0000           -0.4368248             -11.8866
        58        2.0000           -0.4306840             -11.7195
        59        2.0000           -0.4247755             -11.5587
        60        2.0000           -0.4133828             -11.2487
        61        2.0000           -0.4040051             -10.9935
        62        2.0000           -0.4005550             -10.8997
        63        2.0000           -0.3870014             -10.5308
        64        2.0000           -0.3690067             -10.0412
        65        2.0000           -0.3664821              -9.9725
        66        2.0000           -0.3583321              -9.7507
        67        2.0000           -0.3145186              -8.5585
        68        2.0000           -0.3122285              -8.4962 (HOMO)
        69                         -0.2311577              -6.2901 (LUMO)
        70                         -0.2239020              -6.0927
        71                         -0.2227479              -6.0613
        72                         -0.1800841              -4.9003
        73                         -0.1441240              -3.9218
        74                         -0.1288102              -3.5051
        75                         -0.1103805              -3.0036
        76                         -0.1097352              -2.9860
        77                         -0.1056374              -2.8745
        78                         -0.0959658              -2.6114
        79                         -0.0696520              -1.8953
       ...                                ...                  ...
       134                          0.7724412              21.0192
      -------------------------------------------------------------
                  HL-Gap            0.0810709 Eh            2.2061 eV

Wiberg/Mayer (AO) data.
largest (>0.10) Wiberg bond orders for each atom

     #   Z sym  total        # sym  WBO       # sym  WBO       # sym  WBO
 ---------------------------------------------------------------------------
     1   6 C    3.915 --    26 H    0.987    27 H    0.980    28 H    0.980
                             2 O    0.945
     2   8 O    2.104 --     3 C    0.976     1 C    0.945
     3   6 C    3.845 --     4 O    1.544     5 C    1.184     2 O    0.976
     4   8 O    1.832 --     3 C    1.544
     5   6 C    3.918 --    24 C    1.262     3 C    1.184     6 N    1.130
                            25 O    0.113
     6   7 N    2.996 --     7 C    1.551     5 C    1.130
     7   6 C    3.959 --     6 N    1.551    21 N    1.266     8 C    0.949
     8   6 C    3.921 --     9 C    0.996    10 C    0.991     7 C    0.949
                            11 N    0.909
     9   6 C    3.995 --     8 C    0.996    30 H    0.988    31 H    0.984
                            29 H    0.981
    10   6 C    3.995 --     8 C    0.991    32 H    0.987    34 H    0.984
                            33 H    0.984
    11   7 N    3.340 --    12 C    1.284    35 H    0.914     8 C    0.909
                            13 O    0.164
    12   6 C    3.899 --    13 O    1.592    11 N    1.284    14 C    0.916
    13   8 O    1.892 --    12 C    1.592    11 N    0.164
    14   6 C    3.879 --    15 C    0.992    16 N    0.952    12 C    0.916
                            20 O    0.908
    15   6 C    3.995 --    14 C    0.992    37 H    0.986    36 H    0.985
                            38 H    0.983
    16   7 N    3.033 --    17 N    1.015    14 C    0.952    42 H    0.854
    17   7 N    2.992 --    18 C    1.770    16 N    1.015    20 O    0.113
    18   6 C    3.896 --    17 N    1.770    19 C    1.021    20 O    1.003
    19   6 C    3.993 --    18 C    1.021    41 H    0.985    39 H    0.972
                            40 H    0.968
    20   8 O    2.124 --    18 C    1.003    14 C    0.908    17 N    0.113
    21   7 N    3.033 --    22 C    1.286     7 C    1.266    23 O    0.133
                            42 H    0.104
    22   6 C    3.910 --    23 O    1.478    21 N    1.286    24 C    0.974
    23   8 O    1.761 --    22 C    1.478    21 N    0.133
    24   6 C    3.933 --    25 O    1.486     5 C    1.262    22 C    0.974
    25   8 O    1.777 --    24 C    1.486     5 C    0.113
    26   1 H    1.019 --     1 C    0.987
    27   1 H    1.018 --     1 C    0.980
    28   1 H    1.019 --     1 C    0.980
    29   1 H    1.023 --     9 C    0.981
    30   1 H    1.006 --     9 C    0.988
    31   1 H    1.026 --     9 C    0.984
    32   1 H    1.003 --    10 C    0.987
    33   1 H    1.012 --    10 C    0.984
    34   1 H    1.005 --    10 C    0.984
    35   1 H    0.960 --    11 N    0.914
    36   1 H    1.006 --    15 C    0.985
    37   1 H    1.009 --    15 C    0.986
    38   1 H    1.013 --    15 C    0.983
    39   1 H    1.001 --    19 C    0.972
    40   1 H    1.002 --    19 C    0.968
    41   1 H    1.003 --    19 C    0.985
    42   1 H    1.016 --    16 N    0.854    21 N    0.104
 ---------------------------------------------------------------------------

           -------------------------------------------------
          | TOTAL ENERGY              -83.665357898820 Eh   |
          | GRADIENT NORM               0.000491263449 Eh/α |
          | HOMO-LUMO GAP               2.206050532631 eV   |
           -------------------------------------------------

 * finished run on 2023/06/21 at 17:19:00.920
