   * xtb version 6.5.1 (579679a) compiled by 'ehlert@majestix' on 2022-07-11
          program call               : /lustre/hpc/kemi/ree/PhD/git/ReactivityQM/dep/xtb-6.5.1/bin/xtb --gfn 1 /lustre/hpc/kemi/ree/PhD/git/ReactivityQM/calculations/R01/reac02prodN01/conf11/R01_reac02prodN01_conf11_gfn1.xyz --opt --vfukui --chrg 1 --uhf 0 --alpb DMSO

   ID    Z sym.   atoms
    1    6 C      1, 3, 5, 6, 8-11, 14, 16
    2    8 O      2, 4, 15, 17
    3    7 N      7, 12, 13
    4    1 H      18-33

      * Solvation model:               ALPB
        Solvent                        DMSO
        Solvent mass                       7.8130E+01 g/mol
          :  Hamiltonian                  GFN1-xTB          :
 * total energy  :   -57.8190879 Eh     change       -0.1134026E-10 Eh
 * total energy  :   -57.8416418 Eh     change       -0.2255395E-01 Eh
 * total energy  :   -57.8477876 Eh     change       -0.6145736E-02 Eh
 * total energy  :   -57.8489740 Eh     change       -0.1186481E-02 Eh
 * total energy  :   -57.8494119 Eh     change       -0.4378350E-03 Eh
 * total energy  :   -57.8495246 Eh     change       -0.1127509E-03 Eh
 * total energy  :   -57.8496094 Eh     change       -0.8473223E-04 Eh
 * total energy  :   -57.8496558 Eh     change       -0.4648462E-04 Eh
 * total energy  :   -57.8496848 Eh     change       -0.2898593E-04 Eh
 * total energy  :   -57.8497071 Eh     change       -0.2227930E-04 Eh
 * total energy  :   -57.8505649 Eh     change       -0.4339453E-04 Eh
 * total energy  :   -57.8505600 Eh     change        0.4902086E-05 Eh
 * total energy  :   -57.8505777 Eh     change       -0.1769986E-04 Eh
 * total energy  :   -57.8505880 Eh     change       -0.1038391E-04 Eh
 * total energy  :   -57.8506006 Eh     change       -0.1255753E-04 Eh
 * total energy  :   -57.8506106 Eh     change       -0.1002702E-04 Eh
 * total energy  :   -57.8506188 Eh     change       -0.8222982E-05 Eh
 * total energy  :   -57.8506247 Eh     change       -0.5870310E-05 Eh
 * total energy  :   -57.8506284 Eh     change       -0.3731119E-05 Eh
   *** GEOMETRY OPTIMIZATION CONVERGED AFTER 49 ITERATIONS ***

 final structure:
================
33
 xtb: 6.5.1 (579679a)
C            4.66944362999001       -0.40716607908795        0.35876573916924
O            3.34847893720611       -0.93326778278798        0.13675549980099
C            2.32808712451669       -0.14795755190109        0.13131121446967
O            2.57340904922788        1.10179706830462        0.33314644348862
C            1.62613774206873        2.18055529140605        0.35683376459745
C            1.03013138740423       -0.74357060859205       -0.10000500481258
N           -0.06373675186436        0.08975540968091       -0.03457924214654
C           -1.25428656442872       -0.38055194196671       -0.22831459276791
C           -2.44302911164292        0.56803813441492       -0.16584647167272
C           -2.36466590637010        1.37403442117611        1.13728941792022
C           -2.36480012685389        1.50047077706140       -1.38346464283292
N           -3.71085047815154       -0.13146969204180       -0.19763158432365
N           -1.47708211937850       -1.69482111840287       -0.50942101597284
C           -0.48156133266434       -2.62741715030287       -0.60814725940253
O           -0.66878068458039       -3.80189259750748       -0.86232764560415
C            0.86692500180552       -2.08708885539751       -0.37638267282795
O            1.85225279544803       -2.95865098772003       -0.46142863890504
H            4.71190682483408        0.06621039889521        1.34006316169221
H            5.34116209958872       -1.26103299000104        0.30765866584642
H            4.90445165731922        0.32395584835429       -0.41511595373472
H            1.06941116677325        2.21169298802771       -0.57893925388112
H            0.93884065533355        2.04942089743626        1.19204330988884
H            2.22189615872419        3.08358515452157        0.48464502360277
H           -1.43669450532081        1.94178094714357        1.17321277589807
H           -2.40119915673178        0.70381908050933        1.99477612219790
H           -3.20886991858862        2.06036629741327        1.18643582660272
H           -2.40995727341561        0.92026020422191       -2.30393987099500
H           -1.43104869440562        2.06025001257739       -1.36485787746737
H           -3.20278860442919        2.19515760034150       -1.35963679037100
H           -3.85779553708342       -0.58795148540926       -1.08516878945965
H           -3.77083834157664       -0.80963032396236        0.54731816197235
H           -2.42441994452956       -2.01524866244921       -0.65950911551099
H            1.48987382177272       -3.84343570395592       -0.67567370445966

          :  Hamiltonian                  GFN1-xTB          :
         :: total energy             -57.850628445077 Eh    ::
         :: gradient norm              0.000439927686 Eh/a0 ::
         :: HOMO-LUMO gap              1.301418387080 eV    ::
         :: SCC energy               -58.426320039226 Eh    ::
         :: -> Gsolv                  -0.095156936944 Eh    ::
         :: repulsion energy           0.594707519652 Eh    ::

    * Orbital Energies and Occupations

         #    Occupation            Energy/Eh            Energy/eV
      -------------------------------------------------------------
         1        2.0000           -0.9106500             -24.7800
       ...           ...                  ...                  ...
        35        2.0000           -0.5536874             -15.0666
        36        2.0000           -0.5452528             -14.8371
        37        2.0000           -0.5370267             -14.6132
        38        2.0000           -0.5259997             -14.3132
        39        2.0000           -0.5205393             -14.1646
        40        2.0000           -0.5182265             -14.1017
        41        2.0000           -0.5152476             -14.0206
        42        2.0000           -0.5075964             -13.8124
        43        2.0000           -0.4968767             -13.5207
        44        2.0000           -0.4886707             -13.2974
        45        2.0000           -0.4774924             -12.9932
        46        2.0000           -0.4587865             -12.4842
        47        2.0000           -0.4268032             -11.6139 (HOMO)
        48                         -0.3789769             -10.3125 (LUMO)
        49                         -0.3099264              -8.4335
        50                         -0.2878028              -7.8315
        51                         -0.1943518              -5.2886
        52                         -0.1710615              -4.6548
        53                         -0.1616681              -4.3992
        54                         -0.1392930              -3.7904
        55                         -0.1363056              -3.7091
        56                         -0.1269275              -3.4539
        57                         -0.1190073              -3.2384
        58                         -0.1032649              -2.8100
       ...                                ...                  ...
       100                          0.6933293              18.8665
      -------------------------------------------------------------
                  HL-Gap            0.0478262 Eh            1.3014 eV

Wiberg/Mayer (AO) data.
largest (>0.10) Wiberg bond orders for each atom

     #   Z sym  total        # sym  WBO       # sym  WBO       # sym  WBO
 ---------------------------------------------------------------------------
     1   6 C    3.825 --    19 H    0.982    20 H    0.973    18 H    0.973
                             2 O    0.855
     2   8 O    2.309 --     3 C    1.260     1 C    0.855
     3   6 C    3.815 --     2 O    1.260     4 O    1.249     6 C    1.119
     4   8 O    2.306 --     3 C    1.249     5 C    0.851
     5   6 C    3.816 --    23 H    0.979    21 H    0.972    22 H    0.970
                             4 O    0.851
     6   6 C    3.958 --    16 C    1.423     7 N    1.158     3 C    1.119
     7   7 N    3.032 --     8 C    1.568     6 C    1.158
     8   6 C    3.905 --     7 N    1.568    13 N    1.177     9 C    0.967
     9   6 C    3.965 --    12 N    1.002    10 C    0.983    11 C    0.976
                             8 C    0.967
    10   6 C    3.992 --    25 H    0.985     9 C    0.983    24 H    0.983
                            26 H    0.983
    11   6 C    3.991 --    28 H    0.985    27 H    0.985    29 H    0.982
                             9 C    0.976
    12   7 N    2.959 --     9 C    1.002    31 H    0.937    30 H    0.936
    13   7 N    3.485 --     8 C    1.177    14 C    1.153    32 H    0.868
                            15 O    0.141
    14   6 C    3.915 --    15 O    1.606    13 N    1.153    16 C    1.032
    15   8 O    1.933 --    14 C    1.606    13 N    0.141
    16   6 C    3.911 --     6 C    1.423    17 O    1.171    14 C    1.032
    17   8 O    2.143 --    16 C    1.171    33 H    0.783
    18   1 H    0.998 --     1 C    0.973
    19   1 H    1.002 --     1 C    0.982
    20   1 H    0.998 --     1 C    0.973
    21   1 H    1.014 --     5 C    0.972
    22   1 H    1.014 --     5 C    0.970
    23   1 H    1.002 --     5 C    0.979
    24   1 H    1.008 --    10 C    0.983
    25   1 H    1.000 --    10 C    0.985
    26   1 H    1.003 --    10 C    0.983
    27   1 H    0.999 --    11 C    0.985
    28   1 H    1.005 --    11 C    0.985
    29   1 H    1.001 --    11 C    0.982
    30   1 H    0.950 --    12 N    0.936
    31   1 H    0.950 --    12 N    0.937
    32   1 H    0.917 --    13 N    0.868
    33   1 H    0.825 --    17 O    0.783
 ---------------------------------------------------------------------------

           -------------------------------------------------
          | TOTAL ENERGY              -57.850628445077 Eh   |
          | GRADIENT NORM               0.000439927686 Eh/α |
          | HOMO-LUMO GAP               1.301418387080 eV   |
           -------------------------------------------------

 * finished run on 2023/06/20 at 15:03:33.378
