                         Program Version 5.0.1 -  RELEASE  -
|  1> # ORCA input file
|  2> ! SP r2SCAN-3c CPCM
|  3>
|  4> %maxcore 1875.0
|  5> %pal nprocs 4 end
|  6> %cpcm smd true SMDsolvent "DMSO" end
|  7>
|  8> *xyz 0 1
|  9> C      -4.416372    0.025924    2.123890
| 10> O      -3.476454    0.209466    1.052094
| 11> C      -3.915338   -0.016022   -0.171830
| 12> O      -5.039253   -0.324576   -0.460535
| 13> C      -2.790777    0.184288   -1.226800
| 14> C      -3.312148   -0.236442   -2.601394
| 15> N      -1.698029   -0.677638   -0.829653
| 16> C      -0.744691   -0.230860   -0.126109
| 17> C       0.337721   -1.163892    0.373386
| 18> C       0.064010   -1.478784    1.846731
| 19> C       0.374459   -2.442233   -0.468106
| 20> N       1.624837   -0.473725    0.288821
| 21> C       2.021244    0.115034   -0.863593
| 22> O       1.302376    0.270179   -1.836505
| 23> C       3.421758    0.595309   -0.819367
| 24> N       4.073273    1.228787   -1.744376
| 25> N       5.327340    1.449071   -1.260783
| 26> C       5.365002    0.935668   -0.070333
| 27> C       6.501723    0.914096    0.874842
| 28> O       4.190527    0.380278    0.269848
| 29> N      -0.641315    1.084216    0.307976
| 30> C      -1.430764    2.098608   -0.135043
| 31> O      -1.308352    3.241691    0.245092
| 32> C      -2.466856    1.666239   -1.180801
| 33> O      -3.009239    2.471340   -1.892207
| 34> H      -3.918559    0.364837    3.028922
| 35> H      -4.676081   -1.030697    2.205365
| 36> H      -5.316964    0.613122    1.934206
| 37> H      -2.523785   -0.122259   -3.342463
| 38> H      -3.624306   -1.277686   -2.566930
| 39> H      -4.161890    0.385737   -2.876923
| 40> H      -0.913832   -1.947519    1.945011
| 41> H       0.079849   -0.564865    2.437459
| 42> H       0.823129   -2.159083    2.227064
| 43> H      -0.576885   -2.963558   -0.376878
| 44> H       1.175107   -3.088954   -0.116587
| 45> H       0.543604   -2.194518   -1.515424
| 46> H       2.302092   -0.652908    1.009861
| 47> H       6.250697    1.485092    1.768785
| 48> H       7.381777    1.344271    0.402801
| 49> H       6.710474   -0.110780    1.179882
| 50> H       0.090891    1.315710    0.960603
| 51> **                         ****END OF INPUT****

CARTESIAN COORDINATES (ANGSTROEM)
---------------------------------
  C     -4.416372    0.025924    2.123890
  O     -3.476454    0.209466    1.052094
  C     -3.915338   -0.016022   -0.171830
  O     -5.039253   -0.324576   -0.460535
  C     -2.790777    0.184288   -1.226800
  C     -3.312148   -0.236442   -2.601394
  N     -1.698029   -0.677638   -0.829653
  C     -0.744691   -0.230860   -0.126109
  C      0.337721   -1.163892    0.373386
  C      0.064010   -1.478784    1.846731
  C      0.374459   -2.442233   -0.468106
  N      1.624837   -0.473725    0.288821
  C      2.021244    0.115034   -0.863593
  O      1.302376    0.270179   -1.836505
  C      3.421758    0.595309   -0.819367
  N      4.073273    1.228787   -1.744376
  N      5.327340    1.449071   -1.260783
  C      5.365002    0.935668   -0.070333
  C      6.501723    0.914096    0.874842
  O      4.190527    0.380278    0.269848
  N     -0.641315    1.084216    0.307976
  C     -1.430764    2.098608   -0.135043
  O     -1.308352    3.241691    0.245092
  C     -2.466856    1.666239   -1.180801
  O     -3.009239    2.471340   -1.892207
  H     -3.918559    0.364837    3.028922
  H     -4.676081   -1.030697    2.205365
  H     -5.316964    0.613122    1.934206
  H     -2.523785   -0.122259   -3.342463
  H     -3.624306   -1.277686   -2.566930
  H     -4.161890    0.385737   -2.876923
  H     -0.913832   -1.947519    1.945011
  H      0.079849   -0.564865    2.437459
  H      0.823129   -2.159083    2.227064
  H     -0.576885   -2.963558   -0.376878
  H      1.175107   -3.088954   -0.116587
  H      0.543604   -2.194518   -1.515424
  H      2.302092   -0.652908    1.009861
  H      6.250697    1.485092    1.768785
  H      7.381777    1.344271    0.402801
  H      6.710474   -0.110780    1.179882
  H      0.090891    1.315710    0.960603

 Total Charge           Charge          ....    0
 Multiplicity           Mult            ....    1
 Number of Electrons    NEL             ....  184
 Basis Dimension        Dim             ....  615

ORBITAL ENERGIES
----------------

  NO   OCC          E(Eh)            E(eV)
   0   2.0000     -19.067755      -518.8600
   1   2.0000     -19.017711      -517.4982
   2   2.0000     -18.973507      -516.2954
   3   2.0000     -18.955573      -515.8074
   4   2.0000     -18.949982      -515.6552
   5   2.0000     -18.941320      -515.4195
   6   2.0000     -14.219721      -386.9383
   7   2.0000     -14.207553      -386.6072
   8   2.0000     -14.206403      -386.5759
   9   2.0000     -14.199211      -386.3802
  10   2.0000     -14.158751      -385.2792
  11   2.0000     -10.174811      -276.8707
  12   2.0000     -10.162005      -276.5222
  13   2.0000     -10.158451      -276.4255
  14   2.0000     -10.149445      -276.1805
  15   2.0000     -10.145489      -276.0728
  16   2.0000     -10.145343      -276.0688
  17   2.0000     -10.127746      -275.5900
  18   2.0000     -10.105132      -274.9746
  19   2.0000     -10.102688      -274.9081
  20   2.0000     -10.083005      -274.3725
  21   2.0000     -10.045986      -273.3652
  22   2.0000     -10.030400      -272.9411
  23   2.0000     -10.024124      -272.7703
  24   2.0000     -10.019856      -272.6541
  25   2.0000      -1.157720       -31.5032
  26   2.0000      -1.094738       -29.7893
  27   2.0000      -1.052227       -28.6326
  28   2.0000      -1.031643       -28.0724
  29   2.0000      -1.025801       -27.9135
  30   2.0000      -1.004140       -27.3240
  31   2.0000      -0.978121       -26.6160
  32   2.0000      -0.965186       -26.2640
  33   2.0000      -0.917019       -24.9534
  34   2.0000      -0.880542       -23.9608
  35   2.0000      -0.834099       -22.6970
  36   2.0000      -0.790918       -21.5220
  37   2.0000      -0.751250       -20.4426
  38   2.0000      -0.715125       -19.4595
  39   2.0000      -0.705432       -19.1958
  40   2.0000      -0.685079       -18.6420
  41   2.0000      -0.670213       -18.2374
  42   2.0000      -0.665859       -18.1189
  43   2.0000      -0.631399       -17.1812
  44   2.0000      -0.612535       -16.6679
  45   2.0000      -0.604658       -16.4536
  46   2.0000      -0.587609       -15.9897
  47   2.0000      -0.561813       -15.2877
  48   2.0000      -0.547651       -14.9023
  49   2.0000      -0.536671       -14.6036
  50   2.0000      -0.526828       -14.3357
  51   2.0000      -0.517528       -14.0826
  52   2.0000      -0.506585       -13.7849
  53   2.0000      -0.496783       -13.5182
  54   2.0000      -0.468288       -12.7428
  55   2.0000      -0.463746       -12.6192
  56   2.0000      -0.458710       -12.4821
  57   2.0000      -0.455648       -12.3988
  58   2.0000      -0.435618       -11.8538
  59   2.0000      -0.432221       -11.7613
  60   2.0000      -0.425084       -11.5671
  61   2.0000      -0.421687       -11.4747
  62   2.0000      -0.417300       -11.3553
  63   2.0000      -0.412930       -11.2364
  64   2.0000      -0.408633       -11.1195
  65   2.0000      -0.404339       -11.0026
  66   2.0000      -0.392492       -10.6802
  67   2.0000      -0.388460       -10.5705
  68   2.0000      -0.382353       -10.4044
  69   2.0000      -0.376508       -10.2453
  70   2.0000      -0.370849       -10.0913
  71   2.0000      -0.364300        -9.9131
  72   2.0000      -0.358125        -9.7451
  73   2.0000      -0.356625        -9.7043
  74   2.0000      -0.352922        -9.6035
  75   2.0000      -0.350671        -9.5423
  76   2.0000      -0.346497        -9.4287
  77   2.0000      -0.338665        -9.2155
  78   2.0000      -0.332611        -9.0508
  79   2.0000      -0.329599        -8.9688
  80   2.0000      -0.323006        -8.7894
  81   2.0000      -0.316391        -8.6094
  82   2.0000      -0.295033        -8.0283
  83   2.0000      -0.290490        -7.9046
  84   2.0000      -0.271251        -7.3811
  85   2.0000      -0.269549        -7.3348
  86   2.0000      -0.265012        -7.2113
  87   2.0000      -0.261380        -7.1125
  88   2.0000      -0.253885        -6.9086
  89   2.0000      -0.247157        -6.7255
  90   2.0000      -0.239184        -6.5085
  91   2.0000      -0.220766        -6.0073
  92   0.0000      -0.117092        -3.1862
  93   0.0000      -0.091084        -2.4785
  94   0.0000      -0.057608        -1.5676
  95   0.0000      -0.022258        -0.6057
  96   0.0000      -0.002755        -0.0750

MULLIKEN ATOMIC CHARGES
-----------------------
   0 C :   -0.311848
   1 O :   -0.126952
   2 C :    0.198508
   3 O :   -0.364061
   4 C :    0.272913
   5 C :   -0.551315
   6 N :   -0.291736
   7 C :    0.345701
   8 C :   -0.054156
   9 C :   -0.545783
  10 C :   -0.579736
  11 N :   -0.171869
  12 C :   -0.113865
  13 O :   -0.420083
  14 C :    0.440994
  15 N :   -0.167981
  16 N :   -0.281589
  17 C :    0.397790
  18 C :   -0.632297
  19 O :   -0.056380
  20 N :   -0.085642
  21 C :    0.083293
  22 O :   -0.358622
  23 C :    0.140768
  24 O :   -0.283742
  25 H :    0.182847
  26 H :    0.184084
  27 H :    0.181403
  28 H :    0.188141
  29 H :    0.186542
  30 H :    0.189595
  31 H :    0.197984
  32 H :    0.192698
  33 H :    0.192663
  34 H :    0.186993
  35 H :    0.185292
  36 H :    0.193217
  37 H :    0.321146
  38 H :    0.203428
  39 H :    0.205686
  40 H :    0.200212
  41 H :    0.325763
Sum of atomic charges:   -0.0000000

LOEWDIN ATOMIC CHARGES
----------------------
   0 C :   -0.028642
   1 O :   -0.563344
   2 C :    0.403179
   3 O :   -0.389759
   4 C :    0.119819
   5 C :   -0.326316
   6 N :   -0.580043
   7 C :    0.355657
   8 C :    0.104761
   9 C :   -0.335948
  10 C :   -0.342293
  11 N :   -0.572577
  12 C :    0.383870
  13 O :   -0.430946
  14 C :    0.413896
  15 N :   -0.331293
  16 N :   -0.357490
  17 C :    0.380985
  18 C :   -0.316757
  19 O :   -0.389795
  20 N :   -0.457801
  21 C :    0.370329
  22 O :   -0.391274
  23 C :    0.325614
  24 O :   -0.385674
  25 H :    0.189749
  26 H :    0.185819
  27 H :    0.186766
  28 H :    0.174435
  29 H :    0.178188
  30 H :    0.181425
  31 H :    0.179914
  32 H :    0.176022
  33 H :    0.176941
  34 H :    0.177481
  35 H :    0.169761
  36 H :    0.179490
  37 H :    0.301446
  38 H :    0.193054
  39 H :    0.191578
  40 H :    0.191648
  41 H :    0.308127

  Mayer bond orders larger than 0.100000
B(  0-C ,  1-O ) :   0.8132 B(  0-C , 25-H ) :   0.9604 B(  0-C , 26-H ) :   0.9503
B(  0-C , 27-H ) :   0.9519 B(  1-O ,  2-C ) :   1.1045 B(  2-C ,  3-O ) :   1.9242
B(  2-C ,  4-C ) :   1.0010 B(  2-C , 23-C ) :   0.1152 B(  4-C ,  5-C ) :   0.8910
B(  4-C ,  6-N ) :   0.6917 B(  4-C , 23-C ) :   0.7183 B(  5-C , 28-H ) :   0.9753
B(  5-C , 29-H ) :   0.9655 B(  5-C , 30-H ) :   0.9726 B(  6-N ,  7-C ) :   1.8836
B(  7-C ,  8-C ) :   0.8103 B(  7-C , 13-O ) :   0.1528 B(  7-C , 20-N ) :   0.9374
B(  8-C ,  9-C ) :   0.9355 B(  8-C , 10-C ) :   0.9155 B(  8-C , 11-N ) :   0.7306
B(  8-C , 20-N ) :   0.1074 B(  9-C , 31-H ) :   0.9623 B(  9-C , 32-H ) :   0.9480
B(  9-C , 33-H ) :   0.9602 B( 10-C , 34-H ) :   0.9590 B( 10-C , 35-H ) :   0.9703
B( 10-C , 36-H ) :   0.9636 B( 11-N , 12-C ) :   1.1665 B( 11-N , 37-H ) :   0.8918
B( 12-C , 13-O ) :   1.8579 B( 12-C , 14-C ) :   0.7802 B( 12-C , 16-N ) :   0.1029
B( 13-O , 14-C ) :  -0.1030 B( 14-C , 15-N ) :   1.7218 B( 14-C , 17-C ) :   0.1225
B( 14-C , 19-O ) :   1.0756 B( 15-N , 16-N ) :   1.2695 B( 16-N , 17-C ) :   1.6184
B( 17-C , 18-C ) :   0.8255 B( 17-C , 19-O ) :   1.0663 B( 18-C , 38-H ) :   0.9384
B( 18-C , 39-H ) :   0.9892 B( 18-C , 40-H ) :   0.9462 B( 20-N , 21-C ) :   1.0349
B( 20-N , 41-H ) :   0.8753 B( 21-C , 22-O ) :   2.0837 B( 21-C , 23-C ) :   0.8175
B( 23-C , 24-O ) :   2.0360

Dispersion correction           -0.019811702
FINAL SINGLE POINT ENERGY     -1268.655510201810

DIPOLE MOMENT
-------------
                                X             Y             Z
Electronic contribution:      2.46657      12.96559      -7.35883
Nuclear contribution   :     -0.02612     -16.12757      12.68700
                        -----------------------------------------
Total Dipole Moment    :      2.44045      -3.16197       5.32816
                        -----------------------------------------
Magnitude (a.u.)       :      6.65907
Magnitude (Debye)      :     16.92601

Rotational constants in cm-1:     0.016084     0.003963     0.003763
Rotational constants in MHz :   482.180221   118.793254   112.809202

                             ****ORCA TERMINATED NORMALLY****
TOTAL RUN TIME: 0 days 0 hours 2 minutes 6 seconds 660 msec
