   * xtb version 6.5.1 (579679a) compiled by 'ehlert@majestix' on 2022-07-11
          program call               : /lustre/hpc/kemi/ree/PhD/git/ReactivityQM/dep/xtb-6.5.1/bin/xtb --gfn 1 /lustre/hpc/kemi/ree/PhD/git/ReactivityQM/calculations/R02methylcation/reac01prodN03/conf04/R02methylcation_reac01prodN03_conf04_gfn1.xyz --opt --vfukui --chrg 0 --uhf 0 --alpb DMSO

   ID    Z sym.   atoms
    1    6 C      1, 3, 5, 6, 8-11, 13, 15, 18, 19, 22, 24
    2    8 O      2, 4, 14, 20, 23, 25
    3    7 N      7, 12, 16, 17, 21
    4    1 H      26-42

      * Solvation model:               ALPB
        Solvent                        DMSO
        Solvent mass                       7.8130E+01 g/mol
          :  Hamiltonian                  GFN1-xTB          :
 * total energy  :   -82.9874912 Eh     change       -0.1278977E-10 Eh
 * total energy  :   -82.9977233 Eh     change       -0.1023209E-01 Eh
 * total energy  :   -83.0016977 Eh     change       -0.3974389E-02 Eh
 * total energy  :   -83.0027418 Eh     change       -0.1044100E-02 Eh
 * total energy  :   -83.0037435 Eh     change       -0.1001685E-02 Eh
 * total energy  :   -83.0044984 Eh     change       -0.7548871E-03 Eh
 * total energy  :   -83.0051295 Eh     change       -0.6311102E-03 Eh
 * total energy  :   -83.0056198 Eh     change       -0.4902881E-03 Eh
 * total energy  :   -83.0058809 Eh     change       -0.2611200E-03 Eh
 * total energy  :   -83.0060073 Eh     change       -0.1263994E-03 Eh
 * total energy  :   -83.0092895 Eh     change       -0.2239839E-04 Eh
 * total energy  :   -83.0093177 Eh     change       -0.2817201E-04 Eh
 * total energy  :   -83.0093420 Eh     change       -0.2435268E-04 Eh
 * total energy  :   -83.0093638 Eh     change       -0.2172479E-04 Eh
 * total energy  :   -83.0093905 Eh     change       -0.2673704E-04 Eh
 * total energy  :   -83.0094103 Eh     change       -0.1976870E-04 Eh
 * total energy  :   -83.0094195 Eh     change       -0.9237076E-05 Eh
 * total energy  :   -83.0094287 Eh     change       -0.9185097E-05 Eh
 * total energy  :   -83.0094329 Eh     change       -0.4173516E-05 Eh
   *** GEOMETRY OPTIMIZATION CONVERGED AFTER 70 ITERATIONS ***

 final structure:
================
42
 xtb: 6.5.1 (579679a)
C           -4.41637179823765        0.02592397632395        2.12388992150029
O           -3.47645444808244        0.20946615804936        1.05209375307515
C           -3.91533753622001       -0.01602231461438       -0.17183025053048
O           -5.03925309404452       -0.32457646469897       -0.46053527240897
C           -2.79077679135744        0.18428843612382       -1.22680028389895
C           -3.31214845814749       -0.23644175205677       -2.60139390443735
N           -1.69802928887757       -0.67763768433945       -0.82965271440322
C           -0.74469053642336       -0.23085989285769       -0.12610855546967
C            0.33772094216369       -1.16389224879880        0.37338633362577
C            0.06401029008433       -1.47878448124351        1.84673134081981
C            0.37445890790646       -2.44223278533818       -0.46810628144099
N            1.62483741266728       -0.47372511059825        0.28882078050358
C            2.02124413020482        0.11503418002507       -0.86359257095923
O            1.30237592300105        0.27017940414262       -1.83650475602717
C            3.42175782687043        0.59530850144585       -0.81936744670432
N            4.07327282752919        1.22878706479755       -1.74437572146769
N            5.32733966698683        1.44907149253053       -1.26078291101672
C            5.36500182401270        0.93566773198887       -0.07033310967928
C            6.50172346709040        0.91409589496786        0.87484163412761
O            4.19052741642136        0.38027839858548        0.26984771115904
N           -0.64131531995024        1.08421566517115        0.30797605803495
C           -1.43076424539346        2.09860762590472       -0.13504331480372
O           -1.30835201300844        3.24169126916762        0.24509213761203
C           -2.46685599215157        1.66623917452122       -1.18080060906036
O           -3.00923890351359        2.47134002710097       -1.89220734474785
H           -3.91855906126681        0.36483747104752        3.02892209911323
H           -4.67608084521871       -1.03069712286795        2.20536471117276
H           -5.31696367776547        0.61312184999084        1.93420601189087
H           -2.52378471464316       -0.12225920374258       -3.34246253835145
H           -3.62430586800135       -1.27768559165372       -2.56693024656616
H           -4.16189045923578        0.38573686271988       -2.87692349560168
H           -0.91383171500497       -1.94751861887684        1.94501080818778
H            0.07984881891567       -0.56486498282304        2.43745899204115
H            0.82312938297881       -2.15908295705240        2.22706425281845
H           -0.57688510512712       -2.96355815552451       -0.37687780592474
H            1.17510690447912       -3.08895410306731       -0.11658717979455
H            0.54360417585445       -2.19451813441034       -1.51542432915062
H            2.30209178416182       -0.65290752054375        1.00986091392582
H            6.25069724983924        1.48509206370114        1.76878490072208
H            7.38177726139115        1.34427090153412        0.40280061102134
H            6.71047411243114       -0.11078036179456        1.17988202823942
H            0.09089054668313        1.31571033705266        0.96060264284188

          :  Hamiltonian                  GFN1-xTB          :
         :: total energy             -83.009432859210 Eh    ::
         :: gradient norm              0.000653370046 Eh/a0 ::
         :: HOMO-LUMO gap              2.435591755754 eV    ::
         :: SCC energy               -83.797769572016 Eh    ::
         :: -> Gsolv                  -0.064581147098 Eh    ::
         :: repulsion energy           0.815947971742 Eh    ::

    * Orbital Energies and Occupations

         #    Occupation            Energy/Eh            Energy/eV
      -------------------------------------------------------------
         1        2.0000           -0.8672573             -23.5993
       ...           ...                  ...                  ...
        55        2.0000           -0.5124863             -13.9455
        56        2.0000           -0.5101504             -13.8819
        57        2.0000           -0.5069869             -13.7958
        58        2.0000           -0.5029335             -13.6855
        59        2.0000           -0.4955076             -13.4834
        60        2.0000           -0.4825386             -13.1305
        61        2.0000           -0.4723352             -12.8529
        62        2.0000           -0.4698993             -12.7866
        63        2.0000           -0.4618330             -12.5671
        64        2.0000           -0.4566368             -12.4257
        65        2.0000           -0.4530901             -12.3292
        66        2.0000           -0.4511395             -12.2761
        67        2.0000           -0.4394009             -11.9567 (HOMO)
        68                         -0.3498945              -9.5211 (LUMO)
        69                         -0.3147243              -8.5641
        70                         -0.2971894              -8.0869
        71                         -0.2690781              -7.3220
        72                         -0.2581401              -7.0244
        73                         -0.2247277              -6.1152
        74                         -0.2017921              -5.4910
        75                         -0.1475555              -4.0152
        76                         -0.1420299              -3.8648
        77                         -0.1356598              -3.6915
        78                         -0.1265524              -3.4437
       ...                                ...                  ...
       134                          0.7592987              20.6616
      -------------------------------------------------------------
                  HL-Gap            0.0895064 Eh            2.4356 eV

Wiberg/Mayer (AO) data.
largest (>0.10) Wiberg bond orders for each atom

     #   Z sym  total        # sym  WBO       # sym  WBO       # sym  WBO
 ---------------------------------------------------------------------------
     1   6 C    3.854 --    26 H    0.985    28 H    0.980    27 H    0.980
                             2 O    0.876
     2   8 O    2.211 --     3 C    1.147     1 C    0.876     4 O    0.139
     3   6 C    3.842 --     4 O    1.704     2 O    1.147     5 C    0.867
     4   8 O    1.983 --     3 C    1.704     2 O    0.139
     5   6 C    3.965 --     6 C    0.983     7 N    0.976    24 C    0.953
                             3 C    0.867
     6   6 C    3.985 --    29 H    0.984    30 H    0.984    31 H    0.983
                             5 C    0.983
     7   7 N    3.026 --     8 C    1.756     5 C    0.976
     8   6 C    3.928 --     7 N    1.756    21 N    1.066     9 C    0.974
     9   6 C    3.936 --    11 C    0.989    10 C    0.982     8 C    0.974
                            12 N    0.928
    10   6 C    3.989 --    32 H    0.984    33 H    0.983     9 C    0.982
                            34 H    0.981
    11   6 C    3.988 --     9 C    0.989    36 H    0.985    35 H    0.983
                            37 H    0.982
    12   7 N    3.336 --    13 C    1.242     9 C    0.928    38 H    0.890
                            14 O    0.172
    13   6 C    3.915 --    14 O    1.590    12 N    1.242    15 C    0.997
    14   8 O    1.892 --    13 C    1.590    12 N    0.172
    15   6 C    3.874 --    16 N    1.619    20 O    1.048    13 C    0.997
    16   7 N    3.001 --    15 C    1.619    17 N    1.201
    17   7 N    2.982 --    18 C    1.607    16 N    1.201
    18   6 C    3.867 --    17 N    1.607    20 O    1.074    19 C    1.032
    19   6 C    3.986 --    18 C    1.032    40 H    0.982    41 H    0.964
                            39 H    0.961
    20   8 O    2.317 --    18 C    1.074    15 C    1.048
    21   7 N    3.434 --    22 C    1.193     8 C    1.066    42 H    0.881
                            23 O    0.150
    22   6 C    3.893 --    23 O    1.666    21 N    1.193    24 C    0.906
    23   8 O    1.951 --    22 C    1.666    21 N    0.150
    24   6 C    3.846 --    25 O    1.809     5 C    0.953    22 C    0.906
    25   8 O    2.021 --    24 C    1.809
    26   1 H    1.008 --     1 C    0.985
    27   1 H    1.003 --     1 C    0.980
    28   1 H    1.004 --     1 C    0.980
    29   1 H    1.000 --     6 C    0.984
    30   1 H    1.004 --     6 C    0.984
    31   1 H    1.006 --     6 C    0.983
    32   1 H    1.000 --    10 C    0.984
    33   1 H    0.998 --    10 C    0.983
    34   1 H    0.996 --    10 C    0.981
    35   1 H    1.008 --    11 C    0.983
    36   1 H    1.000 --    11 C    0.985
    37   1 H    1.007 --    11 C    0.982
    38   1 H    0.930 --    12 N    0.890
    39   1 H    0.996 --    19 C    0.961
    40   1 H    0.998 --    19 C    0.982
    41   1 H    0.996 --    19 C    0.964
    42   1 H    0.930 --    21 N    0.881
 ---------------------------------------------------------------------------

           -------------------------------------------------
          | TOTAL ENERGY              -83.009432859210 Eh   |
          | GRADIENT NORM               0.000653370046 Eh/α |
          | HOMO-LUMO GAP               2.435591755754 eV   |
           -------------------------------------------------

 * finished run on 2023/06/21 at 17:32:25.795
