   * xtb version 6.5.1 (579679a) compiled by 'ehlert@majestix' on 2022-07-11
          program call               : /lustre/hpc/kemi/ree/PhD/git/ReactivityQM/dep/xtb-6.5.1/bin/xtb --gfn 1 /lustre/hpc/kemi/ree/PhD/git/ReactivityQM/calculations/R01/reac01prodN06/conf06/R01_reac01prodN06_conf06_gfn1.xyz --opt --vfukui --chrg 1 --uhf 0 --alpb DMSO

   ID    Z sym.   atoms
    1    6 C      1, 3, 5, 6, 9, 10
    2    8 O      2, 4, 11
    3    7 N      7, 8
    4    1 H      12-20

      * Solvation model:               ALPB
        Solvent                        DMSO
        Solvent mass                       7.8130E+01 g/mol
          :  Hamiltonian                  GFN1-xTB          :
 * total energy  :   -37.5806179 Eh     change       -0.1072920E-11 Eh
 * total energy  :   -37.5920532 Eh     change       -0.1143535E-01 Eh
 * total energy  :   -37.5963972 Eh     change       -0.4343973E-02 Eh
 * total energy  :   -37.5970567 Eh     change       -0.6595623E-03 Eh
 * total energy  :   -37.5974858 Eh     change       -0.4290111E-03 Eh
 * total energy  :   -37.5976253 Eh     change       -0.1395557E-03 Eh
 * total energy  :   -37.5977629 Eh     change       -0.1375595E-03 Eh
 * total energy  :   -37.5978664 Eh     change       -0.1035790E-03 Eh
 * total energy  :   -37.5979350 Eh     change       -0.6856205E-04 Eh
 * total energy  :   -37.5979963 Eh     change       -0.6127229E-04 Eh
 * total energy  :   -37.5982082 Eh     change       -0.7269472E-05 Eh
 * total energy  :   -37.5982079 Eh     change        0.2585351E-06 Eh
 * total energy  :   -37.5982145 Eh     change       -0.6540566E-05 Eh
 * total energy  :   -37.5982191 Eh     change       -0.4604311E-05 Eh
 * total energy  :   -37.5982263 Eh     change       -0.7263856E-05 Eh
 * total energy  :   -37.5982454 Eh     change       -0.1911308E-04 Eh
 * total energy  :   -37.5982535 Eh     change       -0.8096137E-05 Eh
 * total energy  :   -37.5982604 Eh     change       -0.6846670E-05 Eh
 * total energy  :   -37.5982643 Eh     change       -0.3901503E-05 Eh
   *** GEOMETRY OPTIMIZATION CONVERGED AFTER 24 ITERATIONS ***

 final structure:
================
20
 xtb: 6.5.1 (579679a)
C           -2.79931055609647       -1.16310501425523       -0.35185775416254
O           -1.46061692799052       -0.64365876219960       -0.15584348924996
C           -1.33382145310332        0.59490228744454        0.17413807607775
O           -2.15779502420918        1.42196379251303        0.39335778525259
C            0.22520478871394        0.97166227058842        0.31793207164076
C            0.41779600584739        2.46277755904684        0.08910623186419
N            0.57450166358758        0.48086422093249        1.59980028355371
N            1.35147193050511       -0.50242253856235        1.48372608925736
C            1.60092558003299       -0.68759379836582        0.14008908341606
C            2.46010875707635       -1.72077131970997       -0.41844097178822
O            0.97594755737688        0.17640150278082       -0.56562186087328
H           -3.21132539440253       -0.73856864238863       -1.26713939671292
H           -2.68616355754503       -2.24039804373187       -0.43918326305834
H           -3.42079776815628       -0.89741841668922        0.50350300119309
H           -0.22264393672899        3.00609462418637        0.78104648983640
H            1.46086682318557        2.71870053592577        0.25952727678282
H            0.14159544028214        2.70266965936654       -0.93536563973914
H            2.37454517051224       -1.75695596551512       -1.50215313888784
H            3.49440176650089       -1.50010366668129       -0.13688431397271
H            2.21511113461079       -2.68503728468674        0.03026243956980

          :  Hamiltonian                  GFN1-xTB          :
         :: total energy             -37.598264280481 Eh    ::
         :: gradient norm              0.000897196399 Eh/a0 ::
         :: HOMO-LUMO gap              2.231300728945 eV    ::
         :: SCC energy               -37.939479936512 Eh    ::
         :: -> Gsolv                  -0.080560513004 Eh    ::
         :: repulsion energy           0.350073604159 Eh    ::

    * Orbital Energies and Occupations

         #    Occupation            Energy/Eh            Energy/eV
      -------------------------------------------------------------
         1        2.0000           -0.9437135             -25.6798
       ...           ...                  ...                  ...
        18        2.0000           -0.6165094             -16.7761
        19        2.0000           -0.6119459             -16.6519
        20        2.0000           -0.6012667             -16.3613
        21        2.0000           -0.6011217             -16.3574
        22        2.0000           -0.5856363             -15.9360
        23        2.0000           -0.5805543             -15.7977
        24        2.0000           -0.5720626             -15.5666
        25        2.0000           -0.5669021             -15.4262
        26        2.0000           -0.5645723             -15.3628
        27        2.0000           -0.5506224             -14.9832
        28        2.0000           -0.5400932             -14.6967
        29        2.0000           -0.5357714             -14.5791
        30        2.0000           -0.5166578             -14.0590 (HOMO)
        31                         -0.4346590             -11.8277 (LUMO)
        32                         -0.3417110              -9.2984
        33                         -0.3170163              -8.6265
        34                         -0.1810903              -4.9277
        35                         -0.1647170              -4.4822
        36                         -0.1600305              -4.3547
        37                         -0.1132207              -3.0809
        38                         -0.1096620              -2.9841
        39                         -0.1016615              -2.7664
        40                         -0.0985575              -2.6819
        41                         -0.0978559              -2.6628
       ...                                ...                  ...
        62                          0.7483006              20.3623
      -------------------------------------------------------------
                  HL-Gap            0.0819988 Eh            2.2313 eV

Wiberg/Mayer (AO) data.
largest (>0.10) Wiberg bond orders for each atom

     #   Z sym  total        # sym  WBO       # sym  WBO       # sym  WBO
 ---------------------------------------------------------------------------
     1   6 C    3.814 --    13 H    0.981    14 H    0.979    12 H    0.976
                             2 O    0.836
     2   8 O    2.264 --     3 C    1.230     1 C    0.836     4 O    0.154
     3   6 C    3.864 --     4 O    1.743     2 O    1.230     5 C    0.746
     4   8 O    2.073 --     3 C    1.743     2 O    0.154
     5   6 C    3.837 --     7 N    1.076     6 C    0.934    11 O    0.905
                             3 C    0.746
     6   6 C    3.949 --    17 H    0.976    16 H    0.975    15 H    0.973
                             5 C    0.934
     7   7 N    3.010 --     8 N    1.682     5 C    1.076
     8   7 N    3.022 --     7 N    1.682     9 C    1.176
     9   6 C    3.801 --    11 O    1.307     8 N    1.176    10 C    1.087
    10   6 C    3.962 --     9 C    1.087    18 H    0.969    20 H    0.930
                            19 H    0.905
    11   8 O    2.395 --     9 C    1.307     5 C    0.905
    12   1 H    0.996 --     1 C    0.976
    13   1 H    1.002 --     1 C    0.981
    14   1 H    0.997 --     1 C    0.979
    15   1 H    0.995 --     6 C    0.973
    16   1 H    0.989 --     6 C    0.975
    17   1 H    0.990 --     6 C    0.976
    18   1 H    0.984 --    10 C    0.969
    19   1 H    0.977 --    10 C    0.905
    20   1 H    0.980 --    10 C    0.930
 ---------------------------------------------------------------------------

           -------------------------------------------------
          | TOTAL ENERGY              -37.598264280481 Eh   |
          | GRADIENT NORM               0.000897196399 Eh/α |
          | HOMO-LUMO GAP               2.231300728945 eV   |
           -------------------------------------------------

 * finished run on 2023/06/20 at 14:56:09.285
