   * xtb version 6.5.1 (579679a) compiled by 'ehlert@majestix' on 2022-07-11
          program call               : /lustre/hpc/kemi/ree/PhD/git/ReactivityQM/dep/xtb-6.5.1/bin/xtb --gfn 1 /lustre/hpc/kemi/ree/PhD/git/ReactivityQM/calculations/RaltegravirCLI/reac02prodN04/conf20/RaltegravirCLI_reac02prodN04_conf20_gfn1.xyz --opt --vfukui --chrg 1 --uhf 0 --alpb DMSO

   ID    Z sym.   atoms
    1    6 C      1, 3-6, 9-11, 14-18, 20-22, 24
    2    7 N      2, 7, 8, 13
    3    8 O      12, 23, 25
    4    9 F      19
    5    1 H      26-47

      * Solvation model:               ALPB
        Solvent                        DMSO
        Solvent mass                       7.8130E+01 g/mol
          :  Hamiltonian                  GFN1-xTB          :
 * total energy  :   -79.4961557 Eh     change       -0.2158629E-10 Eh
 * total energy  :   -79.5113146 Eh     change       -0.1515898E-01 Eh
 * total energy  :   -79.5167039 Eh     change       -0.5389237E-02 Eh
 * total energy  :   -79.5181642 Eh     change       -0.1460313E-02 Eh
 * total energy  :   -79.5193905 Eh     change       -0.1226274E-02 Eh
 * total energy  :   -79.5201076 Eh     change       -0.7171193E-03 Eh
 * total energy  :   -79.5207494 Eh     change       -0.6417764E-03 Eh
 * total energy  :   -79.5212826 Eh     change       -0.5332803E-03 Eh
 * total energy  :   -79.5217168 Eh     change       -0.4341101E-03 Eh
 * total energy  :   -79.5220274 Eh     change       -0.3106630E-03 Eh
 * total energy  :   -79.5240006 Eh     change       -0.3087854E-04 Eh
 * total energy  :   -79.5240298 Eh     change       -0.2922972E-04 Eh
 * total energy  :   -79.5240424 Eh     change       -0.1255927E-04 Eh
 * total energy  :   -79.5240698 Eh     change       -0.2745423E-04 Eh
 * total energy  :   -79.5240870 Eh     change       -0.1711295E-04 Eh
 * total energy  :   -79.5241014 Eh     change       -0.1443668E-04 Eh
 * total energy  :   -79.5241092 Eh     change       -0.7770541E-05 Eh
 * total energy  :   -79.5241175 Eh     change       -0.8345150E-05 Eh
 * total energy  :   -79.5241210 Eh     change       -0.3456923E-05 Eh
   *** GEOMETRY OPTIMIZATION CONVERGED AFTER 46 ITERATIONS ***

 final structure:
================
47
 xtb: 6.5.1 (579679a)
C           -3.51639552317830       -0.13015016380963       -2.56224611725321
N           -2.43826185280765       -0.45246234931916       -1.61542492675660
C           -2.32735200739745        0.06935894469851       -0.37387548173425
C           -3.54641050917739        0.66093741724596        0.35146923577036
C           -3.70642240144085        2.15914475226746        0.05780316606818
C           -4.84481440769387       -0.10200651921922        0.01103772108429
N           -3.32886007938053        0.48585739310975        1.78326942882493
N           -1.14906608988320       -0.04478498227745        0.24745326820841
C           -0.77971915426080        0.82744943858680        1.37833215290274
C           -0.13650039303246       -0.88870655303007       -0.19776827367570
C            1.03737699620708       -1.17320504335851        0.72036412461037
O            0.89496768849878       -1.25550184374393        1.92994995422701
N            2.19411684548687       -1.36722591091951        0.08141707723905
C            3.41484496441425       -1.70661496092852        0.80713884525339
C            4.35112233354397       -0.52198245357643        0.89662123060795
C            5.71668242179248       -0.69731346935802        0.68663033630531
C            6.59082141866236        0.37554411767302        0.79461912011000
C            6.07021372767978        1.61740308185448        1.11044736262149
F            6.90731781516569        2.65974640660789        1.21415577623655
C            4.71885130682545        1.82713566457609        1.32089982864341
C            3.86062647409889        0.74292931924712        1.21333504542969
C           -0.31313458642973       -1.54810281683484       -1.37157821961204
O            0.57923339540302       -2.41308791077733       -1.86013563937765
C           -1.48314157096929       -1.30016600754098       -2.19031087023152
O           -1.63021907314126       -1.78179549925234       -3.29544941729525
H           -4.24926606720317       -0.93430363365039       -2.57780680940067
H           -3.97482347524071        0.81543427557526       -2.30526975258794
H           -3.05800097765042       -0.05105802872474       -3.54825429879029
H           -4.60911985923580        2.51721102849574        0.55021862649898
H           -3.79511720968219        2.34369749139444       -1.01042158987333
H           -2.85573468142837        2.72219281614308        0.43679083340878
H           -5.35135673462973        0.29956633868756       -0.86182389508302
H           -5.52205494601078        0.00872058826262        0.85694990301459
H           -4.64675533163583       -1.16224606303185       -0.13310581790137
H           -3.98383082085897        1.06924143020369        2.28532020693837
H           -3.51213191650210       -0.47705962825180        2.03422071029624
H           -1.38100759034383        1.72683827793598        1.35661923979281
H            0.26836733292095        1.09471718289586        1.25683851340523
H           -0.92401424753213        0.30094376262776        2.31903596692808
H            2.25643607851645       -1.27034917868850       -0.91715240456919
H            3.89775022265533       -2.54160844468480        0.29273966625399
H            3.12227326037210       -2.03133670676340        1.81202749352742
H            6.10330437718010       -1.67821154296436        0.43637218933126
H            7.65396993792641        0.25217048818130        0.63339038460103
H            4.34834389717834        2.81459798843366        1.56287496514253
H            2.79831667574672        0.88394344554012        1.37161320265737
H            0.27857333646966       -2.74550293953478       -2.72650706179313

          :  Hamiltonian                  GFN1-xTB          :
         :: total energy             -79.524120962013 Eh    ::
         :: gradient norm              0.000466678077 Eh/a0 ::
         :: HOMO-LUMO gap              2.320159141855 eV    ::
         :: SCC energy               -80.424972010918 Eh    ::
         :: -> Gsolv                  -0.108247793546 Eh    ::
         :: repulsion energy           0.932149634844 Eh    ::

    * Orbital Energies and Occupations

         #    Occupation            Energy/Eh            Energy/eV
      -------------------------------------------------------------
         1        2.0000           -0.8794199             -23.9302
       ...           ...                  ...                  ...
        55        2.0000           -0.5210934             -14.1797
        56        2.0000           -0.5160332             -14.0420
        57        2.0000           -0.5146659             -14.0048
        58        2.0000           -0.5097168             -13.8701
        59        2.0000           -0.5082308             -13.8297
        60        2.0000           -0.5053326             -13.7508
        61        2.0000           -0.4819936             -13.1157
        62        2.0000           -0.4791450             -13.0382
        63        2.0000           -0.4701503             -12.7934
        64        2.0000           -0.4622926             -12.5796
        65        2.0000           -0.4591419             -12.4939
        66        2.0000           -0.4437234             -12.0743
        67        2.0000           -0.4374415             -11.9034 (HOMO)
        68                         -0.3521773              -9.5832 (LUMO)
        69                         -0.3492693              -9.5041
        70                         -0.2812059              -7.6520
        71                         -0.2748369              -7.4787
        72                         -0.2676306              -7.2826
        73                         -0.2093137              -5.6957
        74                         -0.1621269              -4.4117
        75                         -0.1544678              -4.2033
        76                         -0.1531601              -4.1677
        77                         -0.1478084              -4.0221
        78                         -0.1368016              -3.7226
       ...                                ...                  ...
       144                          0.6956993              18.9309
      -------------------------------------------------------------
                  HL-Gap            0.0852643 Eh            2.3202 eV

Wiberg/Mayer (AO) data.
largest (>0.10) Wiberg bond orders for each atom

     #   Z sym  total        # sym  WBO       # sym  WBO       # sym  WBO
 ---------------------------------------------------------------------------
     1   6 C    3.896 --    27 H    0.978    26 H    0.972    28 H    0.967
                             2 N    0.910
     2   7 N    3.528 --     3 C    1.279    24 C    1.072     1 C    0.910
                            25 O    0.119
     3   6 C    3.886 --     8 N    1.369     2 N    1.279     4 C    0.968
     4   6 C    3.954 --     7 N    0.993     5 C    0.978     6 C    0.978
                             3 C    0.968
     5   6 C    3.987 --    29 H    0.979     4 C    0.978    30 H    0.978
                            31 H    0.977
     6   6 C    3.987 --    34 H    0.984    32 H    0.979     4 C    0.978
                            33 H    0.978
     7   7 N    2.976 --     4 C    0.993    36 H    0.935    35 H    0.929
     8   7 N    3.576 --     3 C    1.369    10 C    1.101     9 C    0.901
     9   6 C    3.891 --    37 H    0.976    38 H    0.974    39 H    0.966
                             8 N    0.901
    10   6 C    3.922 --    22 C    1.536     8 N    1.101    11 C    0.957
    11   6 C    3.919 --    12 O    1.575    13 N    1.309    10 C    0.957
    12   8 O    1.911 --    11 C    1.575    13 N    0.186
    13   7 N    3.385 --    11 C    1.309    14 C    0.933    40 H    0.892
                            12 O    0.186
    14   6 C    3.934 --    15 C    0.996    41 H    0.972    42 H    0.960
                            13 N    0.933
    15   6 C    3.988 --    16 C    1.419    21 C    1.415    14 C    0.996
    16   6 C    3.993 --    17 C    1.442    15 C    1.419    43 H    0.970
                            20 C    0.110
    17   6 C    3.991 --    16 C    1.442    18 C    1.401    44 H    0.969
                            21 C    0.111
    18   6 C    3.862 --    17 C    1.401    20 C    1.398    19 F    0.929
    19   9 F    1.059 --    18 C    0.929
    20   6 C    3.992 --    21 C    1.447    18 C    1.398    45 H    0.969
                            16 C    0.110
    21   6 C    3.994 --    20 C    1.447    15 C    1.415    46 H    0.970
                            17 C    0.111
    22   6 C    3.928 --    10 C    1.536    23 O    1.108    24 C    1.066
    23   8 O    2.086 --    22 C    1.108    47 H    0.791
    24   6 C    3.909 --    25 O    1.622     2 N    1.072    22 C    1.066
    25   8 O    1.953 --    24 C    1.622     2 N    0.119
    26   1 H    0.997 --     1 C    0.972
    27   1 H    1.004 --     1 C    0.978
    28   1 H    0.999 --     1 C    0.967
    29   1 H    0.995 --     5 C    0.979
    30   1 H    1.001 --     5 C    0.978
    31   1 H    1.001 --     5 C    0.977
    32   1 H    1.000 --     6 C    0.979
    33   1 H    0.998 --     6 C    0.978
    34   1 H    0.997 --     6 C    0.984
    35   1 H    0.944 --     7 N    0.929
    36   1 H    0.948 --     7 N    0.935
    37   1 H    1.018 --     9 C    0.976
    38   1 H    1.003 --     9 C    0.974
    39   1 H    1.022 --     9 C    0.966
    40   1 H    0.937 --    13 N    0.892
    41   1 H    1.001 --    14 C    0.972
    42   1 H    1.007 --    14 C    0.960
    43   1 H    0.998 --    16 C    0.970
    44   1 H    0.997 --    17 C    0.969
    45   1 H    0.997 --    20 C    0.969
    46   1 H    1.002 --    21 C    0.970
    47   1 H    0.824 --    23 O    0.791
 ---------------------------------------------------------------------------

           -------------------------------------------------
          | TOTAL ENERGY              -79.524120962013 Eh   |
          | GRADIENT NORM               0.000466678077 Eh/α |
          | HOMO-LUMO GAP               2.320159141855 eV   |
           -------------------------------------------------

 * finished run on 2023/06/20 at 15:20:12.414
