   * xtb version 6.5.1 (579679a) compiled by 'ehlert@majestix' on 2022-07-11
          program call               : /lustre/hpc/kemi/ree/PhD/git/ReactivityQM/dep/xtb-6.5.1/bin/xtb --gfn 1 /lustre/hpc/kemi/ree/PhD/git/ReactivityQM/calculations/R02oxygendeprot/reac01prodN04/conf08/R02oxygendeprot_reac01prodN04_conf08_gfn1.xyz --opt --vfukui --chrg 0 --uhf 0 --alpb DMSO

   ID    Z sym.   atoms
    1    6 C      1, 3, 5, 6, 8-11, 13, 15, 18, 19, 22, 24
    2    8 O      2, 4, 14, 20, 23, 25
    3    7 N      7, 12, 16, 17, 21
    4    1 H      26-42

      * Solvation model:               ALPB
        Solvent                        DMSO
        Solvent mass                       7.8130E+01 g/mol
          :  Hamiltonian                  GFN1-xTB          :
 * total energy  :   -82.9677063 Eh     change       -0.8611778E-11 Eh
 * total energy  :   -82.9844726 Eh     change       -0.1676638E-01 Eh
 * total energy  :   -82.9907478 Eh     change       -0.6275154E-02 Eh
 * total energy  :   -82.9923081 Eh     change       -0.1560283E-02 Eh
 * total energy  :   -82.9929327 Eh     change       -0.6245728E-03 Eh
 * total energy  :   -82.9931475 Eh     change       -0.2148316E-03 Eh
 * total energy  :   -82.9932917 Eh     change       -0.1442285E-03 Eh
 * total energy  :   -82.9934105 Eh     change       -0.1188255E-03 Eh
 * total energy  :   -82.9935236 Eh     change       -0.1130586E-03 Eh
 * total energy  :   -82.9936276 Eh     change       -0.1039494E-03 Eh
 * total energy  :   -82.9942165 Eh     change       -0.7316597E-05 Eh
 * total energy  :   -82.9942238 Eh     change       -0.7279325E-05 Eh
 * total energy  :   -82.9942320 Eh     change       -0.8145292E-05 Eh
 * total energy  :   -82.9942430 Eh     change       -0.1106687E-04 Eh
 * total energy  :   -82.9942558 Eh     change       -0.1275072E-04 Eh
 * total energy  :   -82.9942681 Eh     change       -0.1230847E-04 Eh
 * total energy  :   -82.9942753 Eh     change       -0.7255063E-05 Eh
 * total energy  :   -82.9942811 Eh     change       -0.5718076E-05 Eh
 * total energy  :   -82.9942849 Eh     change       -0.3869787E-05 Eh
   *** GEOMETRY OPTIMIZATION CONVERGED AFTER 31 ITERATIONS ***

 final structure:
================
42
 xtb: 6.5.1 (579679a)
C           -3.52487753767643        1.75636099420944       -1.09231056249201
O           -4.28602969618815        1.26260877442083        0.00707488805000
C           -3.88448085199893        0.34028684013456        0.86577912431179
O           -4.77442385254235        0.07506916914303        1.80007243665289
C           -6.02240000402309        0.77046179571717        1.79953230267632
C           -2.66829164485792       -0.34899453517658        0.87538347994841
N           -1.74801916229704       -0.05051141315251       -0.12730748337547
C           -0.62169592413085       -0.65836423276341       -0.18072869892756
C            0.36409539829446       -0.35212595478976       -1.29896655978840
C            0.56904295700073       -1.59362028182875       -2.17711824162874
C           -0.15199799248698        0.80233853038046       -2.15749578509503
N            1.64027538078537        0.09953289018127       -0.72493049457679
C            2.59802114182603       -0.68004898020189       -0.18827779833836
O            2.51510133774917       -1.88128165995580        0.01606046758716
C            3.79696726306656        0.12088243054414        0.16251141687544
N            3.91813000248051        1.41003380916223        0.05288124558788
N            5.17101279043254        1.72439621142432        0.48396064649636
C            5.73554724864411        0.60601169632822        0.82839612089296
C            7.10523621159812        0.41022798164928        1.35179891056949
O            4.91676130167545       -0.44094929519427        0.65163111400877
N           -0.25593927170415       -1.62424247934719        0.72425864139492
C           -1.02977192217561       -2.02194379997433        1.77871029572974
O           -0.64209079709995       -2.87121725392146        2.56139620379458
C           -2.38339082364593       -1.33749307956703        1.89050072015477
O           -3.13482242139389       -1.65281994107511        2.80668383033413
H           -4.15347979511346        2.50695825306578       -1.57160140000698
H           -2.59621519195816        2.21115854950853       -0.74482370955929
H           -3.29862982185884        0.95360387002671       -1.79552262232071
H           -5.85758327465401        1.84576836269620        1.89166039190538
H           -6.57062246508232        0.56443153890377        0.87805940309132
H           -6.57638396575994        0.39810000470019        2.65959791591998
H            0.88811014780398       -2.45160534518008       -1.58968468951736
H           -0.37149248714841       -1.83621835352854       -2.66935312941366
H            1.32219049095900       -1.38350570541604       -2.93444156933847
H            0.57160424505331        1.03563032804172       -2.93636098846711
H           -1.09320660330466        0.52077386181572       -2.62537335580907
H           -0.31560224275889        1.68795131596523       -1.54562022210787
H            1.85254983367434        1.08026593020879       -0.83286515431034
H            7.06634816807677       -0.03758451470752        2.34486200922487
H            7.61652170436599        1.36834279041740        1.40341841119763
H            7.65843028807197       -0.26448842912872        0.69854537840428
H            0.65550183830310       -2.06418167373722        0.62661411025804

          :  Hamiltonian                  GFN1-xTB          :
         :: total energy             -82.994284925748 Eh    ::
         :: gradient norm              0.000405335820 Eh/a0 ::
         :: HOMO-LUMO gap              2.388480940658 eV    ::
         :: SCC energy               -83.771710689456 Eh    ::
         :: -> Gsolv                  -0.061350385701 Eh    ::
         :: repulsion energy           0.803441793065 Eh    ::

    * Orbital Energies and Occupations

         #    Occupation            Energy/Eh            Energy/eV
      -------------------------------------------------------------
         1        2.0000           -0.8648349             -23.5334
       ...           ...                  ...                  ...
        55        2.0000           -0.5071749             -13.8009
        56        2.0000           -0.5058575             -13.7651
        57        2.0000           -0.5003297             -13.6147
        58        2.0000           -0.4935482             -13.4301
        59        2.0000           -0.4840833             -13.1726
        60        2.0000           -0.4742489             -12.9050
        61        2.0000           -0.4677544             -12.7282
        62        2.0000           -0.4648213             -12.6484
        63        2.0000           -0.4547789             -12.3752
        64        2.0000           -0.4541321             -12.3576
        65        2.0000           -0.4436368             -12.0720
        66        2.0000           -0.4173046             -11.3554
        67        2.0000           -0.4124851             -11.2243 (HOMO)
        68                         -0.3247101              -8.8358 (LUMO)
        69                         -0.3132981              -8.5253
        70                         -0.2720580              -7.4031
        71                         -0.2579036              -7.0179
        72                         -0.2445556              -6.6547
        73                         -0.2015636              -5.4848
        74                         -0.1530853              -4.1657
        75                         -0.1523855              -4.1466
        76                         -0.1430288              -3.8920
        77                         -0.1423421              -3.8733
        78                         -0.1254593              -3.4139
       ...                                ...                  ...
       134                          0.7569746              20.5983
      -------------------------------------------------------------
                  HL-Gap            0.0877751 Eh            2.3885 eV

Wiberg/Mayer (AO) data.
largest (>0.10) Wiberg bond orders for each atom

     #   Z sym  total        # sym  WBO       # sym  WBO       # sym  WBO
 ---------------------------------------------------------------------------
     1   6 C    3.854 --    26 H    0.981    27 H    0.976    28 H    0.975
                             2 O    0.884
     2   8 O    2.222 --     3 C    1.129     1 C    0.884
     3   6 C    3.833 --     6 C    1.338     4 O    1.151     2 O    1.129
     4   8 O    2.237 --     3 C    1.151     5 C    0.889
     5   6 C    3.863 --    31 H    0.984    29 H    0.978    30 H    0.978
                             4 O    0.889
     6   6 C    3.922 --     3 C    1.338    24 C    1.161     7 N    1.107
     7   7 N    3.041 --     8 C    1.648     6 C    1.107
     8   6 C    3.934 --     7 N    1.648    21 N    1.121     9 C    0.968
     9   6 C    3.934 --    11 C    1.002    10 C    0.984     8 C    0.968
                            12 N    0.916
    10   6 C    3.987 --    33 H    0.985     9 C    0.984    34 H    0.983
                            32 H    0.978
    11   6 C    3.992 --     9 C    1.002    35 H    0.984    37 H    0.982
                            36 H    0.981
    12   7 N    3.348 --    13 C    1.266     9 C    0.916    38 H    0.893
                            14 O    0.177
    13   6 C    3.916 --    14 O    1.571    12 N    1.266    15 C    0.992
    14   8 O    1.921 --    13 C    1.571    12 N    0.177
    15   6 C    3.876 --    16 N    1.608    20 O    1.065    13 C    0.992
    16   7 N    3.018 --    15 C    1.608    17 N    1.202
    17   7 N    2.981 --    18 C    1.603    16 N    1.202
    18   6 C    3.870 --    17 N    1.603    20 O    1.084    19 C    1.032
    19   6 C    3.986 --    18 C    1.032    40 H    0.983    41 H    0.963
                            39 H    0.963
    20   8 O    2.332 --    18 C    1.084    15 C    1.065
    21   7 N    3.445 --    22 C    1.169     8 C    1.121    42 H    0.858
                            23 O    0.138
    22   6 C    3.886 --    23 O    1.631    21 N    1.169    24 C    0.940
    23   8 O    1.909 --    22 C    1.631    21 N    0.138
    24   6 C    3.919 --    25 O    1.633     6 C    1.161    22 C    0.940
    25   8 O    1.918 --    24 C    1.633
    26   1 H    1.008 --     1 C    0.981
    27   1 H    1.020 --     1 C    0.976
    28   1 H    1.020 --     1 C    0.975
    29   1 H    1.006 --     5 C    0.978
    30   1 H    1.005 --     5 C    0.978
    31   1 H    1.009 --     5 C    0.984
    32   1 H    1.009 --    10 C    0.978
    33   1 H    1.001 --    10 C    0.985
    34   1 H    0.999 --    10 C    0.983
    35   1 H    0.998 --    11 C    0.984
    36   1 H    1.007 --    11 C    0.981
    37   1 H    1.004 --    11 C    0.982
    38   1 H    0.949 --    12 N    0.893
    39   1 H    0.996 --    19 C    0.963
    40   1 H    0.998 --    19 C    0.983
    41   1 H    0.996 --    19 C    0.963
    42   1 H    0.937 --    21 N    0.858
 ---------------------------------------------------------------------------

           -------------------------------------------------
          | TOTAL ENERGY              -82.994284925748 Eh   |
          | GRADIENT NORM               0.000405335820 Eh/α |
          | HOMO-LUMO GAP               2.388480940658 eV   |
           -------------------------------------------------

 * finished run on 2023/06/21 at 17:20:15.553
