   * xtb version 6.5.1 (579679a) compiled by 'ehlert@majestix' on 2022-07-11
          program call               : /lustre/hpc/kemi/ree/PhD/git/ReactivityQM/dep/xtb-6.5.1/bin/xtb --gfn 1 /lustre/hpc/kemi/ree/PhD/git/ReactivityQM/calculations/R02deprot/reac01prodE13/conf18/R02deprot_reac01prodE13_conf18_gfn1.xyz --opt --vfukui --chrg -2 --uhf 0 --alpb DMSO

   ID    Z sym.   atoms
    1    6 C      1, 3, 5, 6, 8, 10, 12-15, 17, 19, 22, 23
    2    8 O      2, 4, 7, 9, 18, 24
    3    7 N      11, 16, 20, 21, 25
    4    1 H      26-42

      * Solvation model:               ALPB
        Solvent                        DMSO
        Solvent mass                       7.8130E+01 g/mol
          :  Hamiltonian                  GFN1-xTB          :
 * total energy  :   -83.5679121 Eh     change       -0.1346180E-08 Eh
 * total energy  :   -83.5823698 Eh     change       -0.1445775E-01 Eh
 * total energy  :   -83.5877257 Eh     change       -0.5355871E-02 Eh
 * total energy  :   -83.5886468 Eh     change       -0.9210790E-03 Eh
 * total energy  :   -83.5891001 Eh     change       -0.4533486E-03 Eh
 * total energy  :   -83.5892107 Eh     change       -0.1105732E-03 Eh
 * total energy  :   -83.5892735 Eh     change       -0.6282213E-04 Eh
 * total energy  :   -83.5893105 Eh     change       -0.3695359E-04 Eh
 * total energy  :   -83.5893449 Eh     change       -0.3438274E-04 Eh
 * total energy  :   -83.5893857 Eh     change       -0.4079966E-04 Eh
 * total energy  :   -83.5902365 Eh     change       -0.2306665E-04 Eh
 * total energy  :   -83.5902557 Eh     change       -0.1924755E-04 Eh
 * total energy  :   -83.5902872 Eh     change       -0.3143848E-04 Eh
 * total energy  :   -83.5903039 Eh     change       -0.1672271E-04 Eh
 * total energy  :   -83.5903212 Eh     change       -0.1728724E-04 Eh
 * total energy  :   -83.5903375 Eh     change       -0.1632232E-04 Eh
 * total energy  :   -83.5903442 Eh     change       -0.6704386E-05 Eh
 * total energy  :   -83.5903509 Eh     change       -0.6693319E-05 Eh
 * total energy  :   -83.5903540 Eh     change       -0.3123029E-05 Eh
   *** GEOMETRY OPTIMIZATION CONVERGED AFTER 43 ITERATIONS ***

 final structure:
================
42
 xtb: 6.5.1 (579679a)
C           -3.56427671697059        4.16857675617840        1.40791846705043
O           -3.54508494502829        2.81083301681465        1.03123499094597
C           -2.25297974398171        2.26801884197089        0.84181656930346
O           -1.26351394644000        3.02312712237725        1.01136751483515
C           -2.23163112055050        0.91080206616662        0.47888970181170
C           -3.35892228667819        0.03291426849260        0.28026021806120
O           -4.65939498900351        0.49888597040044        0.40245151570801
C           -3.12393721374548       -1.27500903359616       -0.03627989754377
O           -4.21626117987879       -2.11581305237575       -0.21863049797216
C           -3.91501723146550       -3.43329243135034       -0.63239615294774
N           -1.88125731744351       -1.80933155768988       -0.19159180742106
C           -0.87208653091289       -0.92518082854372       -0.02430272336548
C            0.52298615261414       -1.53112634954196       -0.19568408773100
C            0.56289533887433       -2.35950243500541       -1.48991493574553
C            0.79182703491854       -2.43849850007569        1.02177015113485
N            1.48738448763878       -0.44631877973911       -0.26935553765049
C            2.85599780583243       -0.64482650134547       -0.30070602295843
O            3.37994046433661       -1.76876982925010       -0.49566007623127
C            3.58283950900358        0.57774318937316       -0.14801037520147
N            3.06519055621812        1.79635730332567        0.05163123835323
N            4.12382560903604        2.65946597973914        0.13229424863957
C            5.20315231830802        1.96435725934881       -0.01302733106958
C            6.60020709132107        2.46747177159105       -0.00378518560544
O            4.96712952779342        0.64030957337393       -0.19375196452888
N           -0.96227741675936        0.33347793561529        0.28911929268264
H           -4.60977926637550        4.46082549643435        1.52425022916215
H           -3.04024968445421        4.33278526631252        2.35966664445214
H           -3.09809522858518        4.80801384566040        0.64555055664496
H           -5.26716067869931       -0.22199003196463        0.19892780030031
H           -3.39456416698138       -3.43825426840475       -1.59890464913176
H           -3.28429215297731       -3.94782825191031        0.10379897598173
H           -4.86356584079088       -3.96338942752991       -0.73019088654538
H            1.51209389248228       -2.88582123111983       -1.58405728991730
H            0.43313285883450       -1.70688550253173       -2.35461701604477
H           -0.24691230213876       -3.08885089634347       -1.47688239177603
H            0.80736094431256       -1.84404397026690        1.93617699447377
H            1.74459105081526       -2.95664988525571        0.91841377470981
H           -0.00618735716829       -3.17722590292419        1.09722724234268
H            1.15323863095257        0.44680888304072        0.09239335184026
H            7.11291820033343        2.18293468445383       -0.92268090589710
H            6.59563580440589        3.55115093196656        0.08442723744011
H            7.15509903900549        2.04374250414356        0.83397801937814

          :  Hamiltonian                  GFN1-xTB          :
         :: total energy             -83.590354021054 Eh    ::
         :: gradient norm              0.000653338475 Eh/a0 ::
         :: HOMO-LUMO gap              0.034490044271 eV    ::
         :: SCC energy               -84.313955465329 Eh    ::
         :: -> Gsolv                  -0.278865423576 Eh    ::
         :: repulsion energy           0.748458375047 Eh    ::

    * Orbital Energies and Occupations

         #    Occupation            Energy/Eh            Energy/eV
      -------------------------------------------------------------
         1        2.0000           -0.7935461             -21.5935
       ...           ...                  ...                  ...
        56        2.0000           -0.4374585             -11.9039
        57        2.0000           -0.4251376             -11.5686
        58        2.0000           -0.4229793             -11.5099
        59        2.0000           -0.3995523             -10.8724
        60        2.0000           -0.3960784             -10.7778
        61        2.0000           -0.3905819             -10.6283
        62        2.0000           -0.3876117             -10.5475
        63        2.0000           -0.3840118             -10.4495
        64        2.0000           -0.3830548             -10.4235
        65        2.0000           -0.3755813             -10.2201
        66        2.0000           -0.3626231              -9.8675
        67        2.0000           -0.3498297              -9.5194
        68        1.3217           -0.2578758              -7.0172 (HOMO)
        69        0.6783           -0.2566084              -6.9827 (LUMO)
        70                         -0.2041728              -5.5558
        71                         -0.1957837              -5.3275
        72                         -0.1549693              -4.2169
        73                         -0.1299733              -3.5368
        74                         -0.1227845              -3.3411
        75                         -0.1117533              -3.0410
        76                         -0.1060918              -2.8869
        77                         -0.0894451              -2.4339
        78                         -0.0848903              -2.3100
        79                         -0.0719153              -1.9569
       ...                                ...                  ...
       134                          0.6925195              18.8444
      -------------------------------------------------------------
                  HL-Gap            0.0012675 Eh            0.0345 eV

Wiberg/Mayer (AO) data.
largest (>0.10) Wiberg bond orders for each atom

     #   Z sym  total        # sym  WBO       # sym  WBO       # sym  WBO
 ---------------------------------------------------------------------------
     1   6 C    3.924 --    26 H    0.987    28 H    0.980    27 H    0.980
                             2 O    0.958
     2   8 O    2.038 --     1 C    0.958     3 C    0.920
     3   6 C    3.733 --     4 O    1.416     5 C    1.296     2 O    0.920
     4   8 O    1.649 --     3 C    1.416
     5   6 C    3.759 --     3 C    1.296     6 C    1.157    25 N    1.096
     6   6 C    3.803 --     8 C    1.482     5 C    1.157     7 O    0.989
     7   8 O    1.956 --     6 C    0.989    29 H    0.857
     8   6 C    3.804 --     6 C    1.482    11 N    1.198     9 O    0.955
     9   8 O    2.065 --     8 C    0.955    10 C    0.941
    10   6 C    3.912 --    32 H    0.986    30 H    0.980    31 H    0.980
                             9 O    0.941
    11   7 N    2.783 --    12 C    1.280     8 C    1.198
    12   6 C    3.953 --    25 N    1.548    11 N    1.280    13 C    0.967
    13   6 C    3.947 --    14 C    0.989    15 C    0.977    12 C    0.967
                            16 N    0.949
    14   6 C    3.994 --    13 C    0.989    34 H    0.987    35 H    0.985
                            33 H    0.983
    15   6 C    3.992 --    36 H    0.987    38 H    0.987    37 H    0.983
                            13 C    0.977
    16   7 N    3.181 --    17 C    1.126    13 C    0.949    39 H    0.898
                            18 O    0.119
    17   6 C    3.770 --    18 O    1.423    19 C    1.150    16 N    1.126
    18   8 O    1.674 --    17 C    1.423    16 N    0.119
    19   6 C    3.670 --    20 N    1.386    17 C    1.150    24 O    0.968
    20   7 N    2.735 --    19 C    1.386    21 N    1.186
    21   7 N    2.981 --    22 C    1.629    20 N    1.186
    22   6 C    3.815 --    21 N    1.629    24 O    1.045    23 C    1.022
    23   6 C    3.995 --    22 C    1.022    41 H    0.986    40 H    0.973
                            42 H    0.971
    24   8 O    2.168 --    22 C    1.045    19 C    0.968
    25   7 N    2.919 --    12 C    1.548     5 C    1.096
    26   1 H    1.021 --     1 C    0.987
    27   1 H    1.022 --     1 C    0.980
    28   1 H    1.022 --     1 C    0.980
    29   1 H    0.888 --     7 O    0.857
    30   1 H    1.020 --    10 C    0.980
    31   1 H    1.023 --    10 C    0.980
    32   1 H    1.018 --    10 C    0.986
    33   1 H    1.023 --    14 C    0.983
    34   1 H    1.011 --    14 C    0.987
    35   1 H    1.026 --    14 C    0.985
    36   1 H    1.010 --    15 C    0.987
    37   1 H    1.019 --    15 C    0.983
    38   1 H    1.017 --    15 C    0.987
    39   1 H    1.000 --    16 N    0.898
    40   1 H    1.002 --    23 C    0.973
    41   1 H    1.005 --    23 C    0.986
    42   1 H    1.001 --    23 C    0.971
 ---------------------------------------------------------------------------

           -------------------------------------------------
          | TOTAL ENERGY              -83.590354021054 Eh   |
          | GRADIENT NORM               0.000653338475 Eh/α |
          | HOMO-LUMO GAP               0.034490044271 eV   |
           -------------------------------------------------

 * finished run on 2023/06/20 at 18:00:55.923
