   * xtb version 6.5.1 (579679a) compiled by 'ehlert@majestix' on 2022-07-11
          program call               : /lustre/hpc/kemi/ree/PhD/git/ReactivityQM/dep/xtb-6.5.1/bin/xtb --gfn 1 /lustre/hpc/kemi/ree/PhD/git/ReactivityQM/calculations/R02methylcation/reac01prodE04/conf15/R02methylcation_reac01prodE04_conf15_gfn1.xyz --opt --vfukui --chrg -2 --uhf 0 --alpb DMSO

   ID    Z sym.   atoms
    1    6 C      1, 3, 5, 6, 8-11, 13, 15, 18, 19, 22, 24
    2    8 O      2, 4, 14, 20, 23, 25
    3    7 N      7, 12, 16, 17, 21
    4    1 H      26-42

      * Solvation model:               ALPB
        Solvent                        DMSO
        Solvent mass                       7.8130E+01 g/mol
          :  Hamiltonian                  GFN1-xTB          :
 * total energy  :   -83.5776946 Eh     change       -0.7207746E-10 Eh
 * total energy  :   -83.5992699 Eh     change       -0.2157532E-01 Eh
 * total energy  :   -83.6064876 Eh     change       -0.7217710E-02 Eh
 * total energy  :   -83.6080431 Eh     change       -0.1555430E-02 Eh
 * total energy  :   -83.6089762 Eh     change       -0.9331395E-03 Eh
 * total energy  :   -83.6093403 Eh     change       -0.3641207E-03 Eh
 * total energy  :   -83.6096248 Eh     change       -0.2844555E-03 Eh
 * total energy  :   -83.6099929 Eh     change       -0.3681195E-03 Eh
 * total energy  :   -83.6104507 Eh     change       -0.4578032E-03 Eh
 * total energy  :   -83.6109188 Eh     change       -0.4681347E-03 Eh
 * total energy  :   -83.6150834 Eh     change       -0.1917533E-04 Eh
 * total energy  :   -83.6151009 Eh     change       -0.1750007E-04 Eh
 * total energy  :   -83.6151143 Eh     change       -0.1339691E-04 Eh
 * total energy  :   -83.6151169 Eh     change       -0.2642242E-05 Eh
 * total energy  :   -83.6151235 Eh     change       -0.6603720E-05 Eh
 * total energy  :   -83.6151326 Eh     change       -0.9136428E-05 Eh
 * total energy  :   -83.6151381 Eh     change       -0.5491945E-05 Eh
 * total energy  :   -83.6151482 Eh     change       -0.1007638E-04 Eh
 * total energy  :   -83.6151519 Eh     change       -0.3645473E-05 Eh
   *** GEOMETRY OPTIMIZATION CONVERGED AFTER 44 ITERATIONS ***

 final structure:
================
42
 xtb: 6.5.1 (579679a)
C           -6.08571000899455       -0.56160396196237        0.56139323839860
O           -5.07553131900856        0.35299845621609        0.15954258026669
C           -3.81211358268600       -0.14318957223161        0.08199301587457
O           -3.57312306678761       -1.31821000034894        0.32330389393114
C           -2.78041700943175        0.93802468930228       -0.18759010997865
C           -3.32110472223791        2.04227609331991       -1.09929087075400
N           -1.59770208344954        0.35004890880467       -0.79460586255874
C           -0.75860583973688       -0.22813755594915       -0.01559926711178
C            0.41151175003506       -1.00000201598483       -0.61061974747940
C            0.54222743249999       -0.68098379009620       -2.10591103946677
C            0.14146662454214       -2.49725232611569       -0.39852526410933
N            1.61321839619539       -0.58564680382456        0.12165842947240
C            2.87975686967475       -1.03505578030054       -0.28153516089282
O            3.06404730860567       -2.10859969613231       -0.89082059716469
C            3.90754986124042       -0.13636453468949        0.14360018805008
N            3.72328691051959        1.03237565282963        0.76480982227037
N            4.96535879625519        1.57694173827441        0.94362384490437
C            5.82371520316890        0.75117182009895        0.44175819128411
C            7.29830099150342        0.91316528151093        0.39766798287856
O            5.25102047578107       -0.35766703483647       -0.08416978872795
N           -0.85831618934242       -0.23052998373572        1.34062314867014
C           -1.61920439830952        0.76171761473379        2.04477353641223
O           -1.30860776156731        0.95192889593058        3.25672358966736
C           -2.57695492508343        1.45184260383479        1.26822783316682
O           -3.30461908428527        2.42106240168315        1.67462692262520
H           -5.88547121485605       -0.95072586725279        1.56505822679996
H           -7.02891510001550       -0.01709106817679        0.55824841759932
H           -6.14420508086078       -1.40219393635819       -0.13720763134118
H           -3.67497901863608        1.62063009178816       -2.03935975181585
H           -4.14211560127741        2.56621297991300       -0.61084162209516
H           -2.52548845972198        2.75574985300050       -1.31385392842504
H           -0.39135049588367       -0.92233960943748       -2.61334692104277
H            1.34885588563509       -1.26195113621196       -2.54996442582088
H            0.74730595842856        0.38017077717054       -2.24526854811421
H            0.90889987154295       -3.10071332292306       -0.87945732744332
H            0.12851958721090       -2.72789164135381        0.66635925192242
H           -0.82827152189801       -2.75308725570060       -0.82606279473699
H            1.61877612241436        0.40602092549090        0.34508427440945
H            7.57079379733099        1.87214146624260        0.83192563282052
H            7.65427778692397        0.86993627063679       -0.63178160163825
H            7.78695568108094        0.11411359549214        0.95582974270968
H           -0.09303582651942       -0.62274222265308        1.86898049658942

          :  Hamiltonian                  GFN1-xTB          :
         :: total energy             -83.615151856430 Eh    ::
         :: gradient norm              0.000355152624 Eh/a0 ::
         :: HOMO-LUMO gap              0.038264737475 eV    ::
         :: SCC energy               -84.341624440069 Eh    ::
         :: -> Gsolv                  -0.272460819979 Eh    ::
         :: repulsion energy           0.753097451494 Eh    ::

    * Orbital Energies and Occupations

         #    Occupation            Energy/Eh            Energy/eV
      -------------------------------------------------------------
         1        2.0000           -0.8034263             -21.8623
       ...           ...                  ...                  ...
        56        2.0000           -0.4470303             -12.1643
        57        2.0000           -0.4430818             -12.0569
        58        2.0000           -0.4314374             -11.7400
        59        2.0000           -0.4247524             -11.5581
        60        2.0000           -0.4103932             -11.1674
        61        2.0000           -0.4068587             -11.0712
        62        2.0000           -0.4059813             -11.0473
        63        2.0000           -0.3997816             -10.8786
        64        2.0000           -0.3908306             -10.6350
        65        2.0000           -0.3800005             -10.3403
        66        2.0000           -0.3760542             -10.2330
        67        2.0000           -0.3461263              -9.4186
        68        1.3540           -0.2703967              -7.3579 (HOMO)
        69        0.6460           -0.2689905              -7.3196 (LUMO)
        70                         -0.2216868              -6.0324
        71                         -0.2117203              -5.7612
        72                         -0.2023196              -5.5054
        73                         -0.1428009              -3.8858
        74                         -0.1249246              -3.3994
        75                         -0.1227388              -3.3399
        76                         -0.1151027              -3.1321
        77                         -0.0958904              -2.6093
        78                         -0.0934091              -2.5418
        79                         -0.0889161              -2.4195
       ...                                ...                  ...
       134                          0.7126682              19.3927
      -------------------------------------------------------------
                  HL-Gap            0.0014062 Eh            0.0383 eV

Wiberg/Mayer (AO) data.
largest (>0.10) Wiberg bond orders for each atom

     #   Z sym  total        # sym  WBO       # sym  WBO       # sym  WBO
 ---------------------------------------------------------------------------
     1   6 C    3.897 --    27 H    0.987    28 H    0.981    26 H    0.981
                             2 O    0.921
     2   8 O    2.152 --     3 C    1.043     1 C    0.921     4 O    0.107
     3   6 C    3.777 --     4 O    1.595     2 O    1.043     5 C    0.945
     4   8 O    1.851 --     3 C    1.595     2 O    0.107
     5   6 C    3.959 --     6 C    0.992     7 N    0.980     3 C    0.945
                            24 C    0.875
     6   6 C    3.990 --     5 C    0.992    29 H    0.989    31 H    0.987
                            30 H    0.983
     7   7 N    2.941 --     8 C    1.656     5 C    0.980    21 N    0.147
     8   6 C    3.932 --     7 N    1.656    21 N    1.174     9 C    0.970
     9   6 C    3.949 --    10 C    0.992    11 C    0.986     8 C    0.970
                            12 N    0.939
    10   6 C    3.993 --     9 C    0.992    34 H    0.986    32 H    0.985
                            33 H    0.984
    11   6 C    3.994 --    37 H    0.987     9 C    0.986    36 H    0.986
                            35 H    0.980
    12   7 N    3.144 --    13 C    1.079     9 C    0.939    38 H    0.919
                            14 O    0.108
    13   6 C    3.750 --    14 O    1.456    15 C    1.149    12 N    1.079
    14   8 O    1.696 --    13 C    1.456    12 N    0.108
    15   6 C    3.698 --    16 N    1.399    13 C    1.149    20 O    0.979
    16   7 N    2.750 --    15 C    1.399    17 N    1.185
    17   7 N    2.980 --    18 C    1.628    16 N    1.185
    18   6 C    3.821 --    17 N    1.628    20 O    1.051    19 C    1.024
    19   6 C    3.994 --    18 C    1.024    39 H    0.986    40 H    0.971
                            41 H    0.970
    20   8 O    2.188 --    18 C    1.051    15 C    0.979
    21   7 N    3.323 --     8 C    1.174    22 C    0.960    42 H    0.912
                             7 N    0.147
    22   6 C    3.746 --    23 O    1.390    24 C    1.243    21 N    0.960
    23   8 O    1.602 --    22 C    1.390
    24   6 C    3.730 --    25 O    1.371    22 C    1.243     5 C    0.875
    25   8 O    1.576 --    24 C    1.371
    26   1 H    1.012 --     1 C    0.981
    27   1 H    1.015 --     1 C    0.987
    28   1 H    1.014 --     1 C    0.981
    29   1 H    1.010 --     6 C    0.989
    30   1 H    1.027 --     6 C    0.983
    31   1 H    1.013 --     6 C    0.987
    32   1 H    1.019 --    10 C    0.985
    33   1 H    1.013 --    10 C    0.984
    34   1 H    1.012 --    10 C    0.986
    35   1 H    1.023 --    11 C    0.980
    36   1 H    1.009 --    11 C    0.986
    37   1 H    1.009 --    11 C    0.987
    38   1 H    0.980 --    12 N    0.919
    39   1 H    1.004 --    19 C    0.986
    40   1 H    1.001 --    19 C    0.971
    41   1 H    1.001 --    19 C    0.970
    42   1 H    0.971 --    21 N    0.912
 ---------------------------------------------------------------------------

           -------------------------------------------------
          | TOTAL ENERGY              -83.615151856430 Eh   |
          | GRADIENT NORM               0.000355152624 Eh/α |
          | HOMO-LUMO GAP               0.038264737475 eV   |
           -------------------------------------------------

 * finished run on 2023/06/21 at 17:10:53.845
