   * xtb version 6.5.1 (579679a) compiled by 'ehlert@majestix' on 2022-07-11
          program call               : /lustre/hpc/kemi/ree/PhD/git/ReactivityQM/dep/xtb-6.5.1/bin/xtb --gfn 1 /lustre/hpc/kemi/ree/PhD/git/ReactivityQM/calculations/RaltegravirCLI/reac01prodN01/conf05/RaltegravirCLI_reac01prodN01_conf05_gfn1.xyz --opt --vfukui --chrg 1 --uhf 0 --alpb DMSO

   ID    Z sym.   atoms
    1    6 C      1, 2, 5, 6, 10
    2    7 N      3, 4
    3    8 O      7, 9
    4   17 Cl     8
    5    1 H      11-16

      * Solvation model:               ALPB
        Solvent                        DMSO
        Solvent mass                       7.8130E+01 g/mol
          :  Hamiltonian                  GFN1-xTB          :
 * total energy  :   -33.3496742 Eh     change       -0.6501466E-11 Eh
 * total energy  :   -33.3637727 Eh     change       -0.1409849E-01 Eh
 * total energy  :   -33.3698829 Eh     change       -0.6110223E-02 Eh
 * total energy  :   -33.3716058 Eh     change       -0.1722919E-02 Eh
 * total energy  :   -33.3725714 Eh     change       -0.9656096E-03 Eh
 * total energy  :   -33.3730387 Eh     change       -0.4673193E-03 Eh
 * total energy  :   -33.3732842 Eh     change       -0.2454384E-03 Eh
 * total energy  :   -33.3734520 Eh     change       -0.1677726E-03 Eh
 * total energy  :   -33.3735591 Eh     change       -0.1071381E-03 Eh
 * total energy  :   -33.3736436 Eh     change       -0.8452915E-04 Eh
 * total energy  :   -33.3743525 Eh     change       -0.5928600E-04 Eh
 * total energy  :   -33.3744146 Eh     change       -0.6210967E-04 Eh
 * total energy  :   -33.3744468 Eh     change       -0.3224351E-04 Eh
 * total energy  :   -33.3744630 Eh     change       -0.1617197E-04 Eh
 * total energy  :   -33.3745016 Eh     change       -0.3864447E-04 Eh
 * total energy  :   -33.3745173 Eh     change       -0.1567338E-04 Eh
 * total energy  :   -33.3745299 Eh     change       -0.1257005E-04 Eh
 * total energy  :   -33.3745334 Eh     change       -0.3551496E-05 Eh
 * total energy  :   -33.3745348 Eh     change       -0.1406854E-05 Eh
   *** GEOMETRY OPTIMIZATION CONVERGED AFTER 33 ITERATIONS ***

 final structure:
================
16
 xtb: 6.5.1 (579679a)
C           -2.35568068164807       -0.03499361564704       -0.28480914696265
C           -1.06940590835443        0.64913674058065       -0.09702563229579
N           -0.82903635721078        1.90468059130663       -0.00404504829617
N            0.50575565421711        2.09135928673010        0.16995614352746
C            1.08826517073282        0.95030317980966        0.18372969708967
C            2.52312645796913        0.61084727669590        0.34497245950846
O            2.92214731271264       -0.51559718560447        0.33444880871053
Cl           3.51405640743193        1.97724456387038        0.54259022328358
O            0.12902515942370       -0.05742728962230        0.01445501959472
C            0.36578800175511       -1.50361539163089       -0.04316878657594
H           -2.34083192014733       -0.63424512023299       -1.19580795925585
H           -3.14136486294591        0.71566652487663       -0.35447247797053
H           -2.55927100076132       -0.69941641121284        0.55604210791490
H            0.83352955724868       -1.79233868411779        0.89545507417551
H            1.01928363433654       -1.69123189681601       -0.89238433070131
H           -0.60538662475964       -1.97037156898553       -0.16993715174648

          :  Hamiltonian                  GFN1-xTB          :
         :: total energy             -33.374534827374 Eh    ::
         :: gradient norm              0.000937206264 Eh/a0 ::
         :: HOMO-LUMO gap              3.145859000330 eV    ::
         :: SCC energy               -33.663945264965 Eh    ::
         :: -> Gsolv                  -0.092271384398 Eh    ::
         :: repulsion energy           0.297227184417 Eh    ::

    * Orbital Energies and Occupations

         #    Occupation            Energy/Eh            Energy/eV
      -------------------------------------------------------------
         1        2.0000           -0.9858873             -26.8274
       ...           ...                  ...                  ...
        15        2.0000           -0.6279027             -17.0861
        16        2.0000           -0.6100887             -16.6014
        17        2.0000           -0.6091035             -16.5746
        18        2.0000           -0.5954201             -16.2022
        19        2.0000           -0.5887191             -16.0199
        20        2.0000           -0.5742646             -15.6265
        21        2.0000           -0.5664182             -15.4130
        22        2.0000           -0.5528549             -15.0439
        23        2.0000           -0.5291123             -14.3979
        24        2.0000           -0.5273082             -14.3488
        25        2.0000           -0.5182378             -14.1020
        26        2.0000           -0.5180505             -14.0969
        27        2.0000           -0.5092625             -13.8577 (HOMO)
        28                         -0.3936543             -10.7119 (LUMO)
        29                         -0.3273432              -8.9075
        30                         -0.2836200              -7.7177
        31                         -0.2440199              -6.6401
        32                         -0.1955703              -5.3217
        33                         -0.1794170              -4.8822
        34                         -0.1317717              -3.5857
        35                         -0.1220662              -3.3216
        36                         -0.1194419              -3.2502
        37                         -0.1115542              -3.0355
        38                         -0.1109925              -3.0203
       ...                                ...                  ...
        57                          0.7029772              19.1290
      -------------------------------------------------------------
                  HL-Gap            0.1156082 Eh            3.1459 eV

Wiberg/Mayer (AO) data.
largest (>0.10) Wiberg bond orders for each atom

     #   Z sym  total        # sym  WBO       # sym  WBO       # sym  WBO
 ---------------------------------------------------------------------------
     1   6 C    3.965 --     2 C    1.047    12 H    0.968    11 H    0.947
                            13 H    0.946
     2   6 C    3.800 --     3 N    1.668     1 C    1.047     9 O    0.888
     3   7 N    3.024 --     2 C    1.668     4 N    1.172
     4   7 N    3.041 --     5 C    1.686     3 N    1.172
     5   6 C    3.814 --     4 N    1.686     6 C    1.005     9 O    0.879
     6   6 C    3.905 --     7 O    1.759     8 Cl   1.095     5 C    1.005
     7   8 O    2.058 --     6 C    1.759     8 Cl   0.169
     8  17 Cl   1.329 --     6 C    1.095     7 O    0.169
     9   8 O    2.658 --     2 C    0.888     5 C    0.879    10 C    0.740
    10   6 C    3.714 --    16 H    0.973    15 H    0.967    14 H    0.966
                             9 O    0.740
    11   1 H    0.986 --     1 C    0.947
    12   1 H    0.987 --     1 C    0.968
    13   1 H    0.986 --     1 C    0.946
    14   1 H    0.994 --    10 C    0.966
    15   1 H    0.993 --    10 C    0.967
    16   1 H    0.988 --    10 C    0.973
 ---------------------------------------------------------------------------

           -------------------------------------------------
          | TOTAL ENERGY              -33.374534827374 Eh   |
          | GRADIENT NORM               0.000937206264 Eh/α |
          | HOMO-LUMO GAP               3.145859000330 eV   |
           -------------------------------------------------

 * finished run on 2023/06/20 at 14:54:04.456
