   * xtb version 6.5.1 (579679a) compiled by 'ehlert@majestix' on 2022-07-11
          program call               : /lustre/hpc/kemi/ree/PhD/git/ReactivityQM/dep/xtb-6.5.1/bin/xtb --gfn 1 /lustre/hpc/kemi/ree/PhD/git/ReactivityQM/calculations/R02oxygendeprot/reac01prodN11/conf07/R02oxygendeprot_reac01prodN11_conf07_gfn1.xyz --opt --vfukui --chrg 0 --uhf 0 --alpb DMSO

   ID    Z sym.   atoms
    1    6 C      1, 3, 5, 7-10, 12, 13, 15, 18, 19, 22, 24
    2    8 O      2, 4, 14, 20, 23, 25
    3    7 N      6, 11, 16, 17, 21
    4    1 H      26-42

      * Solvation model:               ALPB
        Solvent                        DMSO
        Solvent mass                       7.8130E+01 g/mol
          :  Hamiltonian                  GFN1-xTB          :
 * total energy  :   -82.8614609 Eh     change       -0.7160850E-10 Eh
 * total energy  :   -82.8726089 Eh     change       -0.1114797E-01 Eh
 * total energy  :   -82.8779258 Eh     change       -0.5316885E-02 Eh
 * total energy  :   -82.8791054 Eh     change       -0.1179632E-02 Eh
 * total energy  :   -82.8798717 Eh     change       -0.7663154E-03 Eh
 * total energy  :   -82.8803120 Eh     change       -0.4403023E-03 Eh
 * total energy  :   -82.8806822 Eh     change       -0.3701700E-03 Eh
 * total energy  :   -82.8810064 Eh     change       -0.3242468E-03 Eh
 * total energy  :   -82.8812844 Eh     change       -0.2779648E-03 Eh
 * total energy  :   -82.8815618 Eh     change       -0.2774383E-03 Eh
 * total energy  :   -82.8864111 Eh     change       -0.1049949E-04 Eh
 * total energy  :   -82.8864251 Eh     change       -0.1398409E-04 Eh
 * total energy  :   -82.8864474 Eh     change       -0.2229174E-04 Eh
 * total energy  :   -82.8864740 Eh     change       -0.2661181E-04 Eh
 * total energy  :   -82.8864892 Eh     change       -0.1519336E-04 Eh
 * total energy  :   -82.8864983 Eh     change       -0.9070651E-05 Eh
 * total energy  :   -82.8865044 Eh     change       -0.6152563E-05 Eh
 * total energy  :   -82.8865115 Eh     change       -0.7049982E-05 Eh
 * total energy  :   -82.8865143 Eh     change       -0.2790784E-05 Eh
   *** GEOMETRY OPTIMIZATION CONVERGED AFTER 71 ITERATIONS ***

 final structure:
================
42
 xtb: 6.5.1 (579679a)
C            6.95337582877122        0.44031789414201        0.48893640485485
O            5.62420289420721        0.96289386849526        0.40287439208341
C            4.64935275820326        0.07709706246118        0.24538800894744
O            4.83507645935418       -1.11691175050642        0.16901420475892
C            3.28321916405090        0.68691075624956        0.18370906143126
N            2.30797370931990       -0.21233759292623        0.06682572068224
C            1.03969764709960        0.14097619362434        0.01717921961833
C            0.04141531040411       -0.97590386393513       -0.07204677313591
C            0.08380088265401       -1.71615344696158        1.28656126228780
C            0.49255834858441       -1.93873215748571       -1.19779064225943
N           -1.28042892819856       -0.48333954423205       -0.32885025959516
C           -2.44026007166920       -1.38122760060715       -0.48341649555562
C           -2.89438670436651       -1.16029112657288       -1.99908255498720
O           -2.27363172483291       -2.61663155139866       -0.20940460362100
C           -3.57985448367743       -0.69448734089036        0.29690670888132
N           -4.44248333127265       -1.25413551549153        1.07309105865949
N           -5.26437490535253       -0.24930349343493        1.51225982286522
C           -4.85267769509547        0.84630091454336        0.96357468058053
C           -5.41428900585893        2.20559071172839        1.12268563213290
O           -3.77918184910376        0.63273776903636        0.17365765030503
N            0.66713336737361        1.43393831216973        0.09684724410038
C            1.55686854254546        2.50015010822770        0.21455784577458
O            1.13871850272569        3.63128794724584        0.30240811513778
C            3.02521226292965        2.11446943778017        0.23851438467943
O            3.87695870775740        2.98726901762281        0.30566030301360
H            7.61807931852941        1.29544318629180        0.59147248923275
H            7.04015300693144       -0.21613399864716        1.35789255613350
H            7.19322485067328       -0.12370741112253       -0.41522730635173
H           -0.53799512348663       -2.60703269629120        1.24571425299120
H           -0.27951167650791       -1.05435054384366        2.07011216370555
H            1.11150348360559       -2.00340949396549        1.50013421378915
H            0.44641596567133       -1.42657598946946       -2.15598412494396
H            1.51603632299141       -2.25357685028903       -1.00255100864217
H           -0.16009589270682       -2.80797575181599       -1.21621415437703
H           -1.36901762938197        0.38867502219841       -0.82295046969383
H           -2.09339647638642       -1.52820319965935       -2.63189563101068
H           -3.08434952560948       -0.10924749321509       -2.18624465076438
H           -3.79505791645020       -1.74954911189946       -2.14624506847528
H           -4.69931719388350        2.85059996766044        1.63336150683816
H           -6.33162019783843        2.15335614626306        1.70496141399954
H           -5.62182716507186        2.63946097723793        0.14527730861802
H           -0.30721883764083        1.69174323168009        0.09676611730910

          :  Hamiltonian                  GFN1-xTB          :
         :: total energy             -82.886514287862 Eh    ::
         :: gradient norm              0.000641567360 Eh/a0 ::
         :: HOMO-LUMO gap              0.093760364320 eV    ::
         :: SCC energy               -83.652431999211 Eh    ::
         :: -> Gsolv                  -0.068998985285 Eh    ::
         :: repulsion energy           0.792038377265 Eh    ::

    * Orbital Energies and Occupations

         #    Occupation            Energy/Eh            Energy/eV
      -------------------------------------------------------------
         1        2.0000           -0.8646141             -23.5273
       ...           ...                  ...                  ...
        55        2.0000           -0.5107859             -13.8992
        56        2.0000           -0.5055433             -13.7565
        57        2.0000           -0.5032605             -13.6944
        58        2.0000           -0.4989152             -13.5762
        59        2.0000           -0.4878763             -13.2758
        60        2.0000           -0.4785059             -13.0208
        61        2.0000           -0.4777960             -13.0015
        62        2.0000           -0.4603030             -12.5255
        63        2.0000           -0.4580253             -12.4635
        64        2.0000           -0.4495716             -12.2335
        65        2.0000           -0.4459587             -12.1352
        66        2.0000           -0.4402162             -11.9789
        67        1.7195           -0.4213413             -11.4653 (HOMO)
        68        0.2805           -0.4178957             -11.3715 (LUMO)
        69                         -0.3250606              -8.8453
        70                         -0.3015331              -8.2051
        71                         -0.2703208              -7.3558
        72                         -0.2518803              -6.8540
        73                         -0.2488994              -6.7729
        74                         -0.1748182              -4.7570
        75                         -0.1442347              -3.9248
        76                         -0.1416377              -3.8542
        77                         -0.1383546              -3.7648
        78                         -0.1365421              -3.7155
       ...                                ...                  ...
       134                          0.7488688              20.3778
      -------------------------------------------------------------
                  HL-Gap            0.0034456 Eh            0.0938 eV

Wiberg/Mayer (AO) data.
largest (>0.10) Wiberg bond orders for each atom

     #   Z sym  total        # sym  WBO       # sym  WBO       # sym  WBO
 ---------------------------------------------------------------------------
     1   6 C    3.866 --    26 H    0.986    28 H    0.978    27 H    0.978
                             2 O    0.894
     2   8 O    2.207 --     3 C    1.128     1 C    0.894     4 O    0.139
     3   6 C    3.846 --     4 O    1.651     2 O    1.128     5 C    0.994
     4   8 O    1.899 --     3 C    1.651     2 O    0.139
     5   6 C    3.768 --     6 N    1.390    24 C    1.115     3 C    0.994
     6   7 N    2.996 --     5 C    1.390     7 C    1.380
     7   6 C    3.844 --     6 N    1.380    21 N    1.239     8 C    1.010
     8   6 C    3.933 --     7 C    1.010    11 N    0.989     9 C    0.931
                            10 C    0.922
     9   6 C    3.961 --    30 H    0.985    31 H    0.985    29 H    0.973
                             8 C    0.931
    10   6 C    3.953 --    32 H    0.985    33 H    0.980    34 H    0.977
                             8 C    0.922
    11   7 N    3.204 --     8 C    0.989    12 C    0.908    35 H    0.901
                            14 O    0.155
    12   6 C    3.882 --    14 O    1.277    11 N    0.908    15 C    0.861
                            13 C    0.769
    13   6 C    3.814 --    37 H    0.985    36 H    0.981    38 H    0.980
                            12 C    0.769
    14   8 O    1.623 --    12 C    1.277    11 N    0.155
    15   6 C    3.799 --    16 N    1.659    20 O    1.058    12 C    0.861
    16   7 N    2.977 --    15 C    1.659    17 N    1.159
    17   7 N    2.978 --    18 C    1.636    16 N    1.159
    18   6 C    3.860 --    17 N    1.636    20 O    1.052    19 C    1.031
    19   6 C    3.986 --    18 C    1.031    40 H    0.982    41 H    0.966
                            39 H    0.961
    20   8 O    2.304 --    15 C    1.058    18 C    1.052
    21   7 N    3.459 --     7 C    1.239    22 C    1.080    42 H    0.873
                            23 O    0.103
    22   6 C    3.838 --    23 O    1.689    21 N    1.080    24 C    0.939
    23   8 O    1.910 --    22 C    1.689    21 N    0.103
    24   6 C    3.857 --    25 O    1.663     5 C    1.115    22 C    0.939
    25   8 O    1.824 --    24 C    1.663
    26   1 H    1.010 --     1 C    0.986
    27   1 H    1.005 --     1 C    0.978
    28   1 H    1.005 --     1 C    0.978
    29   1 H    1.010 --     9 C    0.973
    30   1 H    0.999 --     9 C    0.985
    31   1 H    1.004 --     9 C    0.985
    32   1 H    0.998 --    10 C    0.985
    33   1 H    1.008 --    10 C    0.980
    34   1 H    1.009 --    10 C    0.977
    35   1 H    0.939 --    11 N    0.901
    36   1 H    0.997 --    13 C    0.981
    37   1 H    0.998 --    13 C    0.985
    38   1 H    0.998 --    13 C    0.980
    39   1 H    0.997 --    19 C    0.961
    40   1 H    0.998 --    19 C    0.982
    41   1 H    0.997 --    19 C    0.966
    42   1 H    0.919 --    21 N    0.873
 ---------------------------------------------------------------------------

           -------------------------------------------------
          | TOTAL ENERGY              -82.886514287862 Eh   |
          | GRADIENT NORM               0.000641567360 Eh/α |
          | HOMO-LUMO GAP               0.093760364320 eV   |
           -------------------------------------------------

 * finished run on 2023/06/21 at 17:27:08.779
