   * xtb version 6.5.1 (579679a) compiled by 'ehlert@majestix' on 2022-07-11
          program call               : /lustre/hpc/kemi/ree/PhD/git/ReactivityQM/dep/xtb-6.5.1/bin/xtb --gfn 1 /lustre/hpc/kemi/ree/PhD/git/ReactivityQM/calculations/R02methylcation/reac01/conf10/R02methylcation_reac01_conf10_gfn1.xyz --opt --vfukui --chrg -1 --uhf 0 --alpb DMSO

   ID    Z sym.   atoms
    1    6 C      1, 3, 5, 7-10, 12, 14, 17, 18, 21, 23
    2    8 O      2, 4, 13, 19, 22, 24
    3    7 N      6, 11, 15, 16, 20
    4    1 H      25-38

      * Solvation model:               ALPB
        Solvent                        DMSO
        Solvent mass                       7.8130E+01 g/mol
          :  Hamiltonian                  GFN1-xTB          :
 * total energy  :   -79.6035650 Eh     change       -0.2995648E-10 Eh
 * total energy  :   -79.6149926 Eh     change       -0.1142765E-01 Eh
 * total energy  :   -79.6190016 Eh     change       -0.4008997E-02 Eh
 * total energy  :   -79.6195210 Eh     change       -0.5193641E-03 Eh
 * total energy  :   -79.6199785 Eh     change       -0.4574881E-03 Eh
 * total energy  :   -79.6202756 Eh     change       -0.2971825E-03 Eh
 * total energy  :   -79.6205981 Eh     change       -0.3225056E-03 Eh
 * total energy  :   -79.6208507 Eh     change       -0.2525240E-03 Eh
 * total energy  :   -79.6210158 Eh     change       -0.1651505E-03 Eh
 * total energy  :   -79.6211368 Eh     change       -0.1209316E-03 Eh
 * total energy  :   -79.6235438 Eh     change       -0.9166831E-05 Eh
 * total energy  :   -79.6235525 Eh     change       -0.8694814E-05 Eh
 * total energy  :   -79.6235609 Eh     change       -0.8464356E-05 Eh
 * total energy  :   -79.6235685 Eh     change       -0.7529863E-05 Eh
 * total energy  :   -79.6235775 Eh     change       -0.8996448E-05 Eh
 * total energy  :   -79.6235879 Eh     change       -0.1041778E-04 Eh
 * total energy  :   -79.6235964 Eh     change       -0.8518680E-05 Eh
 * total energy  :   -79.6236025 Eh     change       -0.6111439E-05 Eh
 * total energy  :   -79.6236075 Eh     change       -0.4939516E-05 Eh
   *** GEOMETRY OPTIMIZATION CONVERGED AFTER 56 ITERATIONS ***

 final structure:
================
38
 xtb: 6.5.1 (579679a)
C            2.69083758418102        4.35104268280761       -0.84688648437387
O            2.95492336421399        3.07438845724577       -0.28180769437394
C            1.91863803091745        2.19934562619302       -0.29793546072436
O            0.83217472761977        2.52608178416767       -0.76184934259397
C            2.21885224329679        0.88690712558146        0.25368049366400
N            1.14013057443081        0.02452831941175        0.17985254145588
C            1.23275475051287       -1.18565249485185        0.58650699302023
C            0.05063385499988       -2.12869768841220        0.45887429290797
C           -0.30918288333609       -2.75207023609524        1.81418471927629
C            0.36986367088696       -3.21591419474807       -0.57833955550121
N           -1.06193600554544       -1.30367020793563       -0.00904163161239
C           -2.28400732238340       -1.76639287299188       -0.29437364203829
O           -2.64570466592690       -2.93356304093405       -0.21373677672233
C           -3.22038872182129       -0.69561656017161       -0.73732049737847
N           -4.44166088401779       -0.83892928439160       -1.15260690647580
N           -4.91066386841925        0.41062061589576       -1.43554000387412
C           -3.94679373004358        1.23841248498512       -1.17290073520989
C           -3.96320332542492        2.71221819697286       -1.30183605885416
O           -2.85052518961033        0.60309646452810       -0.73030854416255
N            2.40392390354786       -1.68665531733795        1.11351777125128
C            3.54724622836698       -0.94076967146424        1.26628912251573
O            4.54682279940922       -1.45823959452957        1.75748306239726
C            3.47160321893674        0.49430704608022        0.79131281037312
O            4.48473478762149        1.20865385768286        0.90018982185570
H            3.61334336944010        4.92686574739329       -0.78340878117060
H            2.38575314145842        4.25425587069401       -1.89354316401510
H            1.89567927725539        4.86199236190650       -0.29511518293324
H           -1.17794239506966       -3.39934179712474        1.70693799069836
H           -0.53376513213594       -1.96995184428156        2.53783857068971
H            0.52356528274543       -3.34743044553221        2.18256395357198
H            0.57456574970282       -2.75855902245887       -1.54551785600171
H            1.24600872977458       -3.77706446760976       -0.25950348427279
H           -0.46901994896603       -3.90239205346029       -0.67712596159712
H           -0.84917983434131       -0.31390347898179       -0.12020071520701
H           -3.16669604880625        3.04068693595806       -1.96925998657369
H           -4.92447012228974        3.03181377674950       -1.69577420820642
H           -3.79863556179174        3.17286581036732       -0.32778389759641
H            2.45172035060676       -2.64326789129547        1.42252142778719

          :  Hamiltonian                  GFN1-xTB          :
         :: total energy             -79.623607459555 Eh    ::
         :: gradient norm              0.000622587526 Eh/a0 ::
         :: HOMO-LUMO gap              1.776184890420 eV    ::
         :: SCC energy               -80.349391118093 Eh    ::
         :: -> Gsolv                  -0.113981074053 Eh    ::
         :: repulsion energy           0.748865731287 Eh    ::

    * Orbital Energies and Occupations

         #    Occupation            Energy/Eh            Energy/eV
      -------------------------------------------------------------
         1        2.0000           -0.8581404             -23.3512
       ...           ...                  ...                  ...
        52        2.0000           -0.4820908             -13.1184
        53        2.0000           -0.4727823             -12.8651
        54        2.0000           -0.4634949             -12.6123
        55        2.0000           -0.4575129             -12.4496
        56        2.0000           -0.4541018             -12.3567
        57        2.0000           -0.4516753             -12.2907
        58        2.0000           -0.4437856             -12.0760
        59        2.0000           -0.4401718             -11.9777
        60        2.0000           -0.4358478             -11.8600
        61        2.0000           -0.4353898             -11.8476
        62        2.0000           -0.4183449             -11.3837
        63        2.0000           -0.3789786             -10.3125
        64        2.0000           -0.3654406              -9.9441 (HOMO)
        65                         -0.3001670              -8.1680 (LUMO)
        66                         -0.2697732              -7.3409
        67                         -0.2510035              -6.8302
        68                         -0.2392551              -6.5105
        69                         -0.1964822              -5.3466
        70                         -0.1889137              -5.1406
        71                         -0.1390996              -3.7851
        72                         -0.1250689              -3.4033
        73                         -0.1197225              -3.2578
        74                         -0.1155039              -3.1430
        75                         -0.1072099              -2.9173
       ...                                ...                  ...
       124                          0.7567440              20.5921
      -------------------------------------------------------------
                  HL-Gap            0.0652736 Eh            1.7762 eV

Wiberg/Mayer (AO) data.
largest (>0.10) Wiberg bond orders for each atom

     #   Z sym  total        # sym  WBO       # sym  WBO       # sym  WBO
 ---------------------------------------------------------------------------
     1   6 C    3.898 --    25 H    0.987    26 H    0.980    27 H    0.980
                             2 O    0.924
     2   8 O    2.161 --     3 C    1.050     1 C    0.924     4 O    0.110
     3   6 C    3.851 --     4 O    1.577     5 C    1.112     2 O    1.050
     4   8 O    1.853 --     3 C    1.577     2 O    0.110
     5   6 C    3.914 --    23 C    1.273     6 N    1.148     3 C    1.112
                            24 O    0.130
     6   7 N    3.060 --     7 C    1.631     5 C    1.148
     7   6 C    3.933 --     6 N    1.631    20 N    1.098     8 C    0.978
     8   6 C    3.937 --     9 C    0.985    10 C    0.981     7 C    0.978
                            11 N    0.929
     9   6 C    3.990 --    29 H    0.986     8 C    0.985    30 H    0.983
                            28 H    0.981
    10   6 C    3.989 --    31 H    0.986    32 H    0.985     8 C    0.981
                            33 H    0.980
    11   7 N    3.381 --    12 C    1.296     8 C    0.929    34 H    0.871
                            13 O    0.184
    12   6 C    3.922 --    13 O    1.560    11 N    1.296    14 C    0.985
    13   8 O    1.882 --    12 C    1.560    11 N    0.184
    14   6 C    3.870 --    15 N    1.624    19 O    1.051    12 C    0.985
    15   7 N    2.995 --    14 C    1.624    16 N    1.195
    16   7 N    2.979 --    17 C    1.613    15 N    1.195
    17   6 C    3.871 --    16 N    1.613    19 O    1.076    18 C    1.031
    18   6 C    3.988 --    17 C    1.031    36 H    0.983    35 H    0.964
                            37 H    0.963
    19   8 O    2.321 --    17 C    1.076    14 C    1.051
    20   7 N    3.424 --    21 C    1.155     7 C    1.098    38 H    0.897
                            22 O    0.134
    21   6 C    3.877 --    22 O    1.582    20 N    1.155    23 C    0.967
    22   8 O    1.862 --    21 C    1.582    20 N    0.134
    23   6 C    3.944 --    24 O    1.520     5 C    1.273    21 C    0.967
    24   8 O    1.826 --    23 C    1.520     5 C    0.130
    25   1 H    1.015 --     1 C    0.987
    26   1 H    1.014 --     1 C    0.980
    27   1 H    1.014 --     1 C    0.980
    28   1 H    1.009 --     9 C    0.981
    29   1 H    1.004 --     9 C    0.986
    30   1 H    1.001 --     9 C    0.983
    31   1 H    1.004 --    10 C    0.986
    32   1 H    1.002 --    10 C    0.985
    33   1 H    1.010 --    10 C    0.980
    34   1 H    0.966 --    11 N    0.871
    35   1 H    0.997 --    18 C    0.964
    36   1 H    1.000 --    18 C    0.983
    37   1 H    0.997 --    18 C    0.963
    38   1 H    0.947 --    20 N    0.897
 ---------------------------------------------------------------------------

           -------------------------------------------------
          | TOTAL ENERGY              -79.623607459555 Eh   |
          | GRADIENT NORM               0.000622587526 Eh/α |
          | HOMO-LUMO GAP               1.776184890420 eV   |
           -------------------------------------------------

 * finished run on 2023/06/21 at 17:03:48.354
