                         Program Version 5.0.1 -  RELEASE  -
|  1> # ORCA input file
|  2> ! SP r2SCAN-3c CPCM
|  3>
|  4> %maxcore 1875.0
|  5> %pal nprocs 4 end
|  6> %cpcm smd true SMDsolvent "DMSO" end
|  7>
|  8> *xyz 0 1
|  9> C      -5.841909    2.144488    0.254701
| 10> O      -4.408278    2.162695    0.278297
| 11> C      -3.743914    1.051649    0.175211
| 12> O      -4.472325   -0.020239    0.063513
| 13> C      -3.973942   -1.356315   -0.081803
| 14> C      -2.316244    1.119726    0.191445
| 15> N      -1.609684   -0.057228    0.110652
| 16> C      -0.295169    0.011505    0.126492
| 17> C       0.432878   -1.324715    0.062787
| 18> C       0.007862   -2.085750   -1.199725
| 19> C       0.098621   -2.129977    1.326929
| 20> N       1.863367   -1.042071    0.014154
| 21> C       2.820902   -1.975339   -0.046969
| 22> O       2.641989   -3.186086   -0.066553
| 23> C       4.189555   -1.388388   -0.092383
| 24> N       5.322837   -2.017354   -0.139844
| 25> N       6.300875   -1.065712   -0.176046
| 26> C       5.702694    0.084021   -0.149110
| 27> C       6.315960    1.430221   -0.172918
| 28> O       4.367390   -0.049393   -0.095470
| 29> N       0.457090    1.107690    0.207515
| 30> C      -0.144062    2.310935    0.292280
| 31> O       0.429288    3.404282    0.376110
| 32> C      -1.621075    2.315164    0.288315
| 33> O      -2.172178    3.516944    0.379657
| 34> H      -6.218218    1.560597    1.095884
| 35> H      -6.191124    1.706819   -0.681528
| 36> H      -6.156341    3.182696    0.335315
| 37> H      -4.857374   -1.988450   -0.163457
| 38> H      -3.380731   -1.634014    0.789742
| 39> H      -3.362666   -1.432911   -0.981291
| 40> H       0.302668   -1.528443   -2.088056
| 41> H      -1.074252   -2.201886   -1.199068
| 42> H       0.470982   -3.071098   -1.224061
| 43> H       0.450992   -1.599435    2.210892
| 44> H       0.566225   -3.112667    1.287198
| 45> H      -0.981170   -2.251007    1.394914
| 46> H       2.109994   -0.056692    0.039730
| 47> H       6.025035    1.986787    0.717737
| 48> H       7.398594    1.340169   -0.209937
| 49> H       5.965271    1.982299   -1.044882
| 50> H      -1.420414    4.156483    0.432074
| 51> **                         ****END OF INPUT****

CARTESIAN COORDINATES (ANGSTROEM)
---------------------------------
  C     -5.841909    2.144488    0.254701
  O     -4.408278    2.162695    0.278297
  C     -3.743914    1.051649    0.175211
  O     -4.472325   -0.020239    0.063513
  C     -3.973942   -1.356315   -0.081803
  C     -2.316244    1.119726    0.191445
  N     -1.609684   -0.057228    0.110652
  C     -0.295169    0.011505    0.126492
  C      0.432878   -1.324715    0.062787
  C      0.007862   -2.085750   -1.199725
  C      0.098621   -2.129977    1.326929
  N      1.863367   -1.042071    0.014154
  C      2.820902   -1.975339   -0.046969
  O      2.641989   -3.186086   -0.066553
  C      4.189555   -1.388388   -0.092383
  N      5.322837   -2.017354   -0.139844
  N      6.300875   -1.065712   -0.176046
  C      5.702694    0.084021   -0.149110
  C      6.315960    1.430221   -0.172918
  O      4.367390   -0.049393   -0.095470
  N      0.457090    1.107690    0.207515
  C     -0.144062    2.310935    0.292280
  O      0.429288    3.404282    0.376110
  C     -1.621075    2.315164    0.288315
  O     -2.172178    3.516944    0.379657
  H     -6.218218    1.560597    1.095884
  H     -6.191124    1.706819   -0.681528
  H     -6.156341    3.182696    0.335315
  H     -4.857374   -1.988450   -0.163457
  H     -3.380731   -1.634014    0.789742
  H     -3.362666   -1.432911   -0.981291
  H      0.302668   -1.528443   -2.088056
  H     -1.074252   -2.201886   -1.199068
  H      0.470982   -3.071098   -1.224061
  H      0.450992   -1.599435    2.210892
  H      0.566225   -3.112667    1.287198
  H     -0.981170   -2.251007    1.394914
  H      2.109994   -0.056692    0.039730
  H      6.025035    1.986787    0.717737
  H      7.398594    1.340169   -0.209937
  H      5.965271    1.982299   -1.044882
  H     -1.420414    4.156483    0.432074

 Total Charge           Charge          ....    0
 Multiplicity           Mult            ....    1
 Number of Electrons    NEL             ....  184
 Basis Dimension        Dim             ....  615

ORBITAL ENERGIES
----------------

  NO   OCC          E(Eh)            E(eV)
   0   2.0000     -19.062633      -518.7206
   1   2.0000     -19.053814      -518.4806
   2   2.0000     -19.049590      -518.3657
   3   2.0000     -19.007744      -517.2270
   4   2.0000     -18.925341      -514.9847
   5   2.0000     -18.917899      -514.7822
   6   2.0000     -14.201452      -386.4412
   7   2.0000     -14.194999      -386.2656
   8   2.0000     -14.189199      -386.1077
   9   2.0000     -14.149986      -385.0407
  10   2.0000     -14.148691      -385.0055
  11   2.0000     -10.222500      -278.1684
  12   2.0000     -10.149363      -276.1782
  13   2.0000     -10.144644      -276.0498
  14   2.0000     -10.139380      -275.9066
  15   2.0000     -10.124414      -275.4993
  16   2.0000     -10.122480      -275.4467
  17   2.0000     -10.100509      -274.8488
  18   2.0000     -10.099910      -274.8325
  19   2.0000     -10.096728      -274.7459
  20   2.0000     -10.092402      -274.6282
  21   2.0000     -10.088915      -274.5333
  22   2.0000     -10.044282      -273.3188
  23   2.0000     -10.015892      -272.5463
  24   2.0000     -10.014989      -272.5217
  25   2.0000      -1.152185       -31.3525
  26   2.0000      -1.144304       -31.1381
  27   2.0000      -1.068330       -29.0707
  28   2.0000      -1.061602       -28.8877
  29   2.0000      -1.013791       -27.5866
  30   2.0000      -0.990368       -26.9493
  31   2.0000      -0.971979       -26.4489
  32   2.0000      -0.942628       -25.6502
  33   2.0000      -0.903236       -24.5783
  34   2.0000      -0.846439       -23.0328
  35   2.0000      -0.828029       -22.5318
  36   2.0000      -0.787850       -21.4385
  37   2.0000      -0.759399       -20.6643
  38   2.0000      -0.728214       -19.8157
  39   2.0000      -0.711455       -19.3597
  40   2.0000      -0.707142       -19.2423
  41   2.0000      -0.664924       -18.0935
  42   2.0000      -0.654841       -17.8191
  43   2.0000      -0.649013       -17.6606
  44   2.0000      -0.630793       -17.1648
  45   2.0000      -0.597866       -16.2687
  46   2.0000      -0.581044       -15.8110
  47   2.0000      -0.567500       -15.4425
  48   2.0000      -0.545241       -14.8368
  49   2.0000      -0.540593       -14.7103
  50   2.0000      -0.535533       -14.5726
  51   2.0000      -0.530492       -14.4354
  52   2.0000      -0.512312       -13.9407
  53   2.0000      -0.503359       -13.6971
  54   2.0000      -0.493538       -13.4299
  55   2.0000      -0.491772       -13.3818
  56   2.0000      -0.461351       -12.5540
  57   2.0000      -0.442972       -12.0539
  58   2.0000      -0.440077       -11.9751
  59   2.0000      -0.434101       -11.8125
  60   2.0000      -0.425374       -11.5750
  61   2.0000      -0.420360       -11.4386
  62   2.0000      -0.416573       -11.3355
  63   2.0000      -0.414182       -11.2705
  64   2.0000      -0.406625       -11.0648
  65   2.0000      -0.396788       -10.7972
  66   2.0000      -0.394369       -10.7313
  67   2.0000      -0.390279       -10.6200
  68   2.0000      -0.381772       -10.3885
  69   2.0000      -0.379980       -10.3398
  70   2.0000      -0.372209       -10.1283
  71   2.0000      -0.371070       -10.0973
  72   2.0000      -0.356951        -9.7131
  73   2.0000      -0.355412        -9.6713
  74   2.0000      -0.348850        -9.4927
  75   2.0000      -0.346035        -9.4161
  76   2.0000      -0.341460        -9.2916
  77   2.0000      -0.336166        -9.1475
  78   2.0000      -0.329522        -8.9668
  79   2.0000      -0.326718        -8.8904
  80   2.0000      -0.316656        -8.6167
  81   2.0000      -0.312112        -8.4930
  82   2.0000      -0.311043        -8.4639
  83   2.0000      -0.280465        -7.6318
  84   2.0000      -0.265262        -7.2181
  85   2.0000      -0.265000        -7.2110
  86   2.0000      -0.259292        -7.0557
  87   2.0000      -0.239458        -6.5160
  88   2.0000      -0.237932        -6.4745
  89   2.0000      -0.234007        -6.3677
  90   2.0000      -0.220762        -6.0072
  91   2.0000      -0.199322        -5.4238
  92   0.0000      -0.118547        -3.2258
  93   0.0000      -0.080379        -2.1872
  94   0.0000      -0.027679        -0.7532
  95   0.0000      -0.017532        -0.4771
  96   0.0000       0.003804         0.1035

MULLIKEN ATOMIC CHARGES
-----------------------
   0 C :   -0.301828
   1 O :   -0.137258
   2 C :    0.234627
   3 O :   -0.145734
   4 C :   -0.312271
   5 C :    0.083134
   6 N :   -0.229863
   7 C :    0.505832
   8 C :   -0.195629
   9 C :   -0.639924
  10 C :   -0.639920
  11 N :    0.033781
  12 C :   -0.132104
  13 O :   -0.445881
  14 C :    0.420782
  15 N :   -0.184646
  16 N :   -0.281909
  17 C :    0.397853
  18 C :   -0.636087
  19 O :   -0.056808
  20 N :   -0.245822
  21 C :    0.017076
  22 O :   -0.465492
  23 C :    0.141717
  24 O :   -0.345441
  25 H :    0.194908
  26 H :    0.193927
  27 H :    0.195347
  28 H :    0.182310
  29 H :    0.197697
  30 H :    0.196678
  31 H :    0.181541
  32 H :    0.184560
  33 H :    0.196360
  34 H :    0.182413
  35 H :    0.195238
  36 H :    0.185253
  37 H :    0.306479
  38 H :    0.200178
  39 H :    0.204105
  40 H :    0.200618
  41 H :    0.364204
Sum of atomic charges:   -0.0000000

LOEWDIN ATOMIC CHARGES
----------------------
   0 C :   -0.004233
   1 O :   -0.509766
   2 C :    0.507718
   3 O :   -0.515278
   4 C :    0.001235
   5 C :    0.177518
   6 N :   -0.631656
   7 C :    0.325685
   8 C :    0.107765
   9 C :   -0.346789
  10 C :   -0.346286
  11 N :   -0.585143
  12 C :    0.377423
  13 O :   -0.471780
  14 C :    0.416593
  15 N :   -0.340705
  16 N :   -0.364681
  17 C :    0.375733
  18 C :   -0.318318
  19 O :   -0.393452
  20 N :   -0.557619
  21 C :    0.321550
  22 O :   -0.520995
  23 C :    0.308225
  24 O :   -0.428815
  25 H :    0.194779
  26 H :    0.194802
  27 H :    0.197442
  28 H :    0.188415
  29 H :    0.198000
  30 H :    0.197538
  31 H :    0.171428
  32 H :    0.173619
  33 H :    0.176357
  34 H :    0.171480
  35 H :    0.176076
  36 H :    0.172496
  37 H :    0.308959
  38 H :    0.191213
  39 H :    0.190343
  40 H :    0.191423
  41 H :    0.321699

  Mayer bond orders larger than 0.100000
B(  0-C ,  1-O ) :   0.8038 B(  0-C , 25-H ) :   0.9425 B(  0-C , 26-H ) :   0.9433
B(  0-C , 27-H ) :   0.9546 B(  1-O ,  2-C ) :   1.3341 B(  2-C ,  3-O ) :   1.3160
B(  2-C ,  5-C ) :   1.1195 B(  3-O ,  4-C ) :   0.8346 B(  4-C , 28-H ) :   0.9507
B(  4-C , 29-H ) :   0.9375 B(  4-C , 30-H ) :   0.9373 B(  5-C ,  6-N ) :   1.0651
B(  5-C , 23-C ) :   1.3367 B(  6-N ,  7-C ) :   1.3658 B(  7-C ,  8-C ) :   0.7382
B(  7-C , 11-N ) :  -0.1266 B(  7-C , 20-N ) :   1.2451 B(  8-C ,  9-C ) :   0.9197
B(  8-C , 10-C ) :   0.9174 B(  8-C , 11-N ) :   0.9302 B(  8-C , 20-N ) :   0.1238
B(  9-C , 31-H ) :   0.9702 B(  9-C , 32-H ) :   0.9619 B(  9-C , 33-H ) :   0.9654
B( 10-C , 34-H ) :   0.9687 B( 10-C , 35-H ) :   0.9626 B( 10-C , 36-H ) :   0.9647
B( 11-N , 12-C ) :   1.1903 B( 11-N , 37-H ) :   0.8299 B( 12-C , 13-O ) :   1.9129
B( 12-C , 14-C ) :   0.8291 B( 13-O , 14-C ) :  -0.1052 B( 14-C , 15-N ) :   1.7175
B( 14-C , 17-C ) :   0.1027 B( 14-C , 19-O ) :   1.0868 B( 15-N , 16-N ) :   1.2768
B( 16-N , 17-C ) :   1.6424 B( 17-C , 18-C ) :   0.8319 B( 17-C , 19-O ) :   1.0653
B( 18-C , 38-H ) :   0.9426 B( 18-C , 39-H ) :   0.9898 B( 18-C , 40-H ) :   0.9421
B( 20-N , 21-C ) :   1.2977 B( 21-C , 22-O ) :   1.9443 B( 21-C , 23-C ) :   0.8736
B( 23-C , 24-O ) :   1.1492 B( 24-O , 41-H ) :   0.7913

Dispersion correction           -0.018672865
FINAL SINGLE POINT ENERGY     -1268.602884279361

DIPOLE MOMENT
-------------
                                X             Y             Z
Electronic contribution:      8.12666       7.03549       0.51584
Nuclear contribution   :    -15.37363      -4.98037      -0.58225
                        -----------------------------------------
Total Dipole Moment    :     -7.24697       2.05512      -0.06642
                        -----------------------------------------
Magnitude (a.u.)       :      7.53303
Magnitude (Debye)      :     19.14745

Rotational constants in cm-1:     0.015514     0.003532     0.002939
Rotational constants in MHz :   465.098998   105.890775    88.107570

                             ****ORCA TERMINATED NORMALLY****
TOTAL RUN TIME: 0 days 0 hours 2 minutes 15 seconds 986 msec
