   * xtb version 6.5.1 (579679a) compiled by 'ehlert@majestix' on 2022-07-11
          program call               : /lustre/hpc/kemi/ree/PhD/git/ReactivityQM/dep/xtb-6.5.1/bin/xtb --gfn 1 /lustre/hpc/kemi/ree/PhD/git/ReactivityQM/calculations/R02deprot/reac01prodN04/conf07/R02deprot_reac01prodN04_conf07_gfn1.xyz --opt --vfukui --chrg 0 --uhf 0 --alpb DMSO

   ID    Z sym.   atoms
    1    6 C      1, 3, 5, 6, 8-11, 13, 15, 18, 19, 22, 24
    2    8 O      2, 4, 14, 20, 23, 25
    3    7 N      7, 12, 16, 17, 21
    4    1 H      26-42

      * Solvation model:               ALPB
        Solvent                        DMSO
        Solvent mass                       7.8130E+01 g/mol
          :  Hamiltonian                  GFN1-xTB          :
 * total energy  :   -82.9424168 Eh     change       -0.2714273E-10 Eh
 * total energy  :   -82.9609205 Eh     change       -0.1850371E-01 Eh
 * total energy  :   -82.9669590 Eh     change       -0.6038501E-02 Eh
 * total energy  :   -82.9682767 Eh     change       -0.1317697E-02 Eh
 * total energy  :   -82.9691665 Eh     change       -0.8898100E-03 Eh
 * total energy  :   -82.9696833 Eh     change       -0.5168418E-03 Eh
 * total energy  :   -82.9702812 Eh     change       -0.5978744E-03 Eh
 * total energy  :   -82.9709559 Eh     change       -0.6747397E-03 Eh
 * total energy  :   -82.9715305 Eh     change       -0.5745403E-03 Eh
 * total energy  :   -82.9719482 Eh     change       -0.4177087E-03 Eh
 * total energy  :   -82.9754028 Eh     change       -0.2211609E-04 Eh
 * total energy  :   -82.9754206 Eh     change       -0.1771629E-04 Eh
 * total energy  :   -82.9754316 Eh     change       -0.1106578E-04 Eh
 * total energy  :   -82.9754406 Eh     change       -0.8963520E-05 Eh
 * total energy  :   -82.9754486 Eh     change       -0.8026894E-05 Eh
 * total energy  :   -82.9754584 Eh     change       -0.9826406E-05 Eh
 * total energy  :   -82.9754698 Eh     change       -0.1133283E-04 Eh
 * total energy  :   -82.9754771 Eh     change       -0.7313629E-05 Eh
 * total energy  :   -82.9754814 Eh     change       -0.4289057E-05 Eh
   *** GEOMETRY OPTIMIZATION CONVERGED AFTER 55 ITERATIONS ***

 final structure:
================
42
 xtb: 6.5.1 (579679a)
C           -5.84190891613569        2.14448823600133        0.25470088932049
O           -4.40827831125452        2.16269548353052        0.27829654298669
C           -3.74391377315856        1.05164949502795        0.17521116022115
O           -4.47232539776101       -0.02023884459196        0.06351338700808
C           -3.97394179487802       -1.35631477677899       -0.08180315180574
C           -2.31624351068257        1.11972608243652        0.19144471812419
N           -1.60968350963440       -0.05722820449512        0.11065236608422
C           -0.29516875234159        0.01150502903042        0.12649173941855
C            0.43287822961593       -1.32471484812817        0.06278658883173
C            0.00786176890785       -2.08575031014521       -1.19972497305298
C            0.09862082335221       -2.12997668956872        1.32692908397871
N            1.86336718804225       -1.04207097210384        0.01415397546902
C            2.82090247509550       -1.97533899056283       -0.04696891249203
O            2.64198937241005       -3.18608584307816       -0.06655278215762
C            4.18955499872775       -1.38838774021978       -0.09238347655066
N            5.32283733574944       -2.01735439164324       -0.13984403911366
N            6.30087487128996       -1.06571154478500       -0.17604622272706
C            5.70269365325197        0.08402116943070       -0.14911029057461
C            6.31595954792510        1.43022121109929       -0.17291847910503
O            4.36738979410616       -0.04939251521836       -0.09547015161157
N            0.45709031519794        1.10768961263619        0.20751461452162
C           -0.14406244962253        2.31093452033133        0.29228039619629
O            0.42928773688901        3.40428180331540        0.37610960687806
C           -1.62107495976201        2.31516423349479        0.28831472399280
O           -2.17217793956726        3.51694415577481        0.37965687372661
H           -6.21821775679677        1.56059683388001        1.09588368702123
H           -6.19112422178991        1.70681918580557       -0.68152787812624
H           -6.15634098994498        3.18269628472770        0.33531515905349
H           -4.85737383277759       -1.98845030466700       -0.16345650860415
H           -3.38073148401587       -1.63401386592101        0.78974237732794
H           -3.36266633737963       -1.43291081938190       -0.98129112897660
H            0.30266788062136       -1.52844256289506       -2.08805618677098
H           -1.07425231947145       -2.20188620798785       -1.19906810334236
H            0.47098225989913       -3.07109751763095       -1.22406135259140
H            0.45099209590624       -1.59943502556426        2.21089215897492
H            0.56622533896788       -3.11266715805603        1.28719803957525
H           -0.98116972630192       -2.25100652478196        1.39491352505150
H            2.10999401596629       -0.05669208341183        0.03972994155239
H            6.02503472268513        1.98678694781721        0.71773690547806
H            7.39859431713844        1.34016865530484       -0.20993720838225
H            5.96527109913520        1.98229939192566       -1.04488206335545
H           -1.42041385759233        4.15648341004442        0.43207444856162

          :  Hamiltonian                  GFN1-xTB          :
         :: total energy             -82.975481375016 Eh    ::
         :: gradient norm              0.000349606909 Eh/a0 ::
         :: HOMO-LUMO gap              1.651012189106 eV    ::
         :: SCC energy               -83.743806557512 Eh    ::
         :: -> Gsolv                  -0.058399743126 Eh    ::
         :: repulsion energy           0.794068267308 Eh    ::

    * Orbital Energies and Occupations

         #    Occupation            Energy/Eh            Energy/eV
      -------------------------------------------------------------
         1        2.0000           -0.8844403             -24.0668
       ...           ...                  ...                  ...
        55        2.0000           -0.4992126             -13.5843
        56        2.0000           -0.4913526             -13.3704
        57        2.0000           -0.4889460             -13.3049
        58        2.0000           -0.4739807             -12.8977
        59        2.0000           -0.4684542             -12.7473
        60        2.0000           -0.4592302             -12.4963
        61        2.0000           -0.4566825             -12.4270
        62        2.0000           -0.4523195             -12.3082
        63        2.0000           -0.4451559             -12.1133
        64        2.0000           -0.4356078             -11.8535
        65        2.0000           -0.4334993             -11.7961
        66        2.0000           -0.4056757             -11.0390
        67        2.0000           -0.4052131             -11.0264 (HOMO)
        68                         -0.3445395              -9.3754 (LUMO)
        69                         -0.3012530              -8.1975
        70                         -0.2603906              -7.0856
        71                         -0.2519705              -6.8565
        72                         -0.2371302              -6.4526
        73                         -0.1895465              -5.1578
        74                         -0.1574800              -4.2852
        75                         -0.1489205              -4.0523
        76                         -0.1431839              -3.8962
        77                         -0.1400681              -3.8114
        78                         -0.1203070              -3.2737
       ...                                ...                  ...
       134                          0.7313758              19.9017
      -------------------------------------------------------------
                  HL-Gap            0.0606736 Eh            1.6510 eV

Wiberg/Mayer (AO) data.
largest (>0.10) Wiberg bond orders for each atom

     #   Z sym  total        # sym  WBO       # sym  WBO       # sym  WBO
 ---------------------------------------------------------------------------
     1   6 C    3.844 --    28 H    0.983    27 H    0.976    26 H    0.975
                             2 O    0.871
     2   8 O    2.282 --     3 C    1.217     1 C    0.871
     3   6 C    3.810 --     2 O    1.217     4 O    1.208     6 C    1.177
     4   8 O    2.278 --     3 C    1.208     5 C    0.863
     5   6 C    3.831 --    29 H    0.981    30 H    0.973    31 H    0.972
                             4 O    0.863
     6   6 C    3.954 --    24 C    1.370     3 C    1.177     7 N    1.167
     7   7 N    3.010 --     8 C    1.464     6 C    1.167
     8   6 C    3.950 --     7 N    1.464    21 N    1.354     9 C    0.976
     9   6 C    3.936 --    10 C    0.983    11 C    0.980     8 C    0.976
                            12 N    0.930
    10   6 C    3.991 --    32 H    0.986     9 C    0.983    33 H    0.983
                            34 H    0.981
    11   6 C    3.991 --    35 H    0.986    37 H    0.984    36 H    0.982
                             9 C    0.980
    12   7 N    3.379 --    13 C    1.294     9 C    0.930    38 H    0.870
                            14 O    0.184
    13   6 C    3.922 --    14 O    1.562    12 N    1.294    15 C    0.985
    14   8 O    1.882 --    13 C    1.562    12 N    0.184
    15   6 C    3.869 --    16 N    1.626    20 O    1.049    13 C    0.985
    16   7 N    2.996 --    15 C    1.626    17 N    1.193
    17   7 N    2.980 --    18 C    1.616    16 N    1.193
    18   6 C    3.871 --    17 N    1.616    20 O    1.073    19 C    1.031
    19   6 C    3.987 --    18 C    1.031    40 H    0.983    39 H    0.964
                            41 H    0.964
    20   8 O    2.317 --    18 C    1.073    15 C    1.049
    21   7 N    3.026 --     8 C    1.354    22 C    1.257    23 O    0.133
    22   6 C    3.930 --    23 O    1.508    21 N    1.257    24 C    1.033
    23   8 O    1.856 --    22 C    1.508    21 N    0.133
    24   6 C    3.893 --     6 C    1.370    25 O    1.153    22 C    1.033
    25   8 O    2.124 --    24 C    1.153    42 H    0.785
    26   1 H    1.002 --     1 C    0.975
    27   1 H    1.002 --     1 C    0.976
    28   1 H    1.005 --     1 C    0.983
    29   1 H    1.006 --     5 C    0.981
    30   1 H    1.021 --     5 C    0.973
    31   1 H    1.021 --     5 C    0.972
    32   1 H    1.003 --    10 C    0.986
    33   1 H    1.011 --    10 C    0.983
    34   1 H    1.010 --    10 C    0.981
    35   1 H    1.003 --    11 C    0.986
    36   1 H    1.010 --    11 C    0.982
    37   1 H    1.010 --    11 C    0.984
    38   1 H    0.963 --    12 N    0.870
    39   1 H    0.997 --    19 C    0.964
    40   1 H    0.999 --    19 C    0.983
    41   1 H    0.997 --    19 C    0.964
    42   1 H    0.851 --    25 O    0.785
 ---------------------------------------------------------------------------

           -------------------------------------------------
          | TOTAL ENERGY              -82.975481375016 Eh   |
          | GRADIENT NORM               0.000349606909 Eh/α |
          | HOMO-LUMO GAP               1.651012189106 eV   |
           -------------------------------------------------

 * finished run on 2023/06/20 at 18:09:49.075
