   * xtb version 6.5.1 (579679a) compiled by 'ehlert@majestix' on 2022-07-11
          program call               : /lustre/hpc/kemi/ree/PhD/git/ReactivityQM/dep/xtb-6.5.1/bin/xtb --gfn 1 /lustre/hpc/kemi/ree/PhD/git/ReactivityQM/calculations/RaltegravirCLI/reac02prodE04/conf11/RaltegravirCLI_reac02prodE04_conf11_gfn1.xyz --opt --vfukui --chrg -1 --uhf 0 --alpb DMSO

   ID    Z sym.   atoms
    1    6 C      1, 3, 5, 7-9, 12-16, 18, 19, 21-24
    2    7 N      2, 11, 20, 25
    3    8 O      4, 6, 10
    4    9 F      17
    5    1 H      26-47

      * Solvation model:               ALPB
        Solvent                        DMSO
        Solvent mass                       7.8130E+01 g/mol
          :  Hamiltonian                  GFN1-xTB          :
 * total energy  :   -80.1870670 Eh     change       -0.5339018E-10 Eh
 * total energy  :   -80.2023226 Eh     change       -0.1525553E-01 Eh
 * total energy  :   -80.2059015 Eh     change       -0.3578925E-02 Eh
 * total energy  :   -80.2064520 Eh     change       -0.5505096E-03 Eh
 * total energy  :   -80.2068626 Eh     change       -0.4105937E-03 Eh
 * total energy  :   -80.2069990 Eh     change       -0.1363692E-03 Eh
 * total energy  :   -80.2071508 Eh     change       -0.1517951E-03 Eh
 * total energy  :   -80.2072913 Eh     change       -0.1404974E-03 Eh
 * total energy  :   -80.2074738 Eh     change       -0.1825107E-03 Eh
 * total energy  :   -80.2076712 Eh     change       -0.1974030E-03 Eh
 * total energy  :   -80.2119513 Eh     change       -0.1282033E-04 Eh
 * total energy  :   -80.2119765 Eh     change       -0.2519234E-04 Eh
 * total energy  :   -80.2119878 Eh     change       -0.1124668E-04 Eh
 * total energy  :   -80.2120113 Eh     change       -0.2358156E-04 Eh
 * total energy  :   -80.2120216 Eh     change       -0.1027622E-04 Eh
 * total energy  :   -80.2120430 Eh     change       -0.2138282E-04 Eh
 * total energy  :   -80.2120575 Eh     change       -0.1447837E-04 Eh
 * total energy  :   -80.2120712 Eh     change       -0.1368205E-04 Eh
 * total energy  :   -80.2120756 Eh     change       -0.4435516E-05 Eh
   *** GEOMETRY OPTIMIZATION CONVERGED AFTER 44 ITERATIONS ***

 final structure:
================
47
 xtb: 6.5.1 (579679a)
C           -2.18819867801599       -1.96148363893962       -1.79968914716222
N           -1.65577156797154       -1.41422674880958       -0.55913518507249
C           -0.47764091338346       -2.10246532829277       -0.02419480086665
O           -0.10208319329705       -3.18013623291990       -0.58316819463025
C            0.06816287337146       -1.52506007854021        1.07412891740623
O            1.22628273776646       -2.10802686577464        1.67082619044756
C           -0.35473608868186       -0.21307699470993        1.65553125254740
C           -0.44607981380077       -0.25665400913647        3.19742458014052
C            0.68310531290137        0.86636199005555        1.24886861487684
O            0.43005488921137        1.82042831583323        0.51908281973003
N            1.92361520416804        0.66622181000791        1.76042866157613
C            3.03422747267754        1.52698248199199        1.37540883590747
C            3.68217908961357        1.05442194777881        0.09178810189188
C            4.79831021802379        0.22205858783344        0.13034418541756
C            5.38950728010214       -0.22515220454256       -1.04368555885594
C            4.83869829239953        0.17585110274819       -2.24673021074783
F            5.40710941482534       -0.24982823124038       -3.39032680547807
C            3.73272969141300        1.00328151415302       -2.32351251064909
C            3.15555038506453        1.43996388431395       -1.13997207477014
N           -1.65570226865313        0.19301272764037        1.15009558799908
C           -2.19256790107187       -0.36352938638562        0.12144039153164
C           -3.52971001822819        0.26540920168809       -0.30460085026508
C           -4.00241818748027        1.24580919111161        0.78415483230809
C           -3.36039009822946        1.04364432520475       -1.61661616618770
N           -4.55317647225571       -0.76909747629189       -0.48671932436046
H           -3.27708512822810       -1.98467089138299       -1.78828193763778
H           -1.81899736747378       -2.98465168726738       -1.91205659450236
H           -1.84790827623522       -1.37795522029553       -2.66196053576848
H            1.35190280126086       -2.96320977833193        1.23177390072263
H            0.49343619122577       -0.59524059599192        3.63025532087767
H           -0.68366477762821        0.73317784074430        3.58673598685120
H           -1.23711840513728       -0.94773527334334        3.48770869137883
H            2.16574298451153       -0.23341956178496        2.15082969875093
H            2.64537496797116        2.54293207341386        1.24860571939130
H            3.76170783527512        1.52536417668878        2.19100071591229
H            5.21868234354744       -0.07596041160035        1.08382504944347
H            6.26165989483764       -0.86502212838427       -1.02771590161860
H            3.34179174139938        1.30157952981972       -3.28771459838528
H            2.28889754050713        2.09187632756035       -1.17195211165586
H           -4.97567912489450        1.65221865936522        0.51188453672051
H           -3.29272490891708        2.06573800342015        0.89464807448256
H           -4.09021362513183        0.73309828994564        1.74131722240281
H           -4.26546201728876        1.61297642606721       -1.82751232846296
H           -3.17883237530116        0.37551545475751       -2.45609086647069
H           -2.52454518977656        1.73861906569013       -1.53096513990580
H           -4.80287872015781       -1.15822517956221        0.41345250542754
H           -5.38514504483305       -0.34171600431538       -0.86715955068967

          :  Hamiltonian                  GFN1-xTB          :
         :: total energy             -80.212075590108 Eh    ::
         :: gradient norm              0.000402939071 Eh/a0 ::
         :: HOMO-LUMO gap              0.986732062466 eV    ::
         :: SCC energy               -81.073357269076 Eh    ::
         :: -> Gsolv                  -0.111433187776 Eh    ::
         :: repulsion energy           0.892959894799 Eh    ::

    * Orbital Energies and Occupations

         #    Occupation            Energy/Eh            Energy/eV
      -------------------------------------------------------------
         1        2.0000           -0.8571734             -23.3249
       ...           ...                  ...                  ...
        56        2.0000           -0.4616857             -12.5631
        57        2.0000           -0.4550178             -12.3817
        58        2.0000           -0.4460190             -12.1368
        59        2.0000           -0.4431812             -12.0596
        60        2.0000           -0.4398123             -11.9679
        61        2.0000           -0.4309879             -11.7278
        62        2.0000           -0.4172898             -11.3550
        63        2.0000           -0.4104661             -11.1693
        64        2.0000           -0.3943906             -10.7319
        65        2.0000           -0.3754480             -10.2165
        66        2.0000           -0.3726716             -10.1409
        67        2.0000           -0.3619020              -9.8479
        68        2.0000           -0.3013574              -8.2004 (HOMO)
        69                         -0.2650956              -7.2136 (LUMO)
        70                         -0.2581924              -7.0258
        71                         -0.2187317              -5.9520
        72                         -0.2059294              -5.6036
        73                         -0.1374213              -3.7394
        74                         -0.1240671              -3.3760
        75                         -0.1123778              -3.0580
        76                         -0.1108147              -3.0154
        77                         -0.1032709              -2.8101
        78                         -0.0992686              -2.7012
        79                         -0.0963465              -2.6217
       ...                                ...                  ...
       144                          0.6935025              18.8712
      -------------------------------------------------------------
                  HL-Gap            0.0362617 Eh            0.9867 eV

Wiberg/Mayer (AO) data.
largest (>0.10) Wiberg bond orders for each atom

     #   Z sym  total        # sym  WBO       # sym  WBO       # sym  WBO
 ---------------------------------------------------------------------------
     1   6 C    3.958 --    28 H    0.981    26 H    0.976    27 H    0.974
                             2 N    0.958
     2   7 N    3.371 --    21 C    1.200     1 C    0.958     3 C    0.903
                            20 N    0.170
     3   6 C    3.920 --     5 C    1.544     4 O    1.338     2 N    0.903
     4   8 O    1.702 --     3 C    1.338     5 C    0.175
     5   6 C    3.780 --     3 C    1.544     7 C    0.979     6 O    0.927
                             4 O    0.175
     6   8 O    1.927 --     5 C    0.927    29 H    0.854
     7   6 C    3.968 --    20 N    0.980     5 C    0.979     8 C    0.971
                             9 C    0.913
     8   6 C    3.996 --    31 H    0.988    32 H    0.986    30 H    0.985
                             7 C    0.971
     9   6 C    3.867 --    10 O    1.586    11 N    1.236     7 C    0.913
    10   8 O    1.872 --     9 C    1.586    11 N    0.149
    11   7 N    3.306 --     9 C    1.236    12 C    0.948    33 H    0.897
                            10 O    0.149
    12   6 C    3.960 --    13 C    0.995    35 H    0.978    34 H    0.972
                            11 N    0.948
    13   6 C    3.988 --    14 C    1.420    19 C    1.414    12 C    0.995
    14   6 C    3.994 --    15 C    1.440    13 C    1.420    36 H    0.972
                            18 C    0.110
    15   6 C    3.991 --    14 C    1.440    16 C    1.403    37 H    0.970
                            19 C    0.111
    16   6 C    3.856 --    15 C    1.403    18 C    1.400    17 F    0.918
    17   9 F    1.044 --    16 C    0.918
    18   6 C    3.992 --    19 C    1.446    16 C    1.400    38 H    0.970
                            14 C    0.110
    19   6 C    3.992 --    18 C    1.446    13 C    1.414    39 H    0.969
                            15 C    0.111
    20   7 N    2.977 --    21 C    1.643     7 C    0.980     2 N    0.170
    21   6 C    3.946 --    20 N    1.643     2 N    1.200    22 C    0.964
    22   6 C    3.963 --    23 C    0.993    24 C    0.991    25 N    0.975
                            21 C    0.964
    23   6 C    3.997 --    22 C    0.993    40 H    0.987    42 H    0.985
                            41 H    0.983
    24   6 C    3.996 --    22 C    0.991    45 H    0.986    43 H    0.985
                            44 H    0.982
    25   7 N    2.989 --    22 C    0.975    47 H    0.948    46 H    0.947
    26   1 H    1.035 --     1 C    0.976
    27   1 H    1.027 --     1 C    0.974
    28   1 H    1.013 --     1 C    0.981
    29   1 H    0.894 --     6 O    0.854
    30   1 H    1.012 --     8 C    0.985
    31   1 H    1.011 --     8 C    0.988
    32   1 H    1.016 --     8 C    0.986
    33   1 H    0.964 --    11 N    0.897
    34   1 H    1.013 --    12 C    0.972
    35   1 H    1.006 --    12 C    0.978
    36   1 H    1.000 --    14 C    0.972
    37   1 H    0.999 --    15 C    0.970
    38   1 H    1.000 --    18 C    0.970
    39   1 H    1.016 --    19 C    0.969
    40   1 H    1.007 --    23 C    0.987
    41   1 H    1.022 --    23 C    0.983
    42   1 H    1.019 --    23 C    0.985
    43   1 H    1.004 --    24 C    0.985
    44   1 H    1.009 --    24 C    0.982
    45   1 H    1.007 --    24 C    0.986
    46   1 H    0.964 --    25 N    0.947
    47   1 H    0.964 --    25 N    0.948
 ---------------------------------------------------------------------------

           -------------------------------------------------
          | TOTAL ENERGY              -80.212075590108 Eh   |
          | GRADIENT NORM               0.000402939071 Eh/α |
          | HOMO-LUMO GAP               0.986732062466 eV   |
           -------------------------------------------------

 * finished run on 2023/06/20 at 15:00:05.481
