   * xtb version 6.5.1 (579679a) compiled by 'ehlert@majestix' on 2022-07-11
          program call               : /lustre/hpc/kemi/ree/PhD/git/ReactivityQM/dep/xtb-6.5.1/bin/xtb --gfn 1 /lustre/hpc/kemi/ree/PhD/git/ReactivityQM/calculations/R03/reac02prodN10/conf04/R03_reac02prodN10_conf04_gfn1.xyz --opt --vfukui --chrg 1 --uhf 0 --alpb DMSO

   ID    Z sym.   atoms
    1    6 C      1, 3, 5, 6, 8, 11-16, 18, 20, 23, 24
    2    8 O      2, 4, 7, 9, 19, 25
    3    7 N      10, 17, 21, 22, 26
    4    1 H      27-46

      * Solvation model:               ALPB
        Solvent                        DMSO
        Solvent mass                       7.8130E+01 g/mol
          :  Hamiltonian                  GFN1-xTB          :
 * total energy  :   -86.2732537 Eh     change       -0.2009415E-10 Eh
 * total energy  :   -86.2919058 Eh     change       -0.1865208E-01 Eh
 * total energy  :   -86.2997650 Eh     change       -0.7859165E-02 Eh
 * total energy  :   -86.3015375 Eh     change       -0.1772507E-02 Eh
 * total energy  :   -86.3025884 Eh     change       -0.1050900E-02 Eh
 * total energy  :   -86.3031399 Eh     change       -0.5514920E-03 Eh
 * total energy  :   -86.3036355 Eh     change       -0.4956362E-03 Eh
 * total energy  :   -86.3041616 Eh     change       -0.5260985E-03 Eh
 * total energy  :   -86.3047023 Eh     change       -0.5406583E-03 Eh
 * total energy  :   -86.3052276 Eh     change       -0.5252876E-03 Eh
 * total energy  :   -86.3069307 Eh     change       -0.2334475E-04 Eh
 * total energy  :   -86.3069502 Eh     change       -0.1956568E-04 Eh
 * total energy  :   -86.3069496 Eh     change        0.6466140E-06 Eh
 * total energy  :   -86.3069716 Eh     change       -0.2202163E-04 Eh
 * total energy  :   -86.3069823 Eh     change       -0.1074222E-04 Eh
 * total energy  :   -86.3069950 Eh     change       -0.1262179E-04 Eh
 * total energy  :   -86.3069990 Eh     change       -0.4073035E-05 Eh
 * total energy  :   -86.3070058 Eh     change       -0.6786736E-05 Eh
 * total energy  :   -86.3070083 Eh     change       -0.2504822E-05 Eh
   *** GEOMETRY OPTIMIZATION CONVERGED AFTER 38 ITERATIONS ***

 final structure:
================
46
 xtb: 6.5.1 (579679a)
C            6.30403875879675        1.22203005791421        1.72351776997074
O            5.25487526629525        0.64569297388496        0.92588029974050
C            4.02221873311125        1.00305372765955        1.21109464442082
O            3.69619316091975        1.76755557940985        2.07992138049884
C            2.99927642690141        0.33725392357381        0.30632413550956
C            3.21865886027424       -0.83025177169485       -0.45018844211163
O            4.33062474206870       -1.48173035572900       -0.46925145066036
C            2.14675710492751       -1.35793283596931       -1.32401426505252
O            2.37121101703626       -2.32709673508656       -2.02754602684109
N            0.97732573001692       -0.66634388203515       -1.29444760271832
C           -0.04447259485074       -1.08734023567177       -2.24940029788810
C            0.73249002663333        0.43084789100686       -0.40101056232821
C            0.02775585745615        1.58350681077291       -1.12048333680098
C           -0.21774644474724       -0.11363106165643        0.88335196883134
C           -0.15536586491487        0.92033748878050        2.00137262479289
C            0.35276292815314       -1.44936738249334        1.33989366173883
N           -1.53244288809531       -0.33337005087153        0.39820556984799
C           -2.55325672743030        0.59268151759302        0.33030800822108
O           -2.45294298622788        1.76122285254376        0.62509638310293
C           -3.77833276875318       -0.05192561333185       -0.16900764859027
N           -3.89227399986111       -1.30040580247191       -0.52361405735897
N           -5.17067516991247       -1.47558760532446       -0.93260971566707
C           -5.76545400999519       -0.32174571713413       -0.80631562480305
C           -7.17088176225261        0.00846955260712       -1.12114660317031
O           -4.93468335531794        0.61262659370758       -0.32859154656207
N            1.83084103279590        0.92085736770376        0.27466053079784
H            6.30148628429544        2.30726338040441        1.60516186572197
H            7.23477204082883        0.79688671142515        1.35536917007331
H            6.15018470277993        0.96598402636475        2.77332094951032
H            4.26346144536600       -2.26544541597821       -1.06244760787660
H            0.13452367695572       -2.13402622727933       -2.49075004799994
H            0.03805586346157       -0.48054994153927       -3.15205019336248
H           -1.03139261251376       -0.96271681259691       -1.81468999523964
H           -0.11733221929599        2.41352546178873       -0.43302546673564
H            0.66734682271247        1.90552507008309       -1.94052853303685
H           -0.93308908119299        1.27063263159144       -1.51564852425637
H           -0.93324279894456        0.69187717790303        2.72876806210266
H           -0.30460173215757        1.93397505057457        1.63953848059320
H            0.82078081810509        0.86506866260600        2.48174069270203
H            0.21448213956996       -2.21809783006664        0.58283481830646
H            1.41235209189944       -1.36259026556358        1.57221480995935
H           -0.17325077705737       -1.75258401957615        2.24492810309272
H           -1.77708774125495       -1.27734737582401        0.13040313872157
H           -7.66036898401201       -0.85552744580152       -1.56412714586107
H           -7.69586508137292        0.29873321492403       -0.21024802210175
H           -7.20771193120791        0.85000865887422       -1.81276535123213

          :  Hamiltonian                  GFN1-xTB          :
         :: total energy             -86.307008335163 Eh    ::
         :: gradient norm              0.000366487508 Eh/a0 ::
         :: HOMO-LUMO gap              1.097500426635 eV    ::
         :: SCC energy               -87.133117934341 Eh    ::
         :: -> Gsolv                  -0.106503212084 Eh    ::
         :: repulsion energy           0.857848118267 Eh    ::

    * Orbital Energies and Occupations

         #    Occupation            Energy/Eh            Energy/eV
      -------------------------------------------------------------
         1        2.0000           -0.8935455             -24.3146
       ...           ...                  ...                  ...
        58        2.0000           -0.5318434             -14.4722
        59        2.0000           -0.5273626             -14.3503
        60        2.0000           -0.5236461             -14.2491
        61        2.0000           -0.5215892             -14.1932
        62        2.0000           -0.5180575             -14.0971
        63        2.0000           -0.5124463             -13.9444
        64        2.0000           -0.5020767             -13.6622
        65        2.0000           -0.4997368             -13.5985
        66        2.0000           -0.4911590             -13.3651
        67        2.0000           -0.4898153             -13.3286
        68        2.0000           -0.4791168             -13.0374
        69        2.0000           -0.4700630             -12.7911
        70        2.0000           -0.4688866             -12.7591 (HOMO)
        71                         -0.4285542             -11.6616 (LUMO)
        72                         -0.3543597              -9.6426
        73                         -0.3375670              -9.1857
        74                         -0.2791323              -7.5956
        75                         -0.2717182              -7.3938
        76                         -0.2276947              -6.1959
        77                         -0.2217581              -6.0343
        78                         -0.1655895              -4.5059
        79                         -0.1605978              -4.3701
        80                         -0.1504224              -4.0932
        81                         -0.1477230              -4.0197
       ...                                ...                  ...
       144                          0.7219594              19.6455
      -------------------------------------------------------------
                  HL-Gap            0.0403324 Eh            1.0975 eV

Wiberg/Mayer (AO) data.
largest (>0.10) Wiberg bond orders for each atom

     #   Z sym  total        # sym  WBO       # sym  WBO       # sym  WBO
 ---------------------------------------------------------------------------
     1   6 C    3.848 --    28 H    0.985    29 H    0.978    27 H    0.978
                             2 O    0.874
     2   8 O    2.229 --     3 C    1.159     1 C    0.874     4 O    0.150
     3   6 C    3.863 --     4 O    1.690     2 O    1.159     5 C    0.942
     4   8 O    1.959 --     3 C    1.690     2 O    0.150
     5   6 C    3.953 --    26 N    1.518     6 C    1.242     3 C    0.942
     6   6 C    3.847 --     7 O    1.293     5 C    1.242     8 C    1.005
     7   8 O    2.221 --     6 C    1.293    30 H    0.756
     8   6 C    3.923 --     9 O    1.585    10 N    1.211     6 C    1.005
     9   8 O    1.937 --     8 C    1.585    10 N    0.182
    10   7 N    3.495 --     8 C    1.211    12 C    0.981    11 C    0.926
                             9 O    0.182
    11   6 C    3.905 --    33 H    0.971    31 H    0.971    32 H    0.961
                            10 N    0.926
    12   6 C    3.906 --    26 N    1.135    10 N    0.981    13 C    0.948
                            14 C    0.688
    13   6 C    3.963 --    36 H    0.979    34 H    0.975    35 H    0.975
                            12 C    0.948
    14   6 C    3.900 --    17 N    1.029    16 C    1.004    15 C    0.998
                            12 C    0.688
    15   6 C    3.977 --    14 C    0.998    39 H    0.977    38 H    0.972
                            37 H    0.972
    16   6 C    3.986 --    14 C    1.004    40 H    0.980    41 H    0.979
                            42 H    0.965
    17   7 N    3.377 --    18 C    1.135    14 C    1.029    43 H    0.881
                            19 O    0.133
    18   6 C    3.899 --    19 O    1.647    17 N    1.135    20 C    1.014
    19   8 O    1.949 --    18 C    1.647    17 N    0.133
    20   6 C    3.880 --    21 N    1.578    25 O    1.067    18 C    1.014
    21   7 N    3.026 --    20 C    1.578    22 N    1.228
    22   7 N    2.980 --    23 C    1.573    21 N    1.228
    23   6 C    3.857 --    22 N    1.573    25 O    1.092    24 C    1.035
    24   6 C    3.982 --    23 C    1.035    44 H    0.981    46 H    0.961
                            45 H    0.957
    25   8 O    2.342 --    23 C    1.092    20 C    1.067
    26   7 N    3.035 --     5 C    1.518    12 C    1.135
    27   1 H    1.002 --     1 C    0.978
    28   1 H    1.007 --     1 C    0.985
    29   1 H    1.002 --     1 C    0.978
    30   1 H    0.806 --     7 O    0.756
    31   1 H    0.998 --    11 C    0.971
    32   1 H    0.992 --    11 C    0.961
    33   1 H    1.002 --    11 C    0.971
    34   1 H    1.003 --    13 C    0.975
    35   1 H    0.994 --    13 C    0.975
    36   1 H    0.999 --    13 C    0.979
    37   1 H    0.993 --    15 C    0.972
    38   1 H    1.010 --    15 C    0.972
    39   1 H    1.008 --    15 C    0.977
    40   1 H    0.994 --    16 C    0.980
    41   1 H    0.998 --    16 C    0.979
    42   1 H    0.993 --    16 C    0.965
    43   1 H    0.947 --    17 N    0.881
    44   1 H    0.997 --    24 C    0.981
    45   1 H    0.994 --    24 C    0.957
    46   1 H    0.994 --    24 C    0.961
 ---------------------------------------------------------------------------

           -------------------------------------------------
          | TOTAL ENERGY              -86.307008335163 Eh   |
          | GRADIENT NORM               0.000366487508 Eh/α |
          | HOMO-LUMO GAP               1.097500426635 eV   |
           -------------------------------------------------

 * finished run on 2023/06/20 at 15:45:23.165
