   * xtb version 6.5.1 (579679a) compiled by 'ehlert@majestix' on 2022-07-11
          program call               : /lustre/hpc/kemi/ree/PhD/git/ReactivityQM/dep/xtb-6.5.1/bin/xtb --gfn 1 /lustre/hpc/kemi/ree/PhD/git/ReactivityQM/calculations/RaltegravirCLI/reac02prodE11/conf11/RaltegravirCLI_reac02prodE11_conf11_gfn1.xyz --opt --vfukui --chrg -1 --uhf 0 --alpb DMSO

   ID    Z sym.   atoms
    1    6 C      1, 3-6, 9, 10, 13-17, 19-21, 23, 24
    2    7 N      2, 7, 8, 12
    3    8 O      11, 22, 25
    4    9 F      18
    5    1 H      26-47

      * Solvation model:               ALPB
        Solvent                        DMSO
        Solvent mass                       7.8130E+01 g/mol
          :  Hamiltonian                  GFN1-xTB          :
 * total energy  :   -80.1929432 Eh     change       -0.1504930E-10 Eh
 * total energy  :   -80.2025009 Eh     change       -0.9557653E-02 Eh
 * total energy  :   -80.2057329 Eh     change       -0.3231994E-02 Eh
 * total energy  :   -80.2067335 Eh     change       -0.1000631E-02 Eh
 * total energy  :   -80.2082301 Eh     change       -0.1496620E-02 Eh
 * total energy  :   -80.2105932 Eh     change       -0.2363071E-02 Eh
 * total energy  :   -80.2100409 Eh     change        0.5522867E-03 Eh
 * total energy  :   -80.2152645 Eh     change       -0.5223580E-02 Eh
 * total energy  :   -80.2186455 Eh     change       -0.3380994E-02 Eh
 * total energy  :   -80.2223592 Eh     change       -0.3713701E-02 Eh
 * total energy  :   -80.2341775 Eh     change       -0.1000332E-04 Eh
 * total energy  :   -80.2341834 Eh     change       -0.5885829E-05 Eh
 * total energy  :   -80.2341894 Eh     change       -0.6070575E-05 Eh
 * total energy  :   -80.2341986 Eh     change       -0.9185491E-05 Eh
 * total energy  :   -80.2342068 Eh     change       -0.8158366E-05 Eh
 * total energy  :   -80.2342147 Eh     change       -0.7891271E-05 Eh
 * total energy  :   -80.2342213 Eh     change       -0.6610883E-05 Eh
 * total energy  :   -80.2342266 Eh     change       -0.5324007E-05 Eh
 * total energy  :   -80.2342314 Eh     change       -0.4825267E-05 Eh
   *** GEOMETRY OPTIMIZATION CONVERGED AFTER 51 ITERATIONS ***

 final structure:
================
47
 xtb: 6.5.1 (579679a)
C           -3.36287286573310        1.39680175328138       -1.21170558222025
N           -2.18302741589063        0.94640679939664       -0.47999844901485
C           -2.03789067648150       -0.34695950553804        0.02814897129875
C           -3.07632360956268       -1.44138822597269       -0.23139648331759
C           -2.52466666901437       -2.78736872647044        0.27291747803140
C           -4.38145655525577       -1.14081311009416        0.51993179285546
N           -3.37009805003042       -1.54753185754897       -1.66554851010005
N           -1.00399980188279       -0.69858051841054        0.69875134507272
C            0.06813037496044        0.19287706296584        0.92890600556952
C            1.29775453411520       -0.43776695539703        1.36521823059874
O            1.45357696827262       -1.66443407305975        1.47790451074361
N            2.32414583095470        0.42299810945072        1.72392726027566
C            3.67519555559640       -0.10638852744654        1.82527735262910
C            4.31243935226550       -0.21253803466527        0.45452256437225
C            5.12571775567078        0.81130322693920       -0.02590153926650
C            5.68225268266680        0.74068816310954       -1.29653213691154
C            5.40330982433069       -0.36978108092429       -2.07069942030373
F            5.94051012290879       -0.44884056503187       -3.30447808885781
C            4.60098286688715       -1.40621982165207       -1.62841210214897
C            4.05590739397538       -1.31819230157359       -0.35562241754246
C           -0.09503866498932        1.54531751484022        0.67194918278776
O            0.76140393246679        2.46953470328410        0.69408152895291
C           -1.54050995974126        1.98907313708900        0.32158185185617
C           -2.32007281213616        2.25329669476113        1.63195765888911
O           -1.45220738353298        3.17934944346389       -0.41926531660343
H           -4.18522814467377        1.67365259152148       -0.54211012257861
H           -3.69976904761011        0.61462305229538       -1.88994470898165
H           -3.09101239664470        2.27384422005280       -1.80330800954293
H           -1.58059763990937       -3.01803975905073       -0.22029121519280
H           -2.35331884669138       -2.74652863913563        1.34860580179088
H           -3.23975369842495       -3.57989702640938        0.05680338500509
H           -5.05433173071725       -1.99540889787113        0.45016391391702
H           -4.16985562755683       -0.94945039312441        1.57192221038515
H           -4.89145977832609       -0.27572084924627        0.10181969431489
H           -4.14484208631357       -2.18226029403056       -1.79392789837036
H           -2.57276137792340       -1.94445982929119       -2.14742617514717
H            2.26708151747975        1.37438601216026        1.37407309789042
H            4.26148865276768        0.56125166397354        2.46345930972328
H            3.62699913551475       -1.09343251717583        2.29800007531674
H            5.33672779965366        1.67258819794893        0.59759782533105
H            6.32129332840712        1.52618478555723       -1.67747725591749
H            4.41516485879520       -2.26098691819866       -2.26577802426020
H            3.42431932510235       -2.11912916965455        0.01463237928091
H           -0.52367009096173        3.48054595658407       -0.30398667143893
H           -3.30130697388307        2.66980519405787        1.41238944965880
H           -2.43694804098704        1.32731854122356        2.19278785247512
H           -1.76138186791750        2.97027077301481        2.23103039869110

          :  Hamiltonian                  GFN1-xTB          :
         :: total energy             -80.234231423917 Eh    ::
         :: gradient norm              0.000519931823 Eh/a0 ::
         :: HOMO-LUMO gap              1.923190075119 eV    ::
         :: SCC energy               -81.087804683726 Eh    ::
         :: -> Gsolv                  -0.103864053340 Eh    ::
         :: repulsion energy           0.884779175513 Eh    ::

    * Orbital Energies and Occupations

         #    Occupation            Energy/Eh            Energy/eV
      -------------------------------------------------------------
         1        2.0000           -0.8535705             -23.2268
       ...           ...                  ...                  ...
        56        2.0000           -0.4597909             -12.5115
        57        2.0000           -0.4535654             -12.3421
        58        2.0000           -0.4470567             -12.1650
        59        2.0000           -0.4401996             -11.9784
        60        2.0000           -0.4384489             -11.9308
        61        2.0000           -0.4249637             -11.5639
        62        2.0000           -0.4093242             -11.1383
        63        2.0000           -0.4010295             -10.9126
        64        2.0000           -0.3924800             -10.6799
        65        2.0000           -0.3922519             -10.6737
        66        2.0000           -0.3768571             -10.2548
        67        2.0000           -0.3666980              -9.9784
        68        2.0000           -0.3311013              -9.0097 (HOMO)
        69                         -0.2604254              -7.0865 (LUMO)
        70                         -0.2527686              -6.8782
        71                         -0.2259562              -6.1486
        72                         -0.2074992              -5.6463
        73                         -0.1323304              -3.6009
        74                         -0.1188642              -3.2345
        75                         -0.1105733              -3.0089
        76                         -0.1059274              -2.8824
        77                         -0.1021971              -2.7809
        78                         -0.1004498              -2.7334
        79                         -0.0959817              -2.6118
       ...                                ...                  ...
       144                          0.7031026              19.1324
      -------------------------------------------------------------
                  HL-Gap            0.0706759 Eh            1.9232 eV

Wiberg/Mayer (AO) data.
largest (>0.10) Wiberg bond orders for each atom

     #   Z sym  total        # sym  WBO       # sym  WBO       # sym  WBO
 ---------------------------------------------------------------------------
     1   6 C    3.964 --    28 H    0.982    26 H    0.978    27 H    0.976
                             2 N    0.959
     2   7 N    3.246 --     3 C    1.092     1 C    0.959    23 C    0.930
                             8 N    0.140
     3   6 C    3.942 --     8 N    1.672     2 N    1.092     4 C    0.970
     4   6 C    3.963 --     5 C    0.992     6 C    0.991     7 N    0.973
                             3 C    0.970
     5   6 C    3.997 --     4 C    0.992    31 H    0.987    29 H    0.984
                            30 H    0.984
     6   6 C    3.995 --     4 C    0.991    33 H    0.986    32 H    0.984
                            34 H    0.981
     7   7 N    2.989 --     4 C    0.973    35 H    0.949    36 H    0.947
     8   7 N    3.016 --     3 C    1.672     9 C    1.058     2 N    0.140
     9   6 C    3.900 --    21 C    1.392    10 C    1.141     8 N    1.058
                            22 O    0.126
    10   6 C    3.900 --    11 O    1.505     9 C    1.141    12 N    1.133
    11   8 O    1.814 --    10 C    1.505    12 N    0.115
    12   7 N    3.225 --    10 C    1.133    13 C    0.961    37 H    0.892
                            11 O    0.115
    13   6 C    3.970 --    14 C    0.994    38 H    0.979    39 H    0.972
                            12 N    0.961
    14   6 C    3.987 --    15 C    1.420    20 C    1.412    13 C    0.994
    15   6 C    3.994 --    16 C    1.439    14 C    1.420    40 H    0.972
                            19 C    0.109
    16   6 C    3.992 --    15 C    1.439    17 C    1.405    41 H    0.970
                            20 C    0.111
    17   6 C    3.856 --    16 C    1.405    19 C    1.400    18 F    0.914
    18   9 F    1.039 --    17 C    0.914
    19   6 C    3.992 --    20 C    1.446    17 C    1.400    42 H    0.971
                            15 C    0.109
    20   6 C    3.992 --    19 C    1.446    14 C    1.412    43 H    0.968
                            16 C    0.111
    21   6 C    3.934 --    22 O    1.440     9 C    1.392    23 C    0.914
    22   8 O    1.851 --    21 C    1.440     9 C    0.126
    23   6 C    3.883 --    24 C    0.966    25 O    0.965     2 N    0.930
                            21 C    0.914
    24   6 C    3.994 --    46 H    0.987    47 H    0.986    45 H    0.984
                            23 C    0.966
    25   8 O    1.898 --    23 C    0.965    44 H    0.821
    26   1 H    1.010 --     1 C    0.978
    27   1 H    1.037 --     1 C    0.976
    28   1 H    1.022 --     1 C    0.982
    29   1 H    1.019 --     5 C    0.984
    30   1 H    1.020 --     5 C    0.984
    31   1 H    1.007 --     5 C    0.987
    32   1 H    1.003 --     6 C    0.984
    33   1 H    1.008 --     6 C    0.986
    34   1 H    1.009 --     6 C    0.981
    35   1 H    0.964 --     7 N    0.949
    36   1 H    0.965 --     7 N    0.947
    37   1 H    0.969 --    12 N    0.892
    38   1 H    1.010 --    13 C    0.979
    39   1 H    1.020 --    13 C    0.972
    40   1 H    1.001 --    15 C    0.972
    41   1 H    0.999 --    16 C    0.970
    42   1 H    1.000 --    19 C    0.971
    43   1 H    1.017 --    20 C    0.968
    44   1 H    0.890 --    25 O    0.821
    45   1 H    1.008 --    24 C    0.984
    46   1 H    1.008 --    24 C    0.987
    47   1 H    1.009 --    24 C    0.986
 ---------------------------------------------------------------------------

           -------------------------------------------------
          | TOTAL ENERGY              -80.234231423917 Eh   |
          | GRADIENT NORM               0.000519931823 Eh/α |
          | HOMO-LUMO GAP               1.923190075119 eV   |
           -------------------------------------------------

 * finished run on 2023/06/20 at 15:13:16.551
