   * xtb version 6.5.1 (579679a) compiled by 'ehlert@majestix' on 2022-07-11
          program call               : /lustre/hpc/kemi/ree/PhD/git/ReactivityQM/dep/xtb-6.5.1/bin/xtb --gfn 1 /lustre/hpc/kemi/ree/PhD/git/ReactivityQM/calculations/R01/reac02prodN07/conf03/R01_reac02prodN07_conf03_gfn1.xyz --opt --vfukui --chrg 1 --uhf 0 --alpb DMSO

   ID    Z sym.   atoms
    1    6 C      1, 3, 5, 6, 8, 11-15
    2    8 O      2, 4, 7, 9
    3    7 N      10, 16, 17
    4    1 H      18-33

      * Solvation model:               ALPB
        Solvent                        DMSO
        Solvent mass                       7.8130E+01 g/mol
          :  Hamiltonian                  GFN1-xTB          :
 * total energy  :   -57.7899654 Eh     change       -0.1556799E-10 Eh
 * total energy  :   -57.8032686 Eh     change       -0.1330327E-01 Eh
 * total energy  :   -57.8082862 Eh     change       -0.5017548E-02 Eh
 * total energy  :   -57.8093631 Eh     change       -0.1076904E-02 Eh
 * total energy  :   -57.8105230 Eh     change       -0.1159882E-02 Eh
 * total energy  :   -57.8112778 Eh     change       -0.7548063E-03 Eh
 * total energy  :   -57.8122960 Eh     change       -0.1018216E-02 Eh
 * total energy  :   -57.8131793 Eh     change       -0.8833133E-03 Eh
 * total energy  :   -57.8140543 Eh     change       -0.8750041E-03 Eh
 * total energy  :   -57.8149030 Eh     change       -0.8487028E-03 Eh
 * total energy  :   -57.8656690 Eh     change       -0.1112542E-04 Eh
 * total energy  :   -57.8656778 Eh     change       -0.8807548E-05 Eh
 * total energy  :   -57.8656849 Eh     change       -0.7061064E-05 Eh
 * total energy  :   -57.8656927 Eh     change       -0.7837243E-05 Eh
 * total energy  :   -57.8657002 Eh     change       -0.7500793E-05 Eh
 * total energy  :   -57.8657062 Eh     change       -0.5992279E-05 Eh
 * total energy  :   -57.8657113 Eh     change       -0.5074664E-05 Eh
 * total energy  :   -57.8657164 Eh     change       -0.5105600E-05 Eh
 * total energy  :   -57.8657210 Eh     change       -0.4565916E-05 Eh
   *** GEOMETRY OPTIMIZATION CONVERGED AFTER 110 ITERATIONS ***

 final structure:
================
33
 xtb: 6.5.1 (579679a)
C            2.98522858640160        1.92860346170503        1.13461769192769
O            2.14755150208806        0.92136748612627        0.55414853206632
C            2.52664553523091       -0.34551655468992        0.76062292885967
O            3.50099235234666       -0.63909803256214        1.41113735596310
C            1.62402800102862       -1.32476302630347        0.09265362560066
C            1.83603772816628       -2.67630028588199        0.14049491576644
O            2.84571249660924       -3.25491531798455        0.79598171994672
C            0.92837876916122       -3.58970798828258       -0.55182412482959
O            1.05952233977448       -4.80338762188420       -0.53279334059039
N           -0.08448300246332       -2.95681149474080       -1.23153040509789
C           -0.24286410807818       -1.60142116029955       -1.23813411048389
C           -1.39125620252718       -1.05813935947735       -2.01851032782018
C           -2.08945922696680        2.17498983125172        0.33792898727294
C           -0.75300044642312        1.79135546497957        0.81918763906463
C           -3.24663372056852        1.29256139600710        0.59755201022044
N           -2.25750586445733        3.27668142245799       -0.31318243213592
N            0.55568582021010       -0.80690027172499       -0.60746397056644
H            2.58616639581476        2.88635936548352        0.80937096804556
H            2.95463515365844        1.85657694944358        2.22453287541307
H            4.01478670193353        1.80620709069650        0.78837504615887
H            2.77838693383405       -4.22214738804347        0.68989706727333
H           -0.74585587770740       -3.53891773543603       -1.72081099350306
H           -1.35293063863081        0.02793314634395       -2.01301688236133
H           -2.33306579650570       -1.38439477358103       -1.57810064325356
H           -1.35775040188242       -1.41705135231652       -3.04708563389253
H           -0.81328643027375        1.36232226684113        1.81881899286719
H           -0.05492537952712        2.62522883297427        0.80395129568887
H           -0.35677398863067        1.00102164946226        0.16357701765090
H           -4.08260419025681        1.51475769659661       -0.06211003644307
H           -3.56839422139967        1.44498751447358        1.63129052943237
H           -2.95707573660550        0.24659125436123        0.50110306872218
H           -3.15871171087420        3.54848600368743       -0.67053950848978
H           -1.49718037248257        3.91344253033743       -0.49013685847718

          :  Hamiltonian                  GFN1-xTB          :
         :: total energy             -57.865720958969 Eh    ::
         :: gradient norm              0.000507444178 Eh/a0 ::
         :: HOMO-LUMO gap              2.194861217207 eV    ::
         :: SCC energy               -58.481468892890 Eh    ::
         :: -> Gsolv                  -0.128418404562 Eh    ::
         :: repulsion energy           0.633260084683 Eh    ::

    * Orbital Energies and Occupations

         #    Occupation            Energy/Eh            Energy/eV
      -------------------------------------------------------------
         1        2.0000           -0.8710835             -23.7034
       ...           ...                  ...                  ...
        35        2.0000           -0.5548516             -15.0983
        36        2.0000           -0.5479769             -14.9112
        37        2.0000           -0.5470851             -14.8869
        38        2.0000           -0.5452401             -14.8367
        39        2.0000           -0.5390499             -14.6683
        40        2.0000           -0.5274485             -14.3526
        41        2.0000           -0.5206183             -14.1667
        42        2.0000           -0.5035415             -13.7021
        43        2.0000           -0.4941000             -13.4451
        44        2.0000           -0.4909081             -13.3583
        45        2.0000           -0.4698608             -12.7856
        46        2.0000           -0.4577225             -12.4553
        47        2.0000           -0.4373254             -11.9002 (HOMO)
        48                         -0.3566657              -9.7054 (LUMO)
        49                         -0.3300660              -8.9816
        50                         -0.2893632              -7.8740
        51                         -0.2461441              -6.6979
        52                         -0.1771516              -4.8205
        53                         -0.1734481              -4.7198
        54                         -0.1643633              -4.4726
        55                         -0.1610830              -4.3833
        56                         -0.1505024              -4.0954
        57                         -0.1420782              -3.8661
        58                         -0.1197979              -3.2599
       ...                                ...                  ...
       100                          0.7364891              20.0409
      -------------------------------------------------------------
                  HL-Gap            0.0806597 Eh            2.1949 eV

Wiberg/Mayer (AO) data.
largest (>0.10) Wiberg bond orders for each atom

     #   Z sym  total        # sym  WBO       # sym  WBO       # sym  WBO
 ---------------------------------------------------------------------------
     1   6 C    3.869 --    18 H    0.986    19 H    0.980    20 H    0.979
                             2 O    0.894
     2   8 O    2.198 --     3 C    1.098     1 C    0.894     4 O    0.132
     3   6 C    3.851 --     4 O    1.667     2 O    1.098     5 C    1.005
     4   8 O    1.932 --     3 C    1.667     2 O    0.132
     5   6 C    3.963 --     6 C    1.506    17 N    1.167     3 C    1.005
     6   6 C    3.921 --     5 C    1.506     7 O    1.114     8 C    1.059
     7   8 O    2.093 --     6 C    1.114    21 H    0.806
     8   6 C    3.910 --     9 O    1.583    10 N    1.137     6 C    1.059
     9   8 O    1.908 --     8 C    1.583    10 N    0.134
    10   7 N    3.462 --    11 C    1.168     8 C    1.137    22 H    0.878
                             9 O    0.134
    11   6 C    3.930 --    17 N    1.579    10 N    1.168    12 C    1.026
    12   6 C    3.989 --    11 C    1.026    23 H    0.983    25 H    0.965
                            24 H    0.963
    13   6 C    3.859 --    16 N    1.629    14 C    1.077    15 C    1.064
    14   6 C    3.980 --    13 C    1.077    27 H    0.974    26 H    0.955
                            28 H    0.900
    15   6 C    3.982 --    13 C    1.064    29 H    0.974    31 H    0.960
                            30 H    0.929
    16   7 N    3.507 --    13 C    1.629    32 H    0.873    33 H    0.873
    17   7 N    3.056 --    11 C    1.579     5 C    1.167
    18   1 H    1.011 --     1 C    0.986
    19   1 H    1.006 --     1 C    0.980
    20   1 H    1.007 --     1 C    0.979
    21   1 H    0.844 --     7 O    0.806
    22   1 H    0.915 --    10 N    0.878
    23   1 H    1.004 --    12 C    0.983
    24   1 H    0.997 --    12 C    0.963
    25   1 H    0.994 --    12 C    0.965
    26   1 H    0.993 --    14 C    0.955
    27   1 H    0.995 --    14 C    0.974
    28   1 H    1.026 --    14 C    0.900
    29   1 H    0.989 --    15 C    0.974
    30   1 H    0.988 --    15 C    0.929
    31   1 H    0.994 --    15 C    0.960
    32   1 H    0.903 --    16 N    0.873
    33   1 H    0.903 --    16 N    0.873
 ---------------------------------------------------------------------------

           -------------------------------------------------
          | TOTAL ENERGY              -57.865720958969 Eh   |
          | GRADIENT NORM               0.000507444178 Eh/α |
          | HOMO-LUMO GAP               2.194861217207 eV   |
           -------------------------------------------------

 * finished run on 2023/06/20 at 15:07:56.506
