                         Program Version 5.0.1 -  RELEASE  -
|  1> # ORCA input file
|  2> ! SP r2SCAN-3c CPCM
|  3>
|  4> %maxcore 1875.0
|  5> %pal nprocs 4 end
|  6> %cpcm smd true SMDsolvent "DMSO" end
|  7>
|  8> *xyz -1 1
|  9> C       4.156176    1.345877   -0.254857
| 10> O       3.241138    0.335894   -0.669389
| 11> C       1.939307    0.546393   -0.367916
| 12> O       1.571668    1.560991    0.198921
| 13> C       1.060656   -0.673911   -0.666038
| 14> C       1.498929   -1.399930   -1.942774
| 15> N      -0.323772   -0.231393   -0.820299
| 16> C      -1.041791   -0.123819    0.236077
| 17> C      -2.433746    0.481668    0.115179
| 18> C      -3.012975    0.211444   -1.279428
| 19> C      -2.302236    1.991710    0.356914
| 20> N      -3.292178   -0.082099    1.157996
| 21> N      -0.635305   -0.433369    1.495624
| 22> C       0.453980   -1.373995    1.679756
| 23> O       0.520072   -1.989695    2.782690
| 24> C       1.249569   -1.496923    0.581544
| 25> O       2.356036   -2.386381    0.583457
| 26> H       4.139741    1.459911    0.833539
| 27> H       5.146672    1.031831   -0.580172
| 28> H       3.901646    2.304954   -0.715940
| 29> H       1.434491   -0.726128   -2.796718
| 30> H       0.840499   -2.250444   -2.117081
| 31> H       2.522504   -1.759139   -1.847430
| 32> H      -2.355832    0.630804   -2.041890
| 33> H      -3.999980    0.661752   -1.369870
| 34> H      -3.100193   -0.861582   -1.447469
| 35> H      -1.596067    2.421392   -0.354303
| 36> H      -3.268114    2.479782    0.233614
| 37> H      -1.941997    2.176714    1.369244
| 38> H      -3.579968   -1.014501    0.891457
| 39> H      -4.130582    0.474339    1.237024
| 40> H      -1.359712   -0.475786    2.200178
| 41> H       2.341362   -2.836360    1.440006
| 42> **                         ****END OF INPUT****

CARTESIAN COORDINATES (ANGSTROEM)
---------------------------------
  C      4.156176    1.345877   -0.254857
  O      3.241138    0.335894   -0.669389
  C      1.939307    0.546393   -0.367916
  O      1.571668    1.560991    0.198921
  C      1.060656   -0.673911   -0.666038
  C      1.498929   -1.399930   -1.942774
  N     -0.323772   -0.231393   -0.820299
  C     -1.041791   -0.123819    0.236077
  C     -2.433746    0.481668    0.115179
  C     -3.012975    0.211444   -1.279428
  C     -2.302236    1.991710    0.356914
  N     -3.292178   -0.082099    1.157996
  N     -0.635305   -0.433369    1.495624
  C      0.453980   -1.373995    1.679756
  O      0.520072   -1.989695    2.782690
  C      1.249569   -1.496923    0.581544
  O      2.356036   -2.386381    0.583457
  H      4.139741    1.459911    0.833539
  H      5.146672    1.031831   -0.580172
  H      3.901646    2.304954   -0.715940
  H      1.434491   -0.726128   -2.796718
  H      0.840499   -2.250444   -2.117081
  H      2.522504   -1.759139   -1.847430
  H     -2.355832    0.630804   -2.041890
  H     -3.999980    0.661752   -1.369870
  H     -3.100193   -0.861582   -1.447469
  H     -1.596067    2.421392   -0.354303
  H     -3.268114    2.479782    0.233614
  H     -1.941997    2.176714    1.369244
  H     -3.579968   -1.014501    0.891457
  H     -4.130582    0.474339    1.237024
  H     -1.359712   -0.475786    2.200178
  H      2.341362   -2.836360    1.440006

 Total Charge           Charge          ....   -1
 Multiplicity           Mult            ....    1
 Number of Electrons    NEL             ....  130
 Basis Dimension        Dim             ....  438

ORBITAL ENERGIES
----------------

  NO   OCC          E(Eh)            E(eV)
   0   2.0000     -18.975599      -516.3523
   1   2.0000     -18.932148      -515.1699
   2   2.0000     -18.908997      -514.5400
   3   2.0000     -18.857642      -513.1425
   4   2.0000     -14.151512      -385.0822
   5   2.0000     -14.130008      -384.4971
   6   2.0000     -14.110256      -383.9596
   7   2.0000     -10.124766      -275.5089
   8   2.0000     -10.075005      -274.1548
   9   2.0000     -10.064037      -273.8564
  10   2.0000     -10.063409      -273.8393
  11   2.0000     -10.061779      -273.7949
  12   2.0000     -10.061248      -273.7805
  13   2.0000     -10.018406      -272.6147
  14   2.0000     -10.010715      -272.4054
  15   2.0000     -10.003622      -272.2124
  16   2.0000     -10.001198      -272.1464
  17   2.0000      -1.044998       -28.4359
  18   2.0000      -0.965455       -26.2714
  19   2.0000      -0.953183       -25.9374
  20   2.0000      -0.932334       -25.3701
  21   2.0000      -0.897598       -24.4249
  22   2.0000      -0.849023       -23.1031
  23   2.0000      -0.814022       -22.1507
  24   2.0000      -0.739590       -20.1253
  25   2.0000      -0.703370       -19.1397
  26   2.0000      -0.667797       -18.1717
  27   2.0000      -0.649336       -17.6693
  28   2.0000      -0.644478       -17.5371
  29   2.0000      -0.585253       -15.9255
  30   2.0000      -0.576480       -15.6868
  31   2.0000      -0.516189       -14.0462
  32   2.0000      -0.511184       -13.9100
  33   2.0000      -0.494097       -13.4451
  34   2.0000      -0.467333       -12.7168
  35   2.0000      -0.459791       -12.5115
  36   2.0000      -0.441878       -12.0241
  37   2.0000      -0.428464       -11.6591
  38   2.0000      -0.417414       -11.3584
  39   2.0000      -0.416248       -11.3267
  40   2.0000      -0.404300       -11.0016
  41   2.0000      -0.396487       -10.7890
  42   2.0000      -0.382063       -10.3965
  43   2.0000      -0.373578       -10.1656
  44   2.0000      -0.357613        -9.7311
  45   2.0000      -0.349761        -9.5175
  46   2.0000      -0.344604        -9.3771
  47   2.0000      -0.340452        -9.2642
  48   2.0000      -0.336275        -9.1505
  49   2.0000      -0.330327        -8.9886
  50   2.0000      -0.328146        -8.9293
  51   2.0000      -0.318786        -8.6746
  52   2.0000      -0.310037        -8.4365
  53   2.0000      -0.306935        -8.3521
  54   2.0000      -0.298764        -8.1298
  55   2.0000      -0.292228        -7.9519
  56   2.0000      -0.287148        -7.8137
  57   2.0000      -0.257394        -7.0041
  58   2.0000      -0.250611        -6.8195
  59   2.0000      -0.221504        -6.0274
  60   2.0000      -0.219948        -5.9851
  61   2.0000      -0.203989        -5.5508
  62   2.0000      -0.192873        -5.2483
  63   2.0000      -0.179862        -4.8943
  64   2.0000      -0.104654        -2.8478
  65   0.0000      -0.005220        -0.1420
  66   0.0000       0.023097         0.6285
  67   0.0000       0.062361         1.6969
  68   0.0000       0.083748         2.2789
  69   0.0000       0.100290         2.7290

MULLIKEN ATOMIC CHARGES
-----------------------
   0 C :   -0.339216
   1 O :   -0.157882
   2 C :    0.199918
   3 O :   -0.425900
   4 C :    0.195511
   5 C :   -0.617466
   6 N :   -0.287902
   7 C :    0.200178
   8 C :    0.211401
   9 C :   -0.583270
  10 C :   -0.613675
  11 N :   -0.690620
  12 N :   -0.121500
  13 C :   -0.179052
  14 O :   -0.500781
  15 C :   -0.070306
  16 O :   -0.434293
  17 H :    0.166140
  18 H :    0.165753
  19 H :    0.166449
  20 H :    0.167248
  21 H :    0.164809
  22 H :    0.176789
  23 H :    0.171635
  24 H :    0.166745
  25 H :    0.167912
  26 H :    0.182130
  27 H :    0.172470
  28 H :    0.175840
  29 H :    0.281465
  30 H :    0.286578
  31 H :    0.291854
  32 H :    0.311034
Sum of atomic charges:   -1.0000000

LOEWDIN ATOMIC CHARGES
----------------------
   0 C :   -0.055633
   1 O :   -0.612493
   2 C :    0.387768
   3 O :   -0.456017
   4 C :    0.115589
   5 C :   -0.361326
   6 N :   -0.650676
   7 C :    0.317546
   8 C :    0.058298
   9 C :   -0.380352
  10 C :   -0.361264
  11 N :   -0.700810
  12 N :   -0.570332
  13 C :    0.275931
  14 O :   -0.644706
  15 C :    0.111077
  16 O :   -0.567963
  17 H :    0.174689
  18 H :    0.178853
  19 H :    0.175333
  20 H :    0.162479
  21 H :    0.161815
  22 H :    0.175194
  23 H :    0.168922
  24 H :    0.158477
  25 H :    0.164711
  26 H :    0.169798
  27 H :    0.163050
  28 H :    0.168054
  29 H :    0.251606
  30 H :    0.253270
  31 H :    0.289522
  32 H :    0.279588

  Mayer bond orders larger than 0.100000
B(  0-C ,  1-O ) :   0.8371 B(  0-C , 17-H ) :   0.9612 B(  0-C , 18-H ) :   0.9663
B(  0-C , 19-H ) :   0.9630 B(  1-O ,  2-C ) :   1.0566 B(  2-C ,  3-O ) :   1.8358
B(  2-C ,  4-C ) :   0.9529 B(  4-C ,  5-C ) :   0.8447 B(  4-C ,  6-N ) :   0.8739
B(  4-C , 12-N ) :   0.1079 B(  4-C , 15-C ) :   0.9061 B(  5-C , 20-H ) :   0.9772
B(  5-C , 21-H ) :   0.9860 B(  5-C , 22-H ) :   0.9889 B(  6-N ,  7-C ) :   1.8290
B(  7-C ,  8-C ) :   0.8855 B(  7-C , 11-N ) :  -0.1009 B(  7-C , 12-N ) :   1.1978
B(  8-C ,  9-C ) :   0.9540 B(  8-C , 10-C ) :   0.8891 B(  8-C , 11-N ) :   0.8908
B(  9-C , 23-H ) :   0.9726 B(  9-C , 24-H ) :   0.9737 B(  9-C , 25-H ) :   0.9735
B( 10-C , 26-H ) :   0.9754 B( 10-C , 27-H ) :   0.9652 B( 10-C , 28-H ) :   0.9721
B( 11-N , 29-H ) :   0.9135 B( 11-N , 30-H ) :   0.9120 B( 12-N , 13-C ) :   0.9340
B( 12-N , 15-C ) :  -0.1210 B( 12-N , 31-H ) :   0.8573 B( 13-C , 14-O ) :   2.1168
B( 13-C , 15-C ) :   1.2455 B( 14-O , 15-C ) :  -0.1385 B( 15-C , 16-O ) :   0.8992
B( 16-O , 32-H ) :   0.8589

Dispersion correction           -0.014091620
FINAL SINGLE POINT ENERGY      -855.830445988738

DIPOLE MOMENT
-------------
                                X             Y             Z
Electronic contribution:      7.91469      -5.00092       5.92769
Nuclear contribution   :     -9.41676       6.70279      -7.71292
                        -----------------------------------------
Total Dipole Moment    :     -1.50208       1.70188      -1.78523
                        -----------------------------------------
Magnitude (a.u.)       :      2.88785
Magnitude (Debye)      :      7.34033

Rotational constants in cm-1:     0.023843     0.011887     0.010239
Rotational constants in MHz :   714.792813   356.359243   306.957286

                             ****ORCA TERMINATED NORMALLY****
TOTAL RUN TIME: 0 days 0 hours 1 minutes 23 seconds 544 msec
