   * xtb version 6.5.1 (579679a) compiled by 'ehlert@majestix' on 2022-07-11
          program call               : /lustre/hpc/kemi/ree/PhD/git/ReactivityQM/dep/xtb-6.5.1/bin/xtb --gfn 1 /lustre/hpc/kemi/ree/PhD/git/ReactivityQM/calculations/R01/reac02prodE03/conf14/R01_reac02prodE03_conf14_gfn1.xyz --opt --vfukui --chrg -1 --uhf 0 --alpb DMSO

   ID    Z sym.   atoms
    1    6 C      1, 3, 5, 6, 8-11, 14, 16
    2    8 O      2, 4, 15, 17
    3    7 N      7, 12, 13
    4    1 H      18-33

      * Solvation model:               ALPB
        Solvent                        DMSO
        Solvent mass                       7.8130E+01 g/mol
          :  Hamiltonian                  GFN1-xTB          :
 * total energy  :   -58.5332619 Eh     change       -0.4114042E-11 Eh
 * total energy  :   -58.5467876 Eh     change       -0.1352566E-01 Eh
 * total energy  :   -58.5505594 Eh     change       -0.3771788E-02 Eh
 * total energy  :   -58.5512468 Eh     change       -0.6874628E-03 Eh
 * total energy  :   -58.5517806 Eh     change       -0.5337711E-03 Eh
 * total energy  :   -58.5519625 Eh     change       -0.1818743E-03 Eh
 * total energy  :   -58.5521305 Eh     change       -0.1680201E-03 Eh
 * total energy  :   -58.5522893 Eh     change       -0.1587704E-03 Eh
 * total energy  :   -58.5524735 Eh     change       -0.1842823E-03 Eh
 * total energy  :   -58.5526911 Eh     change       -0.2175535E-03 Eh
 * total energy  :   -58.5552382 Eh     change       -0.1790002E-04 Eh
 * total energy  :   -58.5552523 Eh     change       -0.1413996E-04 Eh
 * total energy  :   -58.5552662 Eh     change       -0.1387622E-04 Eh
 * total energy  :   -58.5552817 Eh     change       -0.1554190E-04 Eh
 * total energy  :   -58.5552940 Eh     change       -0.1228021E-04 Eh
 * total energy  :   -58.5553024 Eh     change       -0.8334495E-05 Eh
 * total energy  :   -58.5553082 Eh     change       -0.5845553E-05 Eh
 * total energy  :   -58.5553135 Eh     change       -0.5272443E-05 Eh
 * total energy  :   -58.5553162 Eh     change       -0.2739984E-05 Eh
   *** GEOMETRY OPTIMIZATION CONVERGED AFTER 44 ITERATIONS ***

 final structure:
================
33
 xtb: 6.5.1 (579679a)
C            4.15617596155338        1.34587677520119       -0.25485722662680
O            3.24113836247761        0.33589378238605       -0.66938896811588
C            1.93930735490031        0.54639278109564       -0.36791613537059
O            1.57166817886279        1.56099096430501        0.19892114216803
C            1.06065617421731       -0.67391107653678       -0.66603760671550
C            1.49892895752986       -1.39992976622576       -1.94277414980023
N           -0.32377151370192       -0.23139278883641       -0.82029913099630
C           -1.04179109272680       -0.12381915464611        0.23607715269185
C           -2.43374575581124        0.48166788627504        0.11517898921689
C           -3.01297482537288        0.21144363605097       -1.27942800343746
C           -2.30223559527815        1.99171032582563        0.35691385606107
N           -3.29217778300234       -0.08209868336065        1.15799638311635
N           -0.63530481453486       -0.43336896628760        1.49562400493263
C            0.45397958361582       -1.37399522159106        1.67975598878250
O            0.52007157267827       -1.98969457161973        2.78268992599928
C            1.24956867198122       -1.49692274156479        0.58154419481999
O            2.35603602373665       -2.38638118987880        0.58345676459750
H            4.13974113583960        1.45991060215999        0.83353902939052
H            5.14667245575880        1.03183109500451       -0.58017203088873
H            3.90164647699812        2.30495404931568       -0.71593955588571
H            1.43449127094574       -0.72612811885454       -2.79671846827589
H            0.84049862829499       -2.25044412690696       -2.11708127259568
H            2.52250422052373       -1.75913856839333       -1.84742979864352
H           -2.35583164280703        0.63080407800951       -2.04189008058931
H           -3.99998027870748        0.66175243644531       -1.36987036150416
H           -3.10019328984631       -0.86158187631646       -1.44746928072384
H           -1.59606716558656        2.42139164670190       -0.35430277407718
H           -3.26811419886593        2.47978205933176        0.23361357814228
H           -1.94199709578932        2.17671376134844        1.36924446473934
H           -3.57996818532523       -1.01450097675326        0.89145723421906
H           -4.13058178679121        0.47433881282147        1.23702437517068
H           -1.35971243678551       -0.47578588241754        2.20017806750863
H            2.34136243101815       -2.83635998209503        1.44000569269419

          :  Hamiltonian                  GFN1-xTB          :
         :: total energy             -58.555316214680 Eh    ::
         :: gradient norm              0.000395597501 Eh/a0 ::
         :: HOMO-LUMO gap              2.062390028775 eV    ::
         :: SCC energy               -59.097936673117 Eh    ::
         :: -> Gsolv                  -0.113336865911 Eh    ::
         :: repulsion energy           0.562197798906 Eh    ::

    * Orbital Energies and Occupations

         #    Occupation            Energy/Eh            Energy/eV
      -------------------------------------------------------------
         1        2.0000           -0.8075765             -21.9753
       ...           ...                  ...                  ...
        36        2.0000           -0.4830091             -13.1433
        37        2.0000           -0.4771596             -12.9842
        38        2.0000           -0.4734974             -12.8845
        39        2.0000           -0.4687586             -12.7556
        40        2.0000           -0.4601337             -12.5209
        41        2.0000           -0.4499178             -12.2429
        42        2.0000           -0.4471744             -12.1682
        43        2.0000           -0.4315015             -11.7418
        44        2.0000           -0.4002012             -10.8900
        45        2.0000           -0.3877367             -10.5509
        46        2.0000           -0.3814953             -10.3810
        47        2.0000           -0.3701935             -10.0735
        48        2.0000           -0.3065350              -8.3412 (HOMO)
        49                         -0.2307436              -6.2789 (LUMO)
        50                         -0.2096844              -5.7058
        51                         -0.1283526              -3.4927
        52                         -0.1248164              -3.3964
        53                         -0.1089065              -2.9635
        54                         -0.1061877              -2.8895
        55                         -0.0970878              -2.6419
        56                         -0.0858116              -2.3351
        57                         -0.0645225              -1.7557
        58                         -0.0643323              -1.7506
        59                         -0.0631459              -1.7183
       ...                                ...                  ...
       100                          0.7058838              19.2081
      -------------------------------------------------------------
                  HL-Gap            0.0757914 Eh            2.0624 eV

Wiberg/Mayer (AO) data.
largest (>0.10) Wiberg bond orders for each atom

     #   Z sym  total        # sym  WBO       # sym  WBO       # sym  WBO
 ---------------------------------------------------------------------------
     1   6 C    3.893 --    19 H    0.987    20 H    0.981    18 H    0.981
                             2 O    0.915
     2   8 O    2.167 --     3 C    1.061     1 C    0.915     4 O    0.113
     3   6 C    3.813 --     4 O    1.624     2 O    1.061     5 C    0.922
     4   8 O    1.888 --     3 C    1.624     2 O    0.113
     5   6 C    3.967 --     6 C    0.990     7 N    0.973    16 C    0.953
                             3 C    0.922
     6   6 C    3.997 --     5 C    0.990    21 H    0.988    22 H    0.987
                            23 H    0.985
     7   7 N    2.966 --     8 C    1.670     5 C    0.973    13 N    0.157
     8   6 C    3.946 --     7 N    1.670    13 N    1.190     9 C    0.969
     9   6 C    3.965 --    10 C    0.991    11 C    0.986    12 N    0.980
                             8 C    0.969
    10   6 C    3.996 --     9 C    0.991    25 H    0.987    26 H    0.985
                            24 H    0.983
    11   6 C    3.996 --    29 H    0.986    27 H    0.986     9 C    0.986
                            28 H    0.986
    12   7 N    2.975 --     9 C    0.980    31 H    0.947    30 H    0.947
    13   7 N    3.312 --     8 C    1.190    14 C    0.918    32 H    0.906
                             7 N    0.157
    14   6 C    3.921 --    16 C    1.506    15 O    1.360    13 N    0.918
    15   8 O    1.700 --    14 C    1.360    16 C    0.166
    16   6 C    3.791 --    14 C    1.506     5 C    0.953    17 O    0.941
                            15 O    0.166
    17   8 O    1.914 --    16 C    0.941    33 H    0.859
    18   1 H    1.011 --     1 C    0.981
    19   1 H    1.014 --     1 C    0.987
    20   1 H    1.013 --     1 C    0.981
    21   1 H    1.011 --     6 C    0.988
    22   1 H    1.013 --     6 C    0.987
    23   1 H    1.018 --     6 C    0.985
    24   1 H    1.019 --    10 C    0.983
    25   1 H    1.006 --    10 C    0.987
    26   1 H    1.009 --    10 C    0.985
    27   1 H    1.010 --    11 C    0.986
    28   1 H    1.003 --    11 C    0.986
    29   1 H    1.008 --    11 C    0.986
    30   1 H    0.963 --    12 N    0.947
    31   1 H    0.962 --    12 N    0.947
    32   1 H    0.980 --    13 N    0.906
    33   1 H    0.893 --    17 O    0.859
 ---------------------------------------------------------------------------

           -------------------------------------------------
          | TOTAL ENERGY              -58.555316214680 Eh   |
          | GRADIENT NORM               0.000395597501 Eh/α |
          | HOMO-LUMO GAP               2.062390028775 eV   |
           -------------------------------------------------

 * finished run on 2023/06/20 at 14:58:56.464
