   * xtb version 6.5.1 (579679a) compiled by 'ehlert@majestix' on 2022-07-11
          program call               : /lustre/hpc/kemi/ree/PhD/git/ReactivityQM/dep/xtb-6.5.1/bin/xtb --gfn 1 /lustre/hpc/kemi/ree/PhD/git/ReactivityQM/calculations/R02/reac01prodE14/conf06/R02_reac01prodE14_conf06_gfn1.xyz --opt --vfukui --chrg -1 --uhf 0 --alpb DMSO

   ID    Z sym.   atoms
    1    6 C      1, 3, 5, 7-10, 12, 14, 17, 18, 21, 23, 24
    2    8 O      2, 4, 13, 19, 22, 25
    3    7 N      6, 11, 15, 16, 20
    4    1 H      26-43

      * Solvation model:               ALPB
        Solvent                        DMSO
        Solvent mass                       7.8130E+01 g/mol
          :  Hamiltonian                  GFN1-xTB          :
 * total energy  :   -83.8670637 Eh     change       -0.1128910E-09 Eh
 * total energy  :   -83.8818309 Eh     change       -0.1476723E-01 Eh
 * total energy  :   -83.8875724 Eh     change       -0.5741538E-02 Eh
 * total energy  :   -83.8883935 Eh     change       -0.8210604E-03 Eh
 * total energy  :   -83.8890357 Eh     change       -0.6421755E-03 Eh
 * total energy  :   -83.8893867 Eh     change       -0.3510298E-03 Eh
 * total energy  :   -83.8897522 Eh     change       -0.3654732E-03 Eh
 * total energy  :   -83.8900094 Eh     change       -0.2572898E-03 Eh
 * total energy  :   -83.8901295 Eh     change       -0.1200800E-03 Eh
 * total energy  :   -83.8901900 Eh     change       -0.6046606E-04 Eh
 * total energy  :   -83.8924534 Eh     change       -0.2442701E-04 Eh
 * total energy  :   -83.8924829 Eh     change       -0.2951538E-04 Eh
 * total energy  :   -83.8924986 Eh     change       -0.1564871E-04 Eh
 * total energy  :   -83.8925206 Eh     change       -0.2203073E-04 Eh
 * total energy  :   -83.8925301 Eh     change       -0.9527689E-05 Eh
 * total energy  :   -83.8925423 Eh     change       -0.1217596E-04 Eh
 * total energy  :   -83.8925477 Eh     change       -0.5423555E-05 Eh
 * total energy  :   -83.8925547 Eh     change       -0.7003229E-05 Eh
 * total energy  :   -83.8925594 Eh     change       -0.4697236E-05 Eh
   *** GEOMETRY OPTIMIZATION CONVERGED AFTER 74 ITERATIONS ***

 final structure:
================
43
 xtb: 6.5.1 (579679a)
C           -5.10384362854360        2.70367400422807       -0.60713274019834
O           -4.36915759489721        1.50387067167976       -0.45625982142075
C           -3.04043657526214        1.66851043553415       -0.07047381050697
O           -2.60261205923080        2.81734576077979        0.09861935870408
C           -2.32933675176062        0.46178566577278        0.09391077340224
N           -1.06229025089690        0.57732955919078        0.58578289182206
C           -0.30763156094160       -0.43092595128734        0.83050221628184
C            1.06358878566255       -0.22806558159350        1.44420787762632
C            1.10129681115835        1.14440325039734        2.12206488171764
C            1.41681981282498       -1.31635121397236        2.46406933774710
N            2.10253409323122       -0.19150609123865        0.38464004206290
C            2.45627388233219       -1.22857606641702       -0.38546518555760
O            1.97047981834179       -2.35160038953335       -0.35429765707190
C            3.53546936868136       -0.88926824062349       -1.35416160028806
N            4.03791411862485       -1.65725206961711       -2.27095648243824
N            4.98490716563944       -0.92397304305216       -2.92449239942627
C            5.00135255407596        0.24535791573233       -2.36631590549141
C            5.86019278487933        1.39998678514414       -2.70844868765305
O            4.10667004066041        0.33549954984099       -1.36766100778233
N           -0.71509858039562       -1.74576314512183        0.50695856827173
C           -1.88409736613237       -2.01394693055435       -0.09812226579226
O           -2.12488131796399       -3.11683704241856       -0.59394317301695
C           -2.94997686080330       -0.90682092842627       -0.12418007572798
C           -3.98177600513220       -1.25388782113953        0.97676357933178
O           -3.58652804671313       -0.98759723055537       -1.40003636021692
H           -5.14514433476998        3.26338556562760        0.33520614973453
H           -6.11590958151228        2.42873907906154       -0.90752941044608
H           -4.65958339457740        3.34885850555909       -1.37483414287540
H            0.38492469290095        1.16548964177661        2.94196584154540
H            0.83398396221688        1.92327897381424        1.40814504136457
H            2.09527806584722        1.34367971790355        2.51740464381469
H            1.47299678550981       -2.29830133274943        1.99907711567317
H            0.65619015110800       -1.33906380547044        3.24328493922855
H            2.38129201186628       -1.09400569624200        2.91828011057378
H            2.62274950472989        0.66474583995637        0.29114566313303
H            6.51539587837516        1.13572265405163       -3.53489263906951
H            6.45961947162284        1.68544247955028       -1.84441146168724
H            5.24473091327405        2.25488956807648       -2.98819784380731
H           -0.01883090011656       -2.47861861274508        0.50954157385178
H           -4.35264395503867       -2.26753855483088        0.82949985104837
H           -3.51310407871827       -1.18278088438901        1.95674273720263
H           -4.81726991627982       -0.55819372569537        0.92452468608690
H           -3.62450891387950       -1.92320026599720       -1.65052520975201

          :  Hamiltonian                  GFN1-xTB          :
         :: total energy             -83.892559442202 Eh    ::
         :: gradient norm              0.000623233317 Eh/a0 ::
         :: HOMO-LUMO gap              0.735895983025 eV    ::
         :: SCC energy               -84.656238728825 Eh    ::
         :: -> Gsolv                  -0.126124469640 Eh    ::
         :: repulsion energy           0.790224459989 Eh    ::

    * Orbital Energies and Occupations

         #    Occupation            Energy/Eh            Energy/eV
      -------------------------------------------------------------
         1        2.0000           -0.8601753             -23.4066
       ...           ...                  ...                  ...
        56        2.0000           -0.4738721             -12.8947
        57        2.0000           -0.4681508             -12.7390
        58        2.0000           -0.4569177             -12.4334
        59        2.0000           -0.4531038             -12.3296
        60        2.0000           -0.4470288             -12.1643
        61        2.0000           -0.4447762             -12.1030
        62        2.0000           -0.4436711             -12.0729
        63        2.0000           -0.4368093             -11.8862
        64        2.0000           -0.4251905             -11.5700
        65        2.0000           -0.4169637             -11.3462
        66        2.0000           -0.4021817             -10.9439
        67        2.0000           -0.3870221             -10.5314
        68        2.0000           -0.3287946              -8.9470 (HOMO)
        69        0.0000           -0.3017509              -8.2111 (LUMO)
        70                         -0.2522989              -6.8654
        71                         -0.2430230              -6.6130
        72                         -0.1998913              -5.4393
        73                         -0.1900231              -5.1708
        74                         -0.1422288              -3.8702
        75                         -0.1406517              -3.8273
        76                         -0.1154242              -3.1409
        77                         -0.1136832              -3.0935
        78                         -0.1134494              -3.0871
        79                         -0.0971335              -2.6431
       ...                                ...                  ...
       136                          0.7330734              19.9479
      -------------------------------------------------------------
                  HL-Gap            0.0270437 Eh            0.7359 eV

Wiberg/Mayer (AO) data.
largest (>0.10) Wiberg bond orders for each atom

     #   Z sym  total        # sym  WBO       # sym  WBO       # sym  WBO
 ---------------------------------------------------------------------------
     1   6 C    3.913 --    27 H    0.987    26 H    0.981    28 H    0.981
                             2 O    0.943
     2   8 O    2.100 --     3 C    0.962     1 C    0.943
     3   6 C    3.866 --     4 O    1.482     5 C    1.291     2 O    0.962
     4   8 O    1.784 --     3 C    1.482     5 C    0.107
     5   6 C    3.855 --     3 C    1.291     6 N    1.215    23 C    0.972
                             7 C    0.114     4 O    0.107
     6   7 N    3.058 --     7 C    1.613     5 C    1.215
     7   6 C    3.899 --     6 N    1.613    20 N    0.993     8 C    0.976
                             5 C    0.114
     8   6 C    3.926 --     9 C    1.001    10 C    0.993     7 C    0.976
                            11 N    0.893
     9   6 C    3.994 --     8 C    1.001    31 H    0.986    29 H    0.984
                            30 H    0.981
    10   6 C    3.991 --     8 C    0.993    33 H    0.986    34 H    0.985
                            32 H    0.978
    11   7 N    3.368 --    12 C    1.295    35 H    0.898     8 C    0.893
                            13 O    0.183
    12   6 C    3.921 --    13 O    1.558    11 N    1.295    14 C    0.986
    13   8 O    1.896 --    12 C    1.558    11 N    0.183
    14   6 C    3.868 --    15 N    1.626    19 O    1.047    12 C    0.986
    15   7 N    2.995 --    14 C    1.626    16 N    1.193
    16   7 N    2.981 --    17 C    1.617    15 N    1.193
    17   6 C    3.870 --    16 N    1.617    19 O    1.071    18 C    1.031
    18   6 C    3.987 --    17 C    1.031    36 H    0.983    38 H    0.964
                            37 H    0.964
    19   8 O    2.313 --    17 C    1.071    14 C    1.047
    20   7 N    3.402 --    21 C    1.258     7 C    0.993    39 H    0.886
                            22 O    0.143
    21   6 C    3.888 --    22 O    1.555    20 N    1.258    23 C    0.937
    22   8 O    1.857 --    21 C    1.555    20 N    0.143
    23   6 C    3.911 --     5 C    0.972    24 C    0.962    25 O    0.938
                            21 C    0.937
    24   6 C    3.996 --    41 H    0.988    40 H    0.986    42 H    0.983
                            23 C    0.962
    25   8 O    1.884 --    23 C    0.938    43 H    0.858
    26   1 H    1.019 --     1 C    0.981
    27   1 H    1.018 --     1 C    0.987
    28   1 H    1.019 --     1 C    0.981
    29   1 H    1.008 --     9 C    0.984
    30   1 H    1.018 --     9 C    0.981
    31   1 H    1.001 --     9 C    0.986
    32   1 H    1.010 --    10 C    0.978
    33   1 H    1.004 --    10 C    0.986
    34   1 H    1.003 --    10 C    0.985
    35   1 H    0.943 --    11 N    0.898
    36   1 H    0.999 --    18 C    0.983
    37   1 H    0.997 --    18 C    0.964
    38   1 H    0.997 --    18 C    0.964
    39   1 H    0.961 --    20 N    0.886
    40   1 H    1.009 --    24 C    0.986
    41   1 H    1.011 --    24 C    0.988
    42   1 H    1.019 --    24 C    0.983
    43   1 H    0.896 --    25 O    0.858
 ---------------------------------------------------------------------------

           -------------------------------------------------
          | TOTAL ENERGY              -83.892559442202 Eh   |
          | GRADIENT NORM               0.000623233317 Eh/α |
          | HOMO-LUMO GAP               0.735895983025 eV   |
           -------------------------------------------------

 * finished run on 2023/06/20 at 15:16:06.725
