   * xtb version 6.5.1 (579679a) compiled by 'ehlert@majestix' on 2022-07-11
          program call               : /lustre/hpc/kemi/ree/PhD/git/ReactivityQM/dep/xtb-6.5.1/bin/xtb --gfn 1 /lustre/hpc/kemi/ree/PhD/git/ReactivityQM/calculations/R02/reac01prodN04/conf01/R02_reac01prodN04_conf01_gfn1.xyz --opt --vfukui --chrg 1 --uhf 0 --alpb DMSO

   ID    Z sym.   atoms
    1    6 C      1, 3, 5, 7-10, 12, 14, 17, 18, 21, 23, 25
    2    8 O      2, 4, 13, 19, 22, 24
    3    7 N      6, 11, 15, 16, 20
    4    1 H      26-43

      * Solvation model:               ALPB
        Solvent                        DMSO
        Solvent mass                       7.8130E+01 g/mol
          :  Hamiltonian                  GFN1-xTB          :
 * total energy  :   -83.1064329 Eh     change       -0.1018918E-10 Eh
 * total energy  :   -83.1231032 Eh     change       -0.1667032E-01 Eh
 * total energy  :   -83.1296619 Eh     change       -0.6558675E-02 Eh
 * total energy  :   -83.1312946 Eh     change       -0.1632745E-02 Eh
 * total energy  :   -83.1327636 Eh     change       -0.1469017E-02 Eh
 * total energy  :   -83.1338721 Eh     change       -0.1108513E-02 Eh
 * total energy  :   -83.1347275 Eh     change       -0.8553202E-03 Eh
 * total energy  :   -83.1352774 Eh     change       -0.5499728E-03 Eh
 * total energy  :   -83.1355725 Eh     change       -0.2950400E-03 Eh
 * total energy  :   -83.1357383 Eh     change       -0.1658053E-03 Eh
 * total energy  :   -83.1365972 Eh     change       -0.6821248E-05 Eh
 * total energy  :   -83.1366085 Eh     change       -0.1131143E-04 Eh
 * total energy  :   -83.1366212 Eh     change       -0.1265715E-04 Eh
 * total energy  :   -83.1366318 Eh     change       -0.1058651E-04 Eh
 * total energy  :   -83.1366397 Eh     change       -0.7959823E-05 Eh
 * total energy  :   -83.1366435 Eh     change       -0.3829645E-05 Eh
 * total energy  :   -83.1366509 Eh     change       -0.7396479E-05 Eh
 * total energy  :   -83.1366566 Eh     change       -0.5669698E-05 Eh
 * total energy  :   -83.1366604 Eh     change       -0.3762521E-05 Eh
   *** GEOMETRY OPTIMIZATION CONVERGED AFTER 36 ITERATIONS ***

 final structure:
================
43
 xtb: 6.5.1 (579679a)
C           -5.85139809949340        1.05302960179824        1.21385205132630
O           -4.71180911811000        0.63175341211081        0.42607431020851
C           -3.61160606230430        0.28373521920460        1.10830917233866
O           -3.53160281817023        0.29541493519551        2.30172376821728
C           -2.48532942326839       -0.11586421368668        0.18799706613747
N           -1.35793362003585       -0.49442686371405        0.83160284372544
C           -0.32069235150434       -0.87037632718555        0.13384407222602
C            0.92606391230493       -1.32955133632367        0.86977320284381
C            0.79617754242868       -0.99743121014945        2.35701037054783
C            1.09721717240348       -2.84406463917434        0.67513241060404
N            2.10253897177090       -0.60823043391550        0.37084195042569
C            2.69098230316141       -0.78279251887880       -0.82842271636856
O            2.25354887577150       -1.48379020436533       -1.73472878145258
C            3.93902570692784       -0.00757798355380       -0.97558246548345
N            4.74357492069686        0.02054522731508       -1.99221338399782
N            5.75300430914735        0.87281940392464       -1.67065372438129
C            5.50488836276662        1.31606360066784       -0.47648395648631
C            6.29768564793675        2.27566785908420        0.32108656302380
O            4.37064976979091        0.79582558406906        0.02056749214850
N           -0.33867440948461       -0.91301948466906       -1.20994324884905
C           -1.41623280071821       -0.53708578671283       -1.99572981735769
O           -1.37298283700042       -0.56556875241796       -3.20816183582092
C           -2.53844533572430       -0.12011856610612       -1.17698616978612
O           -3.72856434975927        0.22833189355915       -1.87587666613966
C           -3.66427474854908        1.34238205935648       -2.83079104759289
H           -6.24078072319030        0.19717768788060        1.76678867493164
H           -6.58671813013152        1.42561607598569        0.50660443813726
H           -5.53931964018826        1.83799357982918        1.90379833472895
H            1.69691917702747       -1.30780050871512        2.88292325904447
H            0.65036522587318        0.07282188743388        2.49210078767959
H           -0.06078297798255       -1.52156727423375        2.77656801003159
H            2.00067189614785       -3.17031009653163        1.18721999131153
H            0.23808252143423       -3.35917543311006        1.10178264022693
H            1.17337396374370       -3.09751764781161       -0.37998911378118
H            2.55174047435070        0.01087282431038        1.02781469928239
H            5.68672789087967        3.14382121742515        0.56598282027618
H            7.17236291786397        2.59029579862653       -0.24317855183797
H            6.61029673792709        1.81193349440585        1.25617575707196
H            0.51649401376413       -1.22324191262096       -1.69831467660187
H           -4.44015990859497        0.40254223131446       -1.18262739734414
H           -3.33984112497089        2.24164519825336       -2.31058270781738
H           -4.67145451662810        1.44741505273610       -3.22434453741129
H           -2.96379031831427        1.05180434939133       -3.61054788799467

          :  Hamiltonian                  GFN1-xTB          :
         :: total energy             -83.136660375244 Eh    ::
         :: gradient norm              0.000521609700 Eh/a0 ::
         :: HOMO-LUMO gap              2.427664218307 eV    ::
         :: SCC energy               -83.930122119740 Eh    ::
         :: -> Gsolv                  -0.117625868299 Eh    ::
         :: repulsion energy           0.819704172944 Eh    ::

    * Orbital Energies and Occupations

         #    Occupation            Energy/Eh            Energy/eV
      -------------------------------------------------------------
         1        2.0000           -0.9290586             -25.2810
       ...           ...                  ...                  ...
        55        2.0000           -0.5255234             -14.3002
        56        2.0000           -0.5238476             -14.2546
        57        2.0000           -0.5209547             -14.1759
        58        2.0000           -0.5148579             -14.0100
        59        2.0000           -0.5128663             -13.9558
        60        2.0000           -0.4973555             -13.5337
        61        2.0000           -0.4883523             -13.2887
        62        2.0000           -0.4844935             -13.1837
        63        2.0000           -0.4796351             -13.0515
        64        2.0000           -0.4782356             -13.0135
        65        2.0000           -0.4727582             -12.8644
        66        2.0000           -0.4603417             -12.5265
        67        2.0000           -0.4595225             -12.5042 (HOMO)
        68                         -0.3703075             -10.0766 (LUMO)
        69                         -0.3249085              -8.8412
        70                         -0.3193088              -8.6888
        71                         -0.2763034              -7.5186
        72                         -0.2633161              -7.1652
        73                         -0.2116269              -5.7587
        74                         -0.2066684              -5.6237
        75                         -0.1712499              -4.6599
        76                         -0.1690566              -4.6003
        77                         -0.1533536              -4.1730
        78                         -0.1448378              -3.9412
       ...                                ...                  ...
       136                          0.7329074              19.9434
      -------------------------------------------------------------
                  HL-Gap            0.0892150 Eh            2.4277 eV

Wiberg/Mayer (AO) data.
largest (>0.10) Wiberg bond orders for each atom

     #   Z sym  total        # sym  WBO       # sym  WBO       # sym  WBO
 ---------------------------------------------------------------------------
     1   6 C    3.827 --    27 H    0.985    28 H    0.978    26 H    0.978
                             2 O    0.851
     2   8 O    2.232 --     3 C    1.086     1 C    0.851     4 O    0.138
     3   6 C    3.848 --     4 O    1.731     2 O    1.086     5 C    0.962
     4   8 O    1.989 --     3 C    1.731     2 O    0.138
     5   6 C    3.972 --    23 C    1.536     6 N    1.252     3 C    0.962
     6   7 N    3.029 --     7 C    1.492     5 C    1.252
     7   6 C    3.917 --     6 N    1.492    20 N    1.270     8 C    0.973
     8   6 C    3.932 --     9 C    1.000     7 C    0.973    10 C    0.972
                            11 N    0.923
     9   6 C    3.987 --     8 C    1.000    29 H    0.983    30 H    0.982
                            31 H    0.981
    10   6 C    3.984 --    33 H    0.984    32 H    0.981    34 H    0.979
                             8 C    0.972
    11   7 N    3.350 --    12 C    1.268     8 C    0.923    35 H    0.886
                            13 O    0.169
    12   6 C    3.912 --    13 O    1.544    11 N    1.268    14 C    1.007
    13   8 O    1.925 --    12 C    1.544    11 N    0.169
    14   6 C    3.877 --    15 N    1.614    19 O    1.046    12 C    1.007
    15   7 N    3.004 --    14 C    1.614    16 N    1.207
    16   7 N    2.983 --    17 C    1.602    15 N    1.207
    17   6 C    3.865 --    16 N    1.602    19 O    1.073    18 C    1.033
    18   6 C    3.985 --    17 C    1.033    37 H    0.982    36 H    0.961
                            38 H    0.961
    19   8 O    2.318 --    17 C    1.073    14 C    1.046
    20   7 N    3.500 --     7 C    1.270    21 C    1.103    39 H    0.809
                            22 O    0.126
    21   6 C    3.919 --    22 O    1.606    23 C    1.103    20 N    1.103
    22   8 O    1.929 --    21 C    1.606    20 N    0.126
    23   6 C    3.826 --     5 C    1.536    21 C    1.103    24 O    0.868
    24   8 O    2.438 --    23 C    0.868    25 C    0.793    40 H    0.684
    25   6 C    3.766 --    41 H    0.983    42 H    0.977    43 H    0.973
                            24 O    0.793
    26   1 H    1.000 --     1 C    0.978
    27   1 H    1.004 --     1 C    0.985
    28   1 H    1.001 --     1 C    0.978
    29   1 H    0.996 --     9 C    0.983
    30   1 H    1.000 --     9 C    0.982
    31   1 H    1.005 --     9 C    0.981
    32   1 H    0.997 --    10 C    0.981
    33   1 H    0.999 --    10 C    0.984
    34   1 H    1.006 --    10 C    0.979
    35   1 H    0.930 --    11 N    0.886
    36   1 H    0.996 --    18 C    0.961
    37   1 H    0.997 --    18 C    0.982
    38   1 H    0.996 --    18 C    0.961
    39   1 H    0.912 --    20 N    0.809
    40   1 H    0.800 --    24 O    0.684
    41   1 H    0.993 --    25 C    0.983
    42   1 H    0.992 --    25 C    0.977
    43   1 H    1.006 --    25 C    0.973
 ---------------------------------------------------------------------------

           -------------------------------------------------
          | TOTAL ENERGY              -83.136660375244 Eh   |
          | GRADIENT NORM               0.000521609700 Eh/α |
          | HOMO-LUMO GAP               2.427664218307 eV   |
           -------------------------------------------------

 * finished run on 2023/06/20 at 15:22:32.959
