   * xtb version 6.5.1 (579679a) compiled by 'ehlert@majestix' on 2022-07-11
          program call               : /lustre/hpc/kemi/ree/PhD/git/ReactivityQM/dep/xtb-6.5.1/bin/xtb --gfn 1 /lustre/hpc/kemi/ree/PhD/git/ReactivityQM/calculations/R02methylcation/reac01prodN13/conf05/R02methylcation_reac01prodN13_conf05_gfn1.xyz --opt --vfukui --chrg 0 --uhf 0 --alpb DMSO

   ID    Z sym.   atoms
    1    6 C      1, 3, 5, 7-10, 12, 14, 17-19, 22, 24
    2    8 O      2, 4, 13, 20, 23, 25
    3    7 N      6, 11, 15, 16, 21
    4    1 H      26-42

      * Solvation model:               ALPB
        Solvent                        DMSO
        Solvent mass                       7.8130E+01 g/mol
          :  Hamiltonian                  GFN1-xTB          :
 * total energy  :   -82.9214996 Eh     change       -0.5684342E-12 Eh
 * total energy  :   -82.9314210 Eh     change       -0.9921415E-02 Eh
 * total energy  :   -82.9353301 Eh     change       -0.3909071E-02 Eh
 * total energy  :   -82.9361206 Eh     change       -0.7904956E-03 Eh
 * total energy  :   -82.9367436 Eh     change       -0.6230517E-03 Eh
 * total energy  :   -82.9371402 Eh     change       -0.3965775E-03 Eh
 * total energy  :   -82.9374702 Eh     change       -0.3300432E-03 Eh
 * total energy  :   -82.9377029 Eh     change       -0.2326681E-03 Eh
 * total energy  :   -82.9378389 Eh     change       -0.1359925E-03 Eh
 * total energy  :   -82.9379200 Eh     change       -0.8108348E-04 Eh
 * total energy  :   -82.9389014 Eh     change       -0.1170633E-04 Eh
 * total energy  :   -82.9389142 Eh     change       -0.1276041E-04 Eh
 * total energy  :   -82.9389249 Eh     change       -0.1075126E-04 Eh
 * total energy  :   -82.9389325 Eh     change       -0.7586216E-05 Eh
 * total energy  :   -82.9389391 Eh     change       -0.6617177E-05 Eh
 * total energy  :   -82.9389462 Eh     change       -0.7092658E-05 Eh
 * total energy  :   -82.9389538 Eh     change       -0.7593477E-05 Eh
 * total energy  :   -82.9389602 Eh     change       -0.6404020E-05 Eh
 * total energy  :   -82.9389620 Eh     change       -0.1813438E-05 Eh
   *** GEOMETRY OPTIMIZATION CONVERGED AFTER 44 ITERATIONS ***

 final structure:
================
42
 xtb: 6.5.1 (579679a)
C            5.85458083517095        2.35873701228655        0.56785133364861
O            4.74708100246984        1.47870946358348        0.37016153834648
C            4.69323858181684        0.40600487902889        1.17534626785270
O            5.52732720809651        0.18831560947954        2.02561217366831
C            3.51323914034092       -0.44548066876208        0.88388859832828
N            2.67361057719031        0.01638495257114       -0.06385595171749
C            1.61365831161438       -0.65929297104288       -0.41179189870759
C            0.70954772440605       -0.09507353249906       -1.49461708744138
C            0.55404329147164       -1.07641565999754       -2.66131539690422
C            1.28418546930326        1.22927277202607       -1.99823892964427
N           -0.59859540707310        0.20891464427746       -0.88854979198159
C           -1.53300858755041       -0.69866242351711       -0.54288146816462
O           -1.43021783989860       -1.91149188968065       -0.63339166890199
C           -2.74639386454036       -0.03918725439120       -0.00094719669963
N           -2.86174042309572        1.28172037632788        0.22303006154609
N           -4.03055415018626        1.51560384429181        0.69635267586453
C           -4.75716751058791        0.27381874320329        0.79113708126549
C           -5.98252527123154        0.30712234181697       -0.12688388626041
C           -5.12551063574850       -0.02528150206782        2.24663947135225
O           -3.82868705487548       -0.70241588881299        0.31744143203659
N            1.29717266856283       -1.84189938490278        0.16626166672910
C            2.03673410806648       -2.43751668254548        1.17374431600986
O            1.67585046301006       -3.49222513627998        1.65745509876499
C            3.28555790484760       -1.68348060514419        1.58705117963661
O            4.00735759879512       -2.14371743812258        2.46722893510761
H            6.79539159802594        1.82187091840842        0.42004964480555
H            5.75591146721715        3.15393366637663       -0.16797299337464
H            5.83181377876841        2.77435266531713        1.57866234604255
H            0.20023926913947       -2.04783222727318       -2.32492921099064
H           -0.15620928591053       -0.67216300995373       -3.38005505380678
H            1.51968962032286       -1.20324546431396       -3.14839338856026
H            2.26299191495799        1.05495407948501       -2.44203312186235
H            1.39898339201685        1.93066800947985       -1.17352921607469
H            0.62333805218167        1.65746278430814       -2.74877203515225
H           -0.82055065816936        1.18420947613229       -0.75421992175538
H           -5.66301462128765        0.51771259944719       -1.14499815950635
H           -6.66137195781071        1.08537109633795        0.21203101757645
H           -6.48124053530093       -0.65853492224226       -0.09409658430433
H           -5.78853045852396        0.75408737439133        2.61344568650167
H           -4.22096730418789       -0.05109495580662        2.85078484208602
H           -5.62632928986765       -0.98913351329169        2.29845557047743
H            0.45107187803983       -2.32508117793124       -0.12115797583720

          :  Hamiltonian                  GFN1-xTB          :
         :: total energy             -82.938962042950 Eh    ::
         :: gradient norm              0.000228824198 Eh/a0 ::
         :: HOMO-LUMO gap              0.058520989413 eV    ::
         :: SCC energy               -83.703809624404 Eh    ::
         :: -> Gsolv                  -0.069110034147 Eh    ::
         :: repulsion energy           0.790482651481 Eh    ::

    * Orbital Energies and Occupations

         #    Occupation            Energy/Eh            Energy/eV
      -------------------------------------------------------------
         1        2.0000           -0.8808630             -23.9695
       ...           ...                  ...                  ...
        55        2.0000           -0.5183059             -14.1038
        56        2.0000           -0.5107889             -13.8993
        57        2.0000           -0.5097125             -13.8700
        58        2.0000           -0.5043125             -13.7230
        59        2.0000           -0.4929060             -13.4127
        60        2.0000           -0.4858229             -13.2199
        61        2.0000           -0.4833622             -13.1530
        62        2.0000           -0.4797718             -13.0553
        63        2.0000           -0.4735784             -12.8867
        64        2.0000           -0.4693345             -12.7712
        65        2.0000           -0.4588111             -12.4849
        66        2.0000           -0.4223130             -11.4917
        67        1.5124           -0.4080434             -11.1034 (HOMO)
        68        0.4876           -0.4058928             -11.0449 (LUMO)
        69                         -0.3256856              -8.8624
        70                         -0.3099620              -8.4345
        71                         -0.2859206              -7.7803
        72                         -0.2350793              -6.3968
        73                         -0.2253353              -6.1317
        74                         -0.1573718              -4.2823
        75                         -0.1437350              -3.9112
        76                         -0.1382459              -3.7619
        77                         -0.1355895              -3.6896
        78                         -0.1351086              -3.6765
       ...                                ...                  ...
       134                          0.7531683              20.4948
      -------------------------------------------------------------
                  HL-Gap            0.0021506 Eh            0.0585 eV

Wiberg/Mayer (AO) data.
largest (>0.10) Wiberg bond orders for each atom

     #   Z sym  total        # sym  WBO       # sym  WBO       # sym  WBO
 ---------------------------------------------------------------------------
     1   6 C    3.876 --    27 H    0.986    28 H    0.979    26 H    0.979
                             2 O    0.903
     2   8 O    2.176 --     3 C    1.090     1 C    0.903     4 O    0.131
     3   6 C    3.841 --     4 O    1.649     2 O    1.090     5 C    1.024
     4   8 O    1.891 --     3 C    1.649     2 O    0.131
     5   6 C    3.715 --     6 N    1.304    24 C    1.156     3 C    1.024
     6   7 N    2.984 --     7 C    1.464     5 C    1.304
     7   6 C    3.794 --     6 N    1.464    21 N    1.212     8 C    0.968
     8   6 C    3.924 --    10 C    1.001     9 C    0.984     7 C    0.968
                            11 N    0.908
     9   6 C    3.981 --     8 C    0.984    31 H    0.983    30 H    0.982
                            29 H    0.978
    10   6 C    3.989 --     8 C    1.001    34 H    0.984    33 H    0.982
                            32 H    0.982
    11   7 N    3.334 --    12 C    1.259     8 C    0.908    35 H    0.888
                            13 O    0.186
    12   6 C    3.910 --    13 O    1.568    11 N    1.259    14 C    0.995
    13   8 O    1.908 --    12 C    1.568    11 N    0.186
    14   6 C    3.642 --    15 N    1.307    20 O    1.191    12 C    0.995
    15   7 N    3.015 --    16 N    1.540    14 C    1.307
    16   7 N    2.685 --    15 N    1.540    17 C    1.021
    17   6 C    3.836 --    16 N    1.021    19 C    0.939    18 C    0.937
                            20 O    0.878
    18   6 C    3.935 --    36 H    0.982    37 H    0.982    38 H    0.980
                            17 C    0.937
    19   6 C    3.937 --    40 H    0.982    39 H    0.982    41 H    0.980
                            17 C    0.939
    20   8 O    2.210 --    14 C    1.191    17 C    0.878
    21   7 N    3.432 --     7 C    1.212    22 C    1.110    42 H    0.855
                            23 O    0.110
    22   6 C    3.840 --    23 O    1.653    21 N    1.110    24 C    0.948
    23   8 O    1.871 --    22 C    1.653    21 N    0.110
    24   6 C    3.865 --    25 O    1.621     5 C    1.156    22 C    0.948
    25   8 O    1.796 --    24 C    1.621
    26   1 H    1.007 --     1 C    0.979
    27   1 H    1.012 --     1 C    0.986
    28   1 H    1.007 --     1 C    0.979
    29   1 H    1.007 --     9 C    0.978
    30   1 H    0.997 --     9 C    0.982
    31   1 H    0.999 --     9 C    0.983
    32   1 H    1.005 --    10 C    0.982
    33   1 H    1.006 --    10 C    0.982
    34   1 H    0.998 --    10 C    0.984
    35   1 H    0.943 --    11 N    0.888
    36   1 H    0.996 --    18 C    0.982
    37   1 H    0.997 --    18 C    0.982
    38   1 H    0.996 --    18 C    0.980
    39   1 H    0.997 --    19 C    0.982
    40   1 H    0.996 --    19 C    0.982
    41   1 H    0.996 --    19 C    0.980
    42   1 H    0.933 --    21 N    0.855
 ---------------------------------------------------------------------------

           -------------------------------------------------
          | TOTAL ENERGY              -82.938962042950 Eh   |
          | GRADIENT NORM               0.000228824198 Eh/α |
          | HOMO-LUMO GAP               0.058520989413 eV   |
           -------------------------------------------------

 * finished run on 2023/06/21 at 17:46:52.259
