   * xtb version 6.5.1 (579679a) compiled by 'ehlert@majestix' on 2022-07-11
          program call               : /lustre/hpc/kemi/ree/PhD/git/ReactivityQM/dep/xtb-6.5.1/bin/xtb --gfn 1 /lustre/hpc/kemi/ree/PhD/git/ReactivityQM/calculations/RaltegravirCLI/reac01prodN07/conf02/RaltegravirCLI_reac01prodN07_conf02_gfn1.xyz --opt --vfukui --chrg 1 --uhf 0 --alpb DMSO

   ID    Z sym.   atoms
    1    6 C      1, 3, 5, 8, 9
    2    8 O      2, 10
    3   17 Cl     4
    4    7 N      6, 7
    5    1 H      11-16

      * Solvation model:               ALPB
        Solvent                        DMSO
        Solvent mass                       7.8130E+01 g/mol
          :  Hamiltonian                  GFN1-xTB          :
 * total energy  :   -33.4087435 Eh     change       -0.1804068E-10 Eh
 * total energy  :   -33.4155027 Eh     change       -0.6759196E-02 Eh
 * total energy  :   -33.4175740 Eh     change       -0.2071250E-02 Eh
 * total energy  :   -33.4180919 Eh     change       -0.5179079E-03 Eh
 * total energy  :   -33.4185226 Eh     change       -0.4306820E-03 Eh
 * total energy  :   -33.4187833 Eh     change       -0.2607642E-03 Eh
 * total energy  :   -33.4189406 Eh     change       -0.1572766E-03 Eh
 * total energy  :   -33.4190275 Eh     change       -0.8694140E-04 Eh
 * total energy  :   -33.4190636 Eh     change       -0.3601889E-04 Eh
 * total energy  :   -33.4190765 Eh     change       -0.1299603E-04 Eh
 * total energy  :   -33.4190814 Eh     change       -0.4893629E-05 Eh
   *** GEOMETRY OPTIMIZATION CONVERGED AFTER 11 ITERATIONS ***

 final structure:
================
16
 xtb: 6.5.1 (579679a)
C           -3.29348014801614        0.68837856638723        0.11086268593724
O           -1.88182763413800        0.43681073746449        0.15571138756877
C           -1.34315901288623       -0.67108623040576       -0.18205468378429
Cl          -2.23622243895277       -1.96789063966189       -0.71422371283740
C            0.07302768376674       -0.76550620366242       -0.09110508796844
N            0.82932796885287       -1.80606872478583       -0.38183593576668
N            2.08479055930591       -1.45181633893563       -0.15614268589107
C            2.06904252231570       -0.19990644328306        0.26724667694411
C            3.22308657400822        0.63436965822873        0.63424816877486
O            0.83207300412846        0.27094944930784        0.32484992116982
H           -3.65068112009999        0.56166357087874       -0.91162606003716
H           -3.41917530998430        1.71494281855953        0.44782443534134
H           -3.80651009002228       -0.00959327528977        0.77315908488620
H            3.38655631861026        1.38664193559874       -0.14030968977643
H            4.11390685481971        0.01798408470703        0.73039350290167
H            3.01924326829188        1.16012903489187        1.56662999253754

          :  Hamiltonian                  GFN1-xTB          :
         :: total energy             -33.419081443525 Eh    ::
         :: gradient norm              0.000514170370 Eh/a0 ::
         :: HOMO-LUMO gap              2.395354560207 eV    ::
         :: SCC energy               -33.697615095422 Eh    ::
         :: -> Gsolv                  -0.080579881626 Eh    ::
         :: repulsion energy           0.285266749139 Eh    ::

    * Orbital Energies and Occupations

         #    Occupation            Energy/Eh            Energy/eV
      -------------------------------------------------------------
         1        2.0000           -1.0222303             -27.8163
       ...           ...                  ...                  ...
        15        2.0000           -0.6309207             -17.1682
        16        2.0000           -0.6011000             -16.3568
        17        2.0000           -0.5855401             -15.9334
        18        2.0000           -0.5807085             -15.8019
        19        2.0000           -0.5715159             -15.5517
        20        2.0000           -0.5594709             -15.2240
        21        2.0000           -0.5585721             -15.1995
        22        2.0000           -0.5575881             -15.1727
        23        2.0000           -0.5452703             -14.8376
        24        2.0000           -0.5337825             -14.5250
        25        2.0000           -0.5311390             -14.4530
        26        2.0000           -0.5022179             -13.6660
        27        2.0000           -0.4999032             -13.6031 (HOMO)
        28                         -0.4118756             -11.2077 (LUMO)
        29                         -0.3044899              -8.2856
        30                         -0.2840113              -7.7283
        31                         -0.2658675              -7.2346
        32                         -0.1738003              -4.7293
        33                         -0.1618258              -4.4035
        34                         -0.1480893              -4.0297
        35                         -0.1465409              -3.9876
        36                         -0.1457150              -3.9651
        37                         -0.1085382              -2.9535
        38                         -0.1024730              -2.7884
       ...                                ...                  ...
        57                          0.5224368              14.2162
      -------------------------------------------------------------
                  HL-Gap            0.0880277 Eh            2.3954 eV

Wiberg/Mayer (AO) data.
largest (>0.10) Wiberg bond orders for each atom

     #   Z sym  total        # sym  WBO       # sym  WBO       # sym  WBO
 ---------------------------------------------------------------------------
     1   6 C    3.807 --    12 H    0.977    11 H    0.965    13 H    0.965
                             2 O    0.847
     2   8 O    2.368 --     3 C    1.311     1 C    0.847     4 Cl   0.107
     3   6 C    3.884 --     2 O    1.311     4 Cl   1.221     5 C    1.173
     4  17 Cl   1.464 --     3 C    1.221     2 O    0.107
     5   6 C    3.889 --     6 N    1.459     3 C    1.173    10 O    1.042
     6   7 N    3.021 --     5 C    1.459     7 N    1.343
     7   7 N    2.994 --     8 C    1.454     6 N    1.343
     8   6 C    3.842 --     7 N    1.454    10 O    1.134     9 C    1.049
     9   6 C    3.973 --     8 C    1.049    15 H    0.976    16 H    0.956
                            14 H    0.938
    10   8 O    2.362 --     8 C    1.134     5 C    1.042
    11   1 H    0.995 --     1 C    0.965
    12   1 H    0.997 --     1 C    0.977
    13   1 H    0.995 --     1 C    0.965
    14   1 H    0.986 --     9 C    0.938
    15   1 H    0.992 --     9 C    0.976
    16   1 H    0.989 --     9 C    0.956
 ---------------------------------------------------------------------------

           -------------------------------------------------
          | TOTAL ENERGY              -33.419081443525 Eh   |
          | GRADIENT NORM               0.000514170370 Eh/α |
          | HOMO-LUMO GAP               2.395354560207 eV   |
           -------------------------------------------------

 * finished run on 2023/06/20 at 14:55:31.717
