   * xtb version 6.5.1 (579679a) compiled by 'ehlert@majestix' on 2022-07-11
          program call               : /lustre/hpc/kemi/ree/PhD/git/ReactivityQM/dep/xtb-6.5.1/bin/xtb --gfn 1 /lustre/hpc/kemi/ree/PhD/git/ReactivityQM/calculations/R01/reac02prodE06/conf10/R01_reac02prodE06_conf10_gfn1.xyz --opt --vfukui --chrg -1 --uhf 0 --alpb DMSO

   ID    Z sym.   atoms
    1    6 C      1, 3, 5, 6, 8, 9, 12-15
    2    8 O      2, 4, 7, 10
    3    7 N      11, 16, 17
    4    1 H      18-33

      * Solvation model:               ALPB
        Solvent                        DMSO
        Solvent mass                       7.8130E+01 g/mol
          :  Hamiltonian                  GFN1-xTB          :
 * total energy  :   -58.5353412 Eh     change       -0.8746781E-11 Eh
 * total energy  :   -58.5426552 Eh     change       -0.7313990E-02 Eh
 * total energy  :   -58.5452227 Eh     change       -0.2567492E-02 Eh
 * total energy  :   -58.5456628 Eh     change       -0.4401534E-03 Eh
 * total energy  :   -58.5458883 Eh     change       -0.2254828E-03 Eh
 * total energy  :   -58.5459732 Eh     change       -0.8485831E-04 Eh
 * total energy  :   -58.5460551 Eh     change       -0.8191941E-04 Eh
 * total energy  :   -58.5461075 Eh     change       -0.5239283E-04 Eh
 * total energy  :   -58.5461602 Eh     change       -0.5268822E-04 Eh
 * total energy  :   -58.5462056 Eh     change       -0.4546936E-04 Eh
 * total energy  :   -58.5462883 Eh     change       -0.2346076E-04 Eh
 * total energy  :   -58.5462999 Eh     change       -0.1159525E-04 Eh
 * total energy  :   -58.5463175 Eh     change       -0.1765476E-04 Eh
 * total energy  :   -58.5463230 Eh     change       -0.5474565E-05 Eh
 * total energy  :   -58.5463307 Eh     change       -0.7755493E-05 Eh
 * total energy  :   -58.5463357 Eh     change       -0.4964575E-05 Eh
 * total energy  :   -58.5463420 Eh     change       -0.6264414E-05 Eh
 * total energy  :   -58.5463480 Eh     change       -0.6022029E-05 Eh
 * total energy  :   -58.5463518 Eh     change       -0.3837761E-05 Eh
   *** GEOMETRY OPTIMIZATION CONVERGED AFTER 21 ITERATIONS ***

 final structure:
================
33
 xtb: 6.5.1 (579679a)
C            3.66082153376917        2.97814908086300       -0.09871938240751
O            2.50025608816332        2.15615508545681       -0.13769213601582
C            2.70975248430606        0.82915854793766        0.00037908978511
O            3.84990593144543        0.38609478502462        0.14978982664005
C            1.50853922204153        0.01468241427919       -0.04463484043600
C            1.57971189309112       -1.34676021522111        0.04666044117895
O            2.73771819867579       -2.00991321862945        0.19229018580919
C            0.32832532096736       -2.25398910068206       -0.15419596047213
C            0.33886481761191       -3.34284725547649        0.96881229594196
O            0.19323096622012       -2.69520838933875       -1.36195579854364
N           -0.83755682786825       -1.30901037941958        0.26058304635942
C           -0.79983788845388       -0.00112916968326       -0.09873382060065
C           -2.13570980397187        0.71076396935300       -0.27470042898839
C           -2.92392073444522        0.07853151657903       -1.43052840945925
C           -2.94506334499860        0.62925960651399        1.03262441746589
N           -1.87633767956091        2.10641819727935       -0.62243742967130
N            0.28396379092863        0.68819734265742       -0.21903739408338
H            4.33371026050867        2.73353714556321       -0.92623676181017
H            3.32385540727867        4.00979113222239       -0.18803850352237
H            4.19686214120650        2.84242873949269        0.84505013751194
H            3.49083862608538       -1.37444171098990        0.22824850863542
H           -0.57138685730838       -3.93436401520726        0.89229760370202
H            0.39351099065479       -2.88444262133621        1.95486034317669
H            1.19849920067646       -3.99410459638687        0.81887488938884
H           -1.72908941029054       -1.76939230053057        0.14894095863571
H           -3.12704407712597       -0.97364198224265       -1.23452528878055
H           -3.87441487922041        0.59593067863697       -1.55527857517244
H           -2.35547018124519        0.16594756077704       -2.35748478309501
H           -3.89768529029426        1.14334096507292        0.91285116850985
H           -3.14066644701142       -0.40863442270054        1.29988360961946
H           -2.39323527767028        1.10277929444644        1.84446530137349
H           -1.27170340269618        2.51266611340487        0.08503636135811
H           -2.74924377146954        2.61404720228391       -0.60484467203285

          :  Hamiltonian                  GFN1-xTB          :
         :: total energy             -58.546351832337 Eh    ::
         :: gradient norm              0.000551050294 Eh/a0 ::
         :: HOMO-LUMO gap              2.245968952361 eV    ::
         :: SCC energy               -59.083137833623 Eh    ::
         :: -> Gsolv                  -0.113276055037 Eh    ::
         :: repulsion energy           0.555399126108 Eh    ::

    * Orbital Energies and Occupations

         #    Occupation            Energy/Eh            Energy/eV
      -------------------------------------------------------------
         1        2.0000           -0.8087030             -22.0059
       ...           ...                  ...                  ...
        36        2.0000           -0.4756287             -12.9425
        37        2.0000           -0.4745607             -12.9135
        38        2.0000           -0.4717126             -12.8360
        39        2.0000           -0.4628307             -12.5943
        40        2.0000           -0.4545942             -12.3701
        41        2.0000           -0.4476761             -12.1819
        42        2.0000           -0.4365494             -11.8791
        43        2.0000           -0.4155647             -11.3081
        44        2.0000           -0.3894987             -10.5988
        45        2.0000           -0.3864783             -10.5166
        46        2.0000           -0.3636181              -9.8946
        47        2.0000           -0.3486512              -9.4873
        48        2.0000           -0.3457458              -9.4082 (HOMO)
        49                         -0.2632080              -7.1623 (LUMO)
        50                         -0.2149295              -5.8485
        51                         -0.1322864              -3.5997
        52                         -0.1264823              -3.4418
        53                         -0.1109865              -3.0201
        54                         -0.1055919              -2.8733
        55                         -0.0902162              -2.4549
        56                         -0.0869194              -2.3652
        57                         -0.0651071              -1.7717
        58                         -0.0638890              -1.7385
        59                         -0.0627742              -1.7082
       ...                                ...                  ...
       100                          0.6965450              18.9540
      -------------------------------------------------------------
                  HL-Gap            0.0825378 Eh            2.2460 eV

Wiberg/Mayer (AO) data.
largest (>0.10) Wiberg bond orders for each atom

     #   Z sym  total        # sym  WBO       # sym  WBO       # sym  WBO
 ---------------------------------------------------------------------------
     1   6 C    3.892 --    19 H    0.987    18 H    0.980    20 H    0.980
                             2 O    0.918
     2   8 O    2.170 --     3 C    1.068     1 C    0.918     4 O    0.106
     3   6 C    3.839 --     4 O    1.541     5 C    1.106     2 O    1.068
     4   8 O    1.897 --     3 C    1.541     2 O    0.106
     5   6 C    3.946 --     6 C    1.536     3 C    1.106    17 N    1.071
     6   6 C    3.863 --     5 C    1.536     7 O    1.107     8 C    0.900
     7   8 O    2.079 --     6 C    1.107    21 H    0.789
     8   6 C    3.925 --    10 O    1.240     9 C    0.938     6 C    0.900
                            11 N    0.778
     9   6 C    3.992 --    23 H    0.991    22 H    0.987    24 H    0.986
                             8 C    0.938
    10   8 O    1.542 --     8 C    1.240
    11   7 N    3.250 --    12 C    1.218    25 H    0.924     8 C    0.778
                            17 N    0.153
    12   6 C    3.948 --    17 N    1.602    11 N    1.218    13 C    0.971
    13   6 C    3.967 --    14 C    0.989    16 N    0.987    15 C    0.981
                            12 C    0.971
    14   6 C    3.996 --    13 C    0.989    28 H    0.986    27 H    0.986
                            26 H    0.983
    15   6 C    3.995 --    31 H    0.986    29 H    0.986    30 H    0.984
                            13 C    0.981
    16   7 N    2.956 --    13 C    0.987    33 H    0.954    32 H    0.946
    17   7 N    2.970 --    12 C    1.602     5 C    1.071    11 N    0.153
    18   1 H    1.012 --     1 C    0.980
    19   1 H    1.015 --     1 C    0.987
    20   1 H    1.013 --     1 C    0.980
    21   1 H    0.876 --     7 O    0.789
    22   1 H    1.013 --     9 C    0.987
    23   1 H    1.014 --     9 C    0.991
    24   1 H    1.016 --     9 C    0.986
    25   1 H    0.972 --    11 N    0.924
    26   1 H    1.005 --    14 C    0.983
    27   1 H    1.004 --    14 C    0.986
    28   1 H    1.010 --    14 C    0.986
    29   1 H    1.005 --    15 C    0.986
    30   1 H    1.006 --    15 C    0.984
    31   1 H    1.007 --    15 C    0.986
    32   1 H    0.983 --    16 N    0.946
    33   1 H    0.968 --    16 N    0.954
 ---------------------------------------------------------------------------

           -------------------------------------------------
          | TOTAL ENERGY              -58.546351832337 Eh   |
          | GRADIENT NORM               0.000551050294 Eh/α |
          | HOMO-LUMO GAP               2.245968952361 eV   |
           -------------------------------------------------

 * finished run on 2023/06/20 at 15:00:29.354
