   * xtb version 6.5.1 (579679a) compiled by 'ehlert@majestix' on 2022-07-11
          program call               : /lustre/hpc/kemi/ree/PhD/git/ReactivityQM/dep/xtb-6.5.1/bin/xtb --gfn 1 /lustre/hpc/kemi/ree/PhD/git/ReactivityQM/calculations/R02oxygendeprot/reac01prodE01/conf12/R02oxygendeprot_reac01prodE01_conf12_gfn1.xyz --opt --vfukui --chrg -2 --uhf 0 --alpb DMSO

   ID    Z sym.   atoms
    1    6 C      1, 3, 5, 7-10, 12, 13, 15, 18, 19, 22, 24
    2    8 O      2, 4, 14, 20, 23, 25
    3    7 N      6, 11, 16, 17, 21
    4    1 H      26-42

      * Solvation model:               ALPB
        Solvent                        DMSO
        Solvent mass                       7.8130E+01 g/mol
          :  Hamiltonian                  GFN1-xTB          :
 * total energy  :   -83.6306689 Eh     change       -0.2073364E-10 Eh
 * total energy  :   -83.6437649 Eh     change       -0.1309598E-01 Eh
 * total energy  :   -83.6481848 Eh     change       -0.4419983E-02 Eh
 * total energy  :   -83.6490362 Eh     change       -0.8513803E-03 Eh
 * total energy  :   -83.6494402 Eh     change       -0.4039938E-03 Eh
 * total energy  :   -83.6496511 Eh     change       -0.2108507E-03 Eh
 * total energy  :   -83.6497821 Eh     change       -0.1310227E-03 Eh
 * total energy  :   -83.6498426 Eh     change       -0.6049250E-04 Eh
 * total energy  :   -83.6498734 Eh     change       -0.3086245E-04 Eh
 * total energy  :   -83.6498983 Eh     change       -0.2481096E-04 Eh
 * total energy  :   -83.6499801 Eh     change       -0.1155276E-04 Eh
 * total energy  :   -83.6500190 Eh     change       -0.3889064E-04 Eh
 * total energy  :   -83.6500338 Eh     change       -0.1485217E-04 Eh
 * total energy  :   -83.6500465 Eh     change       -0.1270185E-04 Eh
 * total energy  :   -83.6500609 Eh     change       -0.1435711E-04 Eh
 * total energy  :   -83.6500678 Eh     change       -0.6941051E-05 Eh
 * total energy  :   -83.6500754 Eh     change       -0.7550047E-05 Eh
 * total energy  :   -83.6500816 Eh     change       -0.6233127E-05 Eh
 * total energy  :   -83.6500862 Eh     change       -0.4565956E-05 Eh
   *** GEOMETRY OPTIMIZATION CONVERGED AFTER 25 ITERATIONS ***

 final structure:
================
42
 xtb: 6.5.1 (579679a)
C            6.25497281192810        2.13534128317448        0.51066453532401
O            5.06651776156215        1.84386804328165       -0.20514878779404
C            4.22115979089502        0.95413001901999        0.38802698421780
O            4.50816826646126        0.46696608781622        1.47827466491389
C            3.01829942332580        0.65842580511317       -0.36803447144041
N            2.18961301455604       -0.25000566830766        0.27631130945181
C            1.08668315387894       -0.61269124075228       -0.26576968274931
C            0.18454933399021       -1.66980875863266        0.34457017710859
C            0.47005792269963       -1.81116525011257        1.84749864988132
C            0.54028961178381       -3.00025951762341       -0.35171068102136
N           -1.20738783192360       -1.37184709380727       -0.01363583694421
C           -1.96993449366540       -0.39786054806829        0.90834703223767
C           -1.32790578171528        1.01763859228365        0.75984471733108
O           -2.12859614408158       -0.81402431937905        2.13128690199490
C           -3.34848849866769       -0.32486225212118        0.15794359510492
N           -4.01057874556628       -1.30968981080816       -0.36545587080377
N           -5.22697449257120       -0.80323982747163       -0.78495779442689
C           -5.21887666489253        0.45046616024415       -0.48044585602702
C           -6.29138523250874        1.44698436879216       -0.72085843659273
O           -4.06889544719980        0.82205541286927        0.11689949267102
N            0.69173455449565       -0.13660135076489       -1.49882961380701
C            1.40532066464659        0.75261653719025       -2.24505951041603
O            0.97815426998082        1.12604655426552       -3.34046475367119
C            2.71071275872252        1.21515103342683       -1.63664986426225
O            3.40941331689210        2.03006901444200       -2.27587974925029
H            6.02600538693440        2.53322832413836        1.50480670142620
H            6.80195957434977        2.88133443483199       -0.06481078584984
H            6.87080105567937        1.23735735965453        0.62688043582691
H            0.35554790796919       -0.85919947154540        2.36394009873842
H            1.49590567840328       -2.15795529879191        1.98298431341672
H           -0.21381428408071       -2.53220109170282        2.29209404939936
H           -0.04026021765434       -3.81646587753654        0.07627541578727
H            0.32068877709382       -2.93621503055002       -1.41731414642985
H            1.60015717489417       -3.22077068600989       -0.22470280412421
H           -1.73141219803803       -2.24395091600377        0.06682393277077
H           -0.33328612686666        1.02131522151685        1.20233850347333
H           -1.95027859095409        1.72876037622712        1.30103182408359
H           -1.26578153742797        1.31558287357483       -0.28586739073919
H           -6.60386530578766        1.89987810857285        0.21968173563914
H           -7.14379074827582        0.95823898608399       -1.18592165927195
H           -5.93077200128521        2.24084303340566       -1.37503032275138
H           -0.19443086798329       -0.46748361993495       -1.86073905241860

          :  Hamiltonian                  GFN1-xTB          :
         :: total energy             -83.650086164218 Eh    ::
         :: gradient norm              0.000622255763 Eh/a0 ::
         :: HOMO-LUMO gap              2.190681742181 eV    ::
         :: SCC energy               -84.382940428635 Eh    ::
         :: -> Gsolv                  -0.267068986417 Eh    ::
         :: repulsion energy           0.759759879652 Eh    ::

    * Orbital Energies and Occupations

         #    Occupation            Energy/Eh            Energy/eV
      -------------------------------------------------------------
         1        2.0000           -0.8157498             -22.1977
       ...           ...                  ...                  ...
        56        2.0000           -0.4424257             -12.0390
        57        2.0000           -0.4390757             -11.9479
        58        2.0000           -0.4327005             -11.7744
        59        2.0000           -0.4255579             -11.5800
        60        2.0000           -0.4218296             -11.4786
        61        2.0000           -0.4104590             -11.1692
        62        2.0000           -0.4045849             -11.0093
        63        2.0000           -0.3985472             -10.8450
        64        2.0000           -0.3738650             -10.1734
        65        2.0000           -0.3641309              -9.9085
        66        2.0000           -0.3509558              -9.5500
        67        2.0000           -0.3403039              -9.2601
        68        2.0000           -0.3382287              -9.2037 (HOMO)
        69                         -0.2577226              -7.0130 (LUMO)
        70                         -0.2229823              -6.0677
        71                         -0.2180192              -5.9326
        72                         -0.2064614              -5.6181
        73                         -0.1846843              -5.0255
        74                         -0.1278235              -3.4783
        75                         -0.1177310              -3.2036
        76                         -0.1019176              -2.7733
        77                         -0.0949059              -2.5825
        78                         -0.0833900              -2.2692
        79                         -0.0798907              -2.1739
       ...                                ...                  ...
       134                          0.7582503              20.6330
      -------------------------------------------------------------
                  HL-Gap            0.0805061 Eh            2.1907 eV

Wiberg/Mayer (AO) data.
largest (>0.10) Wiberg bond orders for each atom

     #   Z sym  total        # sym  WBO       # sym  WBO       # sym  WBO
 ---------------------------------------------------------------------------
     1   6 C    3.904 --    27 H    0.987    28 H    0.981    26 H    0.980
                             2 O    0.931
     2   8 O    2.152 --     3 C    1.034     1 C    0.931     4 O    0.106
     3   6 C    3.848 --     4 O    1.565     5 C    1.129     2 O    1.034
     4   8 O    1.843 --     3 C    1.565     2 O    0.106
     5   6 C    3.919 --    24 C    1.280     6 N    1.142     3 C    1.129
                            25 O    0.130
     6   7 N    3.018 --     7 C    1.634     5 C    1.142
     7   6 C    3.925 --     6 N    1.634    21 N    1.093     8 C    0.976
     8   6 C    3.969 --     9 C    0.989    11 N    0.978    10 C    0.977
                             7 C    0.976
     9   6 C    3.996 --     8 C    0.989    30 H    0.985    31 H    0.985
                            29 H    0.980
    10   6 C    3.994 --    34 H    0.987    33 H    0.986    32 H    0.985
                             8 C    0.977
    11   7 N    2.992 --     8 C    0.978    35 H    0.946    12 C    0.847
    12   6 C    3.937 --    14 O    1.211    13 C    0.946    15 C    0.878
                            11 N    0.847
    13   6 C    3.992 --    38 H    0.989    37 H    0.986    36 H    0.983
                            12 C    0.946
    14   8 O    1.542 --    12 C    1.211
    15   6 C    3.801 --    16 N    1.654    20 O    1.045    12 C    0.878
    16   7 N    2.970 --    15 C    1.654    17 N    1.148
    17   7 N    2.976 --    18 C    1.657    16 N    1.148
    18   6 C    3.888 --    17 N    1.657    20 O    1.062    19 C    1.024
    19   6 C    3.993 --    18 C    1.024    40 H    0.985    39 H    0.971
                            41 H    0.970
    20   8 O    2.292 --    18 C    1.062    15 C    1.045
    21   7 N    3.444 --    22 C    1.184     7 C    1.093    42 H    0.892
                            23 O    0.136
    22   6 C    3.884 --    23 O    1.554    21 N    1.184    24 C    0.972
    23   8 O    1.835 --    22 C    1.554    21 N    0.136
    24   6 C    3.944 --    25 O    1.502     5 C    1.280    22 C    0.972
    25   8 O    1.807 --    24 C    1.502     5 C    0.130
    26   1 H    1.016 --     1 C    0.980
    27   1 H    1.017 --     1 C    0.987
    28   1 H    1.015 --     1 C    0.981
    29   1 H    1.030 --     9 C    0.980
    30   1 H    1.016 --     9 C    0.985
    31   1 H    1.026 --     9 C    0.985
    32   1 H    1.004 --    10 C    0.985
    33   1 H    1.008 --    10 C    0.986
    34   1 H    1.009 --    10 C    0.987
    35   1 H    0.989 --    11 N    0.946
    36   1 H    1.017 --    13 C    0.983
    37   1 H    1.019 --    13 C    0.986
    38   1 H    1.014 --    13 C    0.989
    39   1 H    1.002 --    19 C    0.971
    40   1 H    1.003 --    19 C    0.985
    41   1 H    1.002 --    19 C    0.970
    42   1 H    0.977 --    21 N    0.892
 ---------------------------------------------------------------------------

           -------------------------------------------------
          | TOTAL ENERGY              -83.650086164218 Eh   |
          | GRADIENT NORM               0.000622255763 Eh/α |
          | HOMO-LUMO GAP               2.190681742181 eV   |
           -------------------------------------------------

 * finished run on 2023/06/21 at 17:00:58.500
