   * xtb version 6.5.1 (579679a) compiled by 'ehlert@majestix' on 2022-07-11
          program call               : /lustre/hpc/kemi/ree/PhD/git/ReactivityQM/dep/xtb-6.5.1/bin/xtb --gfn 1 /lustre/hpc/kemi/ree/PhD/git/ReactivityQM/calculations/R02oxygendeprot/reac01prodE04/conf20/R02oxygendeprot_reac01prodE04_conf20_gfn1.xyz --opt --vfukui --chrg -2 --uhf 0 --alpb DMSO

   ID    Z sym.   atoms
    1    6 C      1, 3, 5, 6, 8-11, 13, 15, 18, 19, 22, 24
    2    8 O      2, 4, 14, 20, 23, 25
    3    7 N      7, 12, 16, 17, 21
    4    1 H      26-42

      * Solvation model:               ALPB
        Solvent                        DMSO
        Solvent mass                       7.8130E+01 g/mol
          :  Hamiltonian                  GFN1-xTB          :
 * total energy  :   -83.5757534 Eh     change       -0.5477716E-09 Eh
 * total energy  :   -83.5959250 Eh     change       -0.2017163E-01 Eh
 * total energy  :   -83.6022904 Eh     change       -0.6365344E-02 Eh
 * total energy  :   -83.6036828 Eh     change       -0.1392420E-02 Eh
 * total energy  :   -83.6048376 Eh     change       -0.1154836E-02 Eh
 * total energy  :   -83.6054492 Eh     change       -0.6116033E-03 Eh
 * total energy  :   -83.6058758 Eh     change       -0.4266211E-03 Eh
 * total energy  :   -83.6062883 Eh     change       -0.4124245E-03 Eh
 * total energy  :   -83.6067084 Eh     change       -0.4201040E-03 Eh
 * total energy  :   -83.6070524 Eh     change       -0.3440480E-03 Eh
 * total energy  :   -83.6137793 Eh     change       -0.3351553E-04 Eh
 * total energy  :   -83.6137976 Eh     change       -0.1828961E-04 Eh
 * total energy  :   -83.6138069 Eh     change       -0.9342784E-05 Eh
 * total energy  :   -83.6138049 Eh     change        0.2029026E-05 Eh
 * total energy  :   -83.6138113 Eh     change       -0.6417524E-05 Eh
 * total energy  :   -83.6138182 Eh     change       -0.6949450E-05 Eh
 * total energy  :   -83.6138235 Eh     change       -0.5250316E-05 Eh
 * total energy  :   -83.6138302 Eh     change       -0.6678893E-05 Eh
 * total energy  :   -83.6138331 Eh     change       -0.2927609E-05 Eh
   *** GEOMETRY OPTIMIZATION CONVERGED AFTER 66 ITERATIONS ***

 final structure:
================
42
 xtb: 6.5.1 (579679a)
C           -5.77506317875217        1.17299739447551        0.76874075715992
O           -4.63979101621835        1.36044568646983       -0.06372986960270
C           -3.48175266648437        0.79076153048801        0.37059041235043
O           -3.43485326328440        0.17368184727286        1.42727132526332
C           -2.35971598598370        0.89185140407994       -0.64919298086406
C           -2.39489353233566        2.21232047773626       -1.42241814364767
N           -1.08135513081185        0.75140154018475        0.02370376169542
C           -0.70858496285026       -0.43541128716954        0.35056173257015
C            0.52314424885413       -0.54883886492558        1.25356512919486
C            0.39062194551695        0.52713061660321        2.33918649844995
C            0.66098245251249       -1.92632823761844        1.91478441652211
N            1.72670971376670       -0.22749823679249        0.48045832860349
C            2.12748521942236       -1.07123484034388       -0.56050687459921
O            1.35328805071129       -1.89023451250475       -1.09698200079596
C            3.47557766726439       -0.85850691881396       -0.98887198953958
N            4.12329127229609       -1.46540829394734       -1.98744516175851
N            5.39062279248118       -0.95239271317517       -1.99530885484898
C            5.46757813684084       -0.08595349959490       -1.03981771512272
C            6.64916201349200        0.72499242255118       -0.65582711354016
O            4.30699471321407        0.04672217824673       -0.34955856640345
N           -1.37389687218149       -1.55800074765218       -0.01853780620560
C           -2.28375663935835       -1.57655875797429       -1.12695005970676
O           -2.52569313535392       -2.70759667706783       -1.63973724401172
C           -2.75589750414921       -0.31214411760622       -1.54860588099062
O           -3.50976949979430       -0.09576407173470       -2.55923330244600
H           -5.59736484474290        1.59555356315304        1.76273638938467
H           -6.60883745517481        1.69052559463610        0.29635885699771
H           -6.01226998204730        0.10935695553589        0.87714379378121
H           -2.33720582640847        3.05635339139572       -0.73577459099470
H           -3.31522499962374        2.28604090998276       -2.00115251852820
H           -1.54489625025503        2.25886340052405       -2.10403246977749
H            0.34104309302856        1.51248099921045        1.87531923325844
H           -0.52262081831396        0.36448430659717        2.91114795532218
H            1.24219869587351        0.49440369853269        3.01625822982638
H            0.83622646626059       -2.70485619979255        1.17365629930907
H           -0.24029138449076       -2.16363816282145        2.47857477401213
H            1.50604896870975       -1.91299798783020        2.60136182288908
H            2.48395108170519        0.13078367139295        1.04095093508546
H            7.48599652688610        0.47728793977115       -1.30435774928271
H            6.92507946703035        0.52500526341234        0.37951660503981
H            6.42798776188743        1.78905122381106       -0.74440007932199
H           -0.94025733915230       -2.44913188870103        0.16707271527109

          :  Hamiltonian                  GFN1-xTB          :
         :: total energy             -83.613833095165 Eh    ::
         :: gradient norm              0.000647721324 Eh/a0 ::
         :: HOMO-LUMO gap              0.037190164831 eV    ::
         :: SCC energy               -84.340084617505 Eh    ::
         :: -> Gsolv                  -0.298615495514 Eh    ::
         :: repulsion energy           0.753242669787 Eh    ::

    * Orbital Energies and Occupations

         #    Occupation            Energy/Eh            Energy/eV
      -------------------------------------------------------------
         1        2.0000           -0.8032357             -21.8572
       ...           ...                  ...                  ...
        56        2.0000           -0.4452839             -12.1168
        57        2.0000           -0.4401344             -11.9767
        58        2.0000           -0.4285519             -11.6615
        59        2.0000           -0.4227944             -11.5048
        60        2.0000           -0.4090122             -11.1298
        61        2.0000           -0.4039903             -10.9931
        62        2.0000           -0.4027509             -10.9594
        63        2.0000           -0.3982390             -10.8366
        64        2.0000           -0.3889758             -10.5846
        65        2.0000           -0.3766817             -10.2500
        66        2.0000           -0.3710882             -10.0978
        67        2.0000           -0.3424784              -9.3193
        68        1.3449           -0.2678304              -7.2880 (HOMO)
        69        0.6551           -0.2664636              -7.2508 (LUMO)
        70                         -0.2192966              -5.9674
        71                         -0.2105856              -5.7303
        72                         -0.1987344              -5.4078
        73                         -0.1403179              -3.8182
        74                         -0.1242799              -3.3818
        75                         -0.1217979              -3.3143
        76                         -0.1119027              -3.0450
        77                         -0.1019676              -2.7747
        78                         -0.0987558              -2.6873
        79                         -0.0893736              -2.4320
       ...                                ...                  ...
       134                          0.7138522              19.4249
      -------------------------------------------------------------
                  HL-Gap            0.0013667 Eh            0.0372 eV

Wiberg/Mayer (AO) data.
largest (>0.10) Wiberg bond orders for each atom

     #   Z sym  total        # sym  WBO       # sym  WBO       # sym  WBO
 ---------------------------------------------------------------------------
     1   6 C    3.899 --    27 H    0.987    26 H    0.981    28 H    0.980
                             2 O    0.923
     2   8 O    2.147 --     3 C    1.038     1 C    0.923     4 O    0.106
     3   6 C    3.772 --     4 O    1.588     2 O    1.038     5 C    0.943
     4   8 O    1.845 --     3 C    1.588     2 O    0.106
     5   6 C    3.960 --     6 C    0.992     7 N    0.985     3 C    0.943
                            24 C    0.876
     6   6 C    3.990 --     5 C    0.992    29 H    0.989    31 H    0.987
                            30 H    0.984
     7   7 N    2.936 --     8 C    1.648     5 C    0.985    21 N    0.147
     8   6 C    3.930 --     7 N    1.648    21 N    1.188     9 C    0.963
     9   6 C    3.951 --    10 C    0.994    11 C    0.993     8 C    0.963
                            12 N    0.940
    10   6 C    3.995 --     9 C    0.994    34 H    0.986    33 H    0.986
                            32 H    0.983
    11   6 C    3.992 --     9 C    0.993    36 H    0.987    37 H    0.985
                            35 H    0.978
    12   7 N    3.146 --    13 C    1.090     9 C    0.940    38 H    0.919
                            14 O    0.112
    13   6 C    3.758 --    14 O    1.453    15 C    1.148    12 N    1.090
    14   8 O    1.689 --    13 C    1.453    12 N    0.112
    15   6 C    3.690 --    16 N    1.405    13 C    1.148    20 O    0.968
    16   7 N    2.730 --    15 C    1.405    17 N    1.189
    17   7 N    2.982 --    18 C    1.628    16 N    1.189
    18   6 C    3.812 --    17 N    1.628    20 O    1.041    19 C    1.024
    19   6 C    3.994 --    18 C    1.024    39 H    0.986    40 H    0.971
                            41 H    0.971
    20   8 O    2.177 --    18 C    1.041    15 C    0.968
    21   7 N    3.337 --     8 C    1.188    22 C    0.965    42 H    0.909
                             7 N    0.147
    22   6 C    3.753 --    23 O    1.392    24 C    1.240    21 N    0.965
    23   8 O    1.606 --    22 C    1.392
    24   6 C    3.730 --    25 O    1.368    22 C    1.240     5 C    0.876
    25   8 O    1.572 --    24 C    1.368
    26   1 H    1.014 --     1 C    0.981
    27   1 H    1.016 --     1 C    0.987
    28   1 H    1.013 --     1 C    0.980
    29   1 H    1.011 --     6 C    0.989
    30   1 H    1.028 --     6 C    0.984
    31   1 H    1.013 --     6 C    0.987
    32   1 H    1.025 --    10 C    0.983
    33   1 H    1.010 --    10 C    0.986
    34   1 H    1.003 --    10 C    0.986
    35   1 H    1.014 --    11 C    0.978
    36   1 H    1.004 --    11 C    0.987
    37   1 H    1.005 --    11 C    0.985
    38   1 H    0.961 --    12 N    0.919
    39   1 H    1.004 --    19 C    0.986
    40   1 H    1.000 --    19 C    0.971
    41   1 H    1.000 --    19 C    0.971
    42   1 H    0.978 --    21 N    0.909
 ---------------------------------------------------------------------------

           -------------------------------------------------
          | TOTAL ENERGY              -83.613833095165 Eh   |
          | GRADIENT NORM               0.000647721324 Eh/α |
          | HOMO-LUMO GAP               0.037190164831 eV   |
           -------------------------------------------------

 * finished run on 2023/06/21 at 17:04:44.165
