   * xtb version 6.5.1 (579679a) compiled by 'ehlert@majestix' on 2022-07-11
          program call               : /lustre/hpc/kemi/ree/PhD/git/ReactivityQM/dep/xtb-6.5.1/bin/xtb --gfn 1 /lustre/hpc/kemi/ree/PhD/git/ReactivityQM/calculations/R03/reac01/conf05/R03_reac01_conf05_gfn1.xyz --opt --vfukui --chrg 0 --uhf 0 --alpb DMSO

   ID    Z sym.   atoms
    1    7 N      1
    2    6 C      2-6, 8, 9
    3    9 F      7
    4    1 H      10-17

      * Solvation model:               ALPB
        Solvent                        DMSO
        Solvent mass                       7.8130E+01 g/mol
          :  Hamiltonian                  GFN1-xTB          :
 * total energy  :   -27.4607635 Eh     change       -0.2575717E-10 Eh
 * total energy  :   -27.4627905 Eh     change       -0.2026985E-02 Eh
 * total energy  :   -27.4631107 Eh     change       -0.3202295E-03 Eh
 * total energy  :   -27.4631391 Eh     change       -0.2835352E-04 Eh
 * total energy  :   -27.4631556 Eh     change       -0.1649229E-04 Eh
 * total energy  :   -27.4631593 Eh     change       -0.3758975E-05 Eh
   *** GEOMETRY OPTIMIZATION CONVERGED AFTER 6 ITERATIONS ***

 final structure:
================
17
 xtb: 6.5.1 (579679a)
N           -2.57718521936415        0.29829090561526        0.76521095594982
C           -1.90641343629637       -0.15549128479129       -0.45458029779227
C           -0.40151381970571       -0.10681308355730       -0.29692962267649
C            0.28980787866202        1.08561135305814       -0.50765162241817
C            1.66460386851219        1.15270027812178       -0.32820711042145
C            2.32911135323046        0.00627578783696        0.06798399110877
F            3.66241908828944        0.05933654041004        0.24001478873947
C            1.67870234644474       -1.19337374089955        0.29117569879471
C            0.30324467415052       -1.23952699105893        0.10655422374626
H           -2.29250989628322        1.24969984359346        0.96002477929450
H           -2.26656197710971       -0.27338103908666        1.54035357759490
H           -2.22337943364546        0.48939204697953       -1.28016246415213
H           -2.23221682907313       -1.17853015880658       -0.66691618724660
H           -0.24898982359247        1.97208630882416       -0.82156176796827
H            2.21024017721431        2.07240138113420       -0.49412919176716
H            2.23523469603474       -2.06765080582564        0.60234666770698
H           -0.22459664746821       -2.17102534154745        0.27647258150704

          :  Hamiltonian                  GFN1-xTB          :
         :: total energy             -27.463159310323 Eh    ::
         :: gradient norm              0.000819195551 Eh/a0 ::
         :: HOMO-LUMO gap              3.706242736052 eV    ::
         :: SCC energy               -27.818881210204 Eh    ::
         :: -> Gsolv                  -0.015244660582 Eh    ::
         :: repulsion energy           0.363461895285 Eh    ::

    * Orbital Energies and Occupations

         #    Occupation            Energy/Eh            Energy/eV
      -------------------------------------------------------------
         1        2.0000           -0.8585529             -23.3624
       ...           ...                  ...                  ...
        12        2.0000           -0.5567904             -15.1510
        13        2.0000           -0.5529825             -15.0474
        14        2.0000           -0.5362001             -14.5907
        15        2.0000           -0.5307124             -14.4414
        16        2.0000           -0.5244831             -14.2719
        17        2.0000           -0.5187901             -14.1170
        18        2.0000           -0.5003180             -13.6143
        19        2.0000           -0.4925771             -13.4037
        20        2.0000           -0.4843646             -13.1802
        21        2.0000           -0.4669009             -12.7050
        22        2.0000           -0.4456284             -12.1262
        23        2.0000           -0.4318476             -11.7512
        24        2.0000           -0.4040726             -10.9954 (HOMO)
        25                         -0.2678707              -7.2891 (LUMO)
        26                         -0.2598545              -7.0710
        27                         -0.1398796              -3.8063
        28                         -0.1092281              -2.9722
        29                         -0.1069653              -2.9107
        30                         -0.0948530              -2.5811
        31                         -0.0901431              -2.4529
        32                         -0.0886587              -2.4125
        33                         -0.0676746              -1.8415
        34                         -0.0471999              -1.2844
        35                         -0.0237240              -0.6456
       ...                                ...                  ...
        52                          0.6505053              17.7011
      -------------------------------------------------------------
                  HL-Gap            0.1362019 Eh            3.7062 eV

Wiberg/Mayer (AO) data.
largest (>0.10) Wiberg bond orders for each atom

     #   Z sym  total        # sym  WBO       # sym  WBO       # sym  WBO
 ---------------------------------------------------------------------------
     1   7 N    2.956 --     2 C    0.987    10 H    0.949    11 H    0.949
     2   6 C    3.979 --     3 C    0.997     1 N    0.987    13 H    0.980
                            12 H    0.978
     3   6 C    3.988 --     9 C    1.416     4 C    1.413     2 C    0.997
     4   6 C    3.994 --     5 C    1.445     3 C    1.413    14 H    0.972
                             8 C    0.110
     5   6 C    3.992 --     4 C    1.445     6 C    1.400    15 H    0.970
                             9 C    0.110
     6   6 C    3.860 --     8 C    1.402     5 C    1.400     7 F    0.920
     7   9 F    1.047 --     6 C    0.920
     8   6 C    3.992 --     9 C    1.442     6 C    1.402    16 H    0.970
                             4 C    0.110
     9   6 C    3.994 --     8 C    1.442     3 C    1.416    17 H    0.972
                             5 C    0.110
    10   1 H    0.964 --     1 N    0.949
    11   1 H    0.963 --     1 N    0.949
    12   1 H    1.010 --     2 C    0.978
    13   1 H    1.010 --     2 C    0.980
    14   1 H    1.000 --     4 C    0.972
    15   1 H    0.999 --     5 C    0.970
    16   1 H    0.999 --     8 C    0.970
    17   1 H    1.000 --     9 C    0.972
 ---------------------------------------------------------------------------

           -------------------------------------------------
          | TOTAL ENERGY              -27.463159310323 Eh   |
          | GRADIENT NORM               0.000819195551 Eh/α |
          | HOMO-LUMO GAP               3.706242736052 eV   |
           -------------------------------------------------

 * finished run on 2023/06/20 at 15:12:17.810
