   * xtb version 6.5.1 (579679a) compiled by 'ehlert@majestix' on 2022-07-11
          program call               : /lustre/hpc/kemi/ree/PhD/git/ReactivityQM/dep/xtb-6.5.1/bin/xtb --gfn 1 /lustre/hpc/kemi/ree/PhD/git/ReactivityQM/calculations/R02deprot/reac01prodN14/conf08/R02deprot_reac01prodN14_conf08_gfn1.xyz --opt --vfukui --chrg 0 --uhf 0 --alpb DMSO

   ID    Z sym.   atoms
    1    6 C      1, 3, 5, 7-10, 12, 14, 17-19, 22, 24
    2    8 O      2, 4, 13, 20, 23, 25
    3    7 N      6, 11, 15, 16, 21
    4    1 H      26-42

      * Solvation model:               ALPB
        Solvent                        DMSO
        Solvent mass                       7.8130E+01 g/mol
          :  Hamiltonian                  GFN1-xTB          :
 * total energy  :   -82.9143358 Eh     change       -0.9279688E-11 Eh
 * total energy  :   -82.9259050 Eh     change       -0.1156925E-01 Eh
 * total energy  :   -82.9299235 Eh     change       -0.4018460E-02 Eh
 * total energy  :   -82.9305230 Eh     change       -0.5994548E-03 Eh
 * total energy  :   -82.9309689 Eh     change       -0.4459851E-03 Eh
 * total energy  :   -82.9311610 Eh     change       -0.1920515E-03 Eh
 * total energy  :   -82.9313081 Eh     change       -0.1471314E-03 Eh
 * total energy  :   -82.9314283 Eh     change       -0.1201696E-03 Eh
 * total energy  :   -82.9315268 Eh     change       -0.9853785E-04 Eh
 * total energy  :   -82.9316104 Eh     change       -0.8361333E-04 Eh
 * total energy  :   -82.9323256 Eh     change       -0.8920967E-05 Eh
 * total energy  :   -82.9323361 Eh     change       -0.1051205E-04 Eh
 * total energy  :   -82.9323500 Eh     change       -0.1388427E-04 Eh
 * total energy  :   -82.9323671 Eh     change       -0.1713232E-04 Eh
 * total energy  :   -82.9323824 Eh     change       -0.1528013E-04 Eh
 * total energy  :   -82.9323924 Eh     change       -0.9965582E-05 Eh
 * total energy  :   -82.9324013 Eh     change       -0.8945097E-05 Eh
 * total energy  :   -82.9324131 Eh     change       -0.1179311E-04 Eh
 * total energy  :   -82.9324173 Eh     change       -0.4168730E-05 Eh
   *** GEOMETRY OPTIMIZATION CONVERGED AFTER 44 ITERATIONS ***

 final structure:
================
42
 xtb: 6.5.1 (579679a)
C           -6.64839744561898       -1.11925688065454        0.95299796761749
O           -5.29891757777941       -0.72133254439593        0.68869141733854
C           -5.11309194787071        0.11734080224161       -0.31878702333116
O           -6.02465607612453        0.55599734142481       -0.99960116433434
C           -3.69127366821917        0.46821668155169       -0.55748426467935
N           -2.76222248882203       -0.04062416884655        0.26851140585919
C           -1.48483539856566        0.26148743708323        0.01771286644303
C           -0.47959541561850       -0.33800117527289        0.98290230264232
C           -0.67563729332642        0.29370332895582        2.36887014385103
C           -0.66972580540875       -1.85934480390237        1.04504861719996
N            0.84694552277654       -0.01673116215377        0.46852194376854
C            1.99829324406467       -0.42618068107622        1.01718017531853
O            2.12761807439220       -1.07479577213103        2.04027928423941
C            3.16034873695355        0.00800861763047        0.18384587072817
N            3.05779832580920        0.75870160543856       -0.93294532161442
N            4.22800178377193        0.91843891926908       -1.42410662184781
C            5.18510854031247        0.23191375834119       -0.59875702955285
C            6.19397012650302        1.21790390809525       -0.00637931477736
C            5.86157731398965       -0.88947085812031       -1.39251733148670
O            4.38961077986842       -0.33306046824075        0.44420977106850
N           -1.03190238242036        1.00920643791350       -0.96037131368607
C           -1.90250950933314        1.58658716951681       -1.85712410603956
O           -1.51400112014202        2.29429067934788       -2.78047262636798
C           -3.33440844429333        1.28775928944727       -1.62486513955773
O           -4.21024312074766        1.82324679742272       -2.46224003620914
H           -7.25812737113882       -0.24318607617832        1.18405216791193
H           -6.61125571254512       -1.79354131056397        1.80589808643417
H           -7.06307971817981       -1.62958411726521        0.08091124402235
H           -1.69838373136369        0.11385958500242        2.69623698295061
H            0.01468569735151       -0.14857043474147        3.08481084679399
H           -0.50124158272167        1.36733458413379        2.31779818771629
H           -0.01007492089609       -2.29431297894897        1.79323705630963
H           -0.45194445646790       -2.30179481005175        0.07416080558917
H           -1.70412549927503       -2.07303969723571        1.31000758018563
H            0.85571164853874        0.53799864698343       -0.38595934488939
H            6.76766121126622        1.66681755299999       -0.81290511575597
H            5.66350036284907        1.99279024812510        0.54255653991170
H            6.86008506185915        0.68430602906617        0.66709270773035
H            6.54276642227766       -1.42865399231412       -0.73896842543779
H            5.10342794307253       -1.57105437417857       -1.77204797314268
H            6.41284693185474       -0.45494949647168       -2.22231518225169
H           -5.13030704063002        1.56157538275193       -2.22108263667169

          :  Hamiltonian                  GFN1-xTB          :
         :: total energy             -82.932417301976 Eh    ::
         :: gradient norm              0.000238385344 Eh/a0 ::
         :: HOMO-LUMO gap              0.061101587711 eV    ::
         :: SCC energy               -83.689423772589 Eh    ::
         :: -> Gsolv                  -0.055578638186 Eh    ::
         :: repulsion energy           0.782242380624 Eh    ::

    * Orbital Energies and Occupations

         #    Occupation            Energy/Eh            Energy/eV
      -------------------------------------------------------------
         1        2.0000           -0.8870732             -24.1385
       ...           ...                  ...                  ...
        55        2.0000           -0.5122931             -13.9402
        56        2.0000           -0.5043572             -13.7243
        57        2.0000           -0.5023707             -13.6702
        58        2.0000           -0.4987974             -13.5730
        59        2.0000           -0.4878245             -13.2744
        60        2.0000           -0.4806050             -13.0779
        61        2.0000           -0.4775207             -12.9940
        62        2.0000           -0.4688393             -12.7578
        63        2.0000           -0.4677894             -12.7292
        64        2.0000           -0.4580580             -12.4644
        65        2.0000           -0.4473964             -12.1743
        66        1.9983           -0.4157959             -11.3144
        67        1.5314           -0.4102191             -11.1626 (HOMO)
        68        0.4703           -0.4079737             -11.1015 (LUMO)
        69                         -0.3245429              -8.8313
        70                         -0.3136833              -8.5358
        71                         -0.2719941              -7.4013
        72                         -0.2282622              -6.2113
        73                         -0.2223738              -6.0511
        74                         -0.1501058              -4.0846
        75                         -0.1465489              -3.9878
        76                         -0.1410717              -3.8388
        77                         -0.1372533              -3.7349
        78                         -0.1229362              -3.3453
       ...                                ...                  ...
       134                          0.7125667              19.3899
      -------------------------------------------------------------
                  HL-Gap            0.0022454 Eh            0.0611 eV

Wiberg/Mayer (AO) data.
largest (>0.10) Wiberg bond orders for each atom

     #   Z sym  total        # sym  WBO       # sym  WBO       # sym  WBO
 ---------------------------------------------------------------------------
     1   6 C    3.866 --    27 H    0.986    26 H    0.979    28 H    0.979
                             2 O    0.892
     2   8 O    2.218 --     3 C    1.139     1 C    0.892     4 O    0.130
     3   6 C    3.841 --     4 O    1.607     2 O    1.139     5 C    1.011
     4   8 O    1.938 --     3 C    1.607     2 O    0.130
     5   6 C    3.918 --    24 C    1.358     6 N    1.316     3 C    1.011
     6   7 N    2.847 --     7 C    1.325     5 C    1.316
     7   6 C    3.915 --    21 N    1.469     6 N    1.325     8 C    0.981
     8   6 C    3.922 --     7 C    0.981    10 C    0.976     9 C    0.970
                            11 N    0.925
     9   6 C    3.980 --    31 H    0.986    29 H    0.984    30 H    0.981
                             8 C    0.970
    10   6 C    3.982 --    33 H    0.986    34 H    0.983    32 H    0.981
                             8 C    0.976
    11   7 N    3.371 --    12 C    1.281     8 C    0.925    35 H    0.866
                            13 O    0.200
    12   6 C    3.921 --    13 O    1.580    11 N    1.281    14 C    0.976
    13   8 O    1.899 --    12 C    1.580    11 N    0.200
    14   6 C    3.645 --    15 N    1.287    20 O    1.217    12 C    0.976
    15   7 N    3.007 --    16 N    1.560    14 C    1.287
    16   7 N    2.718 --    15 N    1.560    17 C    1.025
    17   6 C    3.836 --    16 N    1.025    18 C    0.937    19 C    0.934
                            20 O    0.876
    18   6 C    3.939 --    37 H    0.982    36 H    0.981    38 H    0.980
                            17 C    0.937
    19   6 C    3.937 --    40 H    0.982    41 H    0.981    39 H    0.980
                            17 C    0.934
    20   8 O    2.238 --    14 C    1.217    17 C    0.876
    21   7 N    2.962 --     7 C    1.469    22 C    1.155
    22   6 C    3.875 --    23 O    1.584    21 N    1.155    24 C    1.029
    23   8 O    1.772 --    22 C    1.584
    24   6 C    3.736 --     5 C    1.358    25 O    1.162    22 C    1.029
    25   8 O    2.062 --    24 C    1.162    42 H    0.771
    26   1 H    1.006 --     1 C    0.979
    27   1 H    1.010 --     1 C    0.986
    28   1 H    1.006 --     1 C    0.979
    29   1 H    1.006 --     9 C    0.984
    30   1 H    1.006 --     9 C    0.981
    31   1 H    1.002 --     9 C    0.986
    32   1 H    1.007 --    10 C    0.981
    33   1 H    1.001 --    10 C    0.986
    34   1 H    1.010 --    10 C    0.983
    35   1 H    0.969 --    11 N    0.866
    36   1 H    0.996 --    18 C    0.981
    37   1 H    0.996 --    18 C    0.982
    38   1 H    0.996 --    18 C    0.980
    39   1 H    0.995 --    19 C    0.980
    40   1 H    0.996 --    19 C    0.982
    41   1 H    0.996 --    19 C    0.981
    42   1 H    0.850 --    25 O    0.771
 ---------------------------------------------------------------------------

           -------------------------------------------------
          | TOTAL ENERGY              -82.932417301976 Eh   |
          | GRADIENT NORM               0.000238385344 Eh/α |
          | HOMO-LUMO GAP               0.061101587711 eV   |
           -------------------------------------------------

 * finished run on 2023/06/20 at 18:24:10.768
