   * xtb version 6.5.1 (579679a) compiled by 'ehlert@majestix' on 2022-07-11
          program call               : /lustre/hpc/kemi/ree/PhD/git/ReactivityQM/dep/xtb-6.5.1/bin/xtb --gfn 1 /lustre/hpc/kemi/ree/PhD/git/ReactivityQM/calculations/R03/reac01prodN05/conf02/R03_reac01prodN05_conf02_gfn1.xyz --opt --vfukui --chrg 1 --uhf 0 --alpb DMSO

   ID    Z sym.   atoms
    1    6 C      1, 2, 4-7, 9, 10
    2    9 F      3
    3    7 N      8
    4    1 H      11-21

      * Solvation model:               ALPB
        Solvent                        DMSO
        Solvent mass                       7.8130E+01 g/mol
          :  Hamiltonian                  GFN1-xTB          :
 * total energy  :   -30.7538463 Eh     change       -0.1044498E-11 Eh
 * total energy  :   -30.7568836 Eh     change       -0.3037320E-02 Eh
 * total energy  :   -30.7584492 Eh     change       -0.1565547E-02 Eh
 * total energy  :   -30.7588806 Eh     change       -0.4314096E-03 Eh
 * total energy  :   -30.7595095 Eh     change       -0.6289220E-03 Eh
 * total energy  :   -30.7597988 Eh     change       -0.2893271E-03 Eh
 * total energy  :   -30.7600677 Eh     change       -0.2688311E-03 Eh
 * total energy  :   -30.7602826 Eh     change       -0.2149447E-03 Eh
 * total energy  :   -30.7604617 Eh     change       -0.1791244E-03 Eh
 * total energy  :   -30.7606464 Eh     change       -0.1847123E-03 Eh
 * total energy  :   -30.7612133 Eh     change       -0.4727954E-04 Eh
 * total energy  :   -30.7612266 Eh     change       -0.1333968E-04 Eh
 * total energy  :   -30.7612944 Eh     change       -0.6775319E-04 Eh
 * total energy  :   -30.7613202 Eh     change       -0.2587429E-04 Eh
 * total energy  :   -30.7613405 Eh     change       -0.2029290E-04 Eh
 * total energy  :   -30.7613505 Eh     change       -0.9979683E-05 Eh
 * total energy  :   -30.7613621 Eh     change       -0.1161246E-04 Eh
 * total energy  :   -30.7613677 Eh     change       -0.5625885E-05 Eh
 * total energy  :   -30.7613709 Eh     change       -0.3175611E-05 Eh
   *** GEOMETRY OPTIMIZATION CONVERGED AFTER 27 ITERATIONS ***

 final structure:
================
21
 xtb: 6.5.1 (579679a)
C            2.43755002528847        0.32656411631218       -0.88496396008225
C            1.82568269961080       -0.09766816258741        0.48720205086280
F            2.88300396458272       -0.20509926004811        1.34772764332993
C            1.17177684948583       -1.40581721147508        0.25895636086128
C           -0.16316862682313       -1.47295164271073        0.02760710172265
C           -0.99397670078816       -0.33088068304731        0.18610454712336
C           -2.44668641164151       -0.43073897756518       -0.10080827126235
N           -3.02338479292279        0.81843312787939       -0.53815135027368
C           -0.42561484621230        0.88537320744804        0.64231218179302
C            0.90519556081565        0.98705250349474        0.89077227884217
H            3.14834218081486       -0.43867114984164       -1.18855748420037
H            2.95343067570094        1.27374573124862       -0.74520366723887
H            1.65987912960194        0.43292040685181       -1.63502970375516
H            1.80974883423997       -2.27981815896708        0.20021944746780
H           -0.62703901787824       -2.42015923560613       -0.22376241610200
H           -2.97554622827669       -0.76872934025369        0.79702734058592
H           -2.60803265531140       -1.20339662795287       -0.86201464942167
H           -3.42239500640370        1.35215256028547        0.21793925890424
H           -2.36371360543550        1.37968655644170       -1.05428052798690
H           -1.08717274729430        1.71456791999137        0.86200312265098
H            1.34212471884702        1.88343232010108        1.31490069617903

          :  Hamiltonian                  GFN1-xTB          :
         :: total energy             -30.761370923329 Eh    ::
         :: gradient norm              0.000321660861 Eh/a0 ::
         :: HOMO-LUMO gap              0.818281604814 eV    ::
         :: SCC energy               -31.152680055762 Eh    ::
         :: -> Gsolv                  -0.087234281057 Eh    ::
         :: repulsion energy           0.401477303479 Eh    ::

    * Orbital Energies and Occupations

         #    Occupation            Energy/Eh            Energy/eV
      -------------------------------------------------------------
         1        2.0000           -0.8931558             -24.3040
       ...           ...                  ...                  ...
        15        2.0000           -0.5970993             -16.2479
        16        2.0000           -0.5915204             -16.0961
        17        2.0000           -0.5738480             -15.6152
        18        2.0000           -0.5710024             -15.5378
        19        2.0000           -0.5661990             -15.4071
        20        2.0000           -0.5582348             -15.1903
        21        2.0000           -0.5544268             -15.0867
        22        2.0000           -0.5499418             -14.9647
        23        2.0000           -0.5381399             -14.6435
        24        2.0000           -0.5192976             -14.1308
        25        2.0000           -0.5184919             -14.1089
        26        2.0000           -0.5078336             -13.8189
        27        2.0000           -0.4504799             -12.2582 (HOMO)
        28        0.0000           -0.4204086             -11.4399 (LUMO)
        29                         -0.3252229              -8.8498
        30                         -0.2524332              -6.8691
        31                         -0.1587457              -4.3197
        32                         -0.1548711              -4.2143
        33                         -0.1428715              -3.8877
        34                         -0.1387260              -3.7749
        35                         -0.1337904              -3.6406
        36                         -0.1198962              -3.2625
        37                         -0.0985839              -2.6826
        38                         -0.0965860              -2.6282
       ...                                ...                  ...
        62                          0.5425074              14.7624
      -------------------------------------------------------------
                  HL-Gap            0.0300713 Eh            0.8183 eV

Wiberg/Mayer (AO) data.
largest (>0.10) Wiberg bond orders for each atom

     #   Z sym  total        # sym  WBO       # sym  WBO       # sym  WBO
 ---------------------------------------------------------------------------
     1   6 C    3.944 --    13 H    0.982    11 H    0.975    12 H    0.974
                             2 C    0.859
     2   6 C    3.887 --    10 C    1.039     4 C    1.035     3 F    0.898
                             1 C    0.859
     3   9 F    1.007 --     2 C    0.898
     4   6 C    3.952 --     5 C    1.659     2 C    1.035    14 H    0.961
     5   6 C    3.987 --     4 C    1.659     6 C    1.263    15 H    0.960
     6   6 C    3.922 --     9 C    1.274     5 C    1.263     7 C    1.061
     7   6 C    3.975 --     6 C    1.061     8 N    1.002    17 H    0.934
                            16 H    0.912
     8   7 N    3.079 --     7 C    1.002    19 H    0.929    18 H    0.921
     9   6 C    3.986 --    10 C    1.647     6 C    1.274    20 H    0.959
    10   6 C    3.954 --     9 C    1.647     2 C    1.039    21 H    0.960
    11   1 H    0.993 --     1 C    0.975
    12   1 H    0.993 --     1 C    0.974
    13   1 H    0.995 --     1 C    0.982
    14   1 H    0.988 --     4 C    0.961
    15   1 H    0.989 --     5 C    0.960
    16   1 H    0.987 --     7 C    0.912
    17   1 H    1.000 --     7 C    0.934
    18   1 H    0.935 --     8 N    0.921
    19   1 H    0.943 --     8 N    0.929
    20   1 H    0.993 --     9 C    0.959
    21   1 H    0.988 --    10 C    0.960
 ---------------------------------------------------------------------------

           -------------------------------------------------
          | TOTAL ENERGY              -30.761370923329 Eh   |
          | GRADIENT NORM               0.000321660861 Eh/α |
          | HOMO-LUMO GAP               0.818281604814 eV   |
           -------------------------------------------------

 * finished run on 2023/06/20 at 15:14:34.318
