   * xtb version 6.5.1 (579679a) compiled by 'ehlert@majestix' on 2022-07-11
          program call               : /lustre/hpc/kemi/ree/PhD/git/ReactivityQM/dep/xtb-6.5.1/bin/xtb --gfn 1 /lustre/hpc/kemi/ree/PhD/git/ReactivityQM/calculations/R02/reac01prodN03/conf18/R02_reac01prodN03_conf18_gfn1.xyz --opt --vfukui --chrg 1 --uhf 0 --alpb DMSO

   ID    Z sym.   atoms
    1    6 C      1, 3, 5, 6, 8-11, 13, 15, 18, 19, 22, 24
    2    8 O      2, 4, 14, 20, 23, 25
    3    7 N      7, 12, 16, 17, 21
    4    1 H      26-43

      * Solvation model:               ALPB
        Solvent                        DMSO
        Solvent mass                       7.8130E+01 g/mol
          :  Hamiltonian                  GFN1-xTB          :
 * total energy  :   -83.1209419 Eh     change       -0.1082867E-10 Eh
 * total energy  :   -83.1472304 Eh     change       -0.2628842E-01 Eh
 * total energy  :   -83.1562191 Eh     change       -0.8988699E-02 Eh
 * total energy  :   -83.1588097 Eh     change       -0.2590668E-02 Eh
 * total energy  :   -83.1604914 Eh     change       -0.1681648E-02 Eh
 * total energy  :   -83.1614731 Eh     change       -0.9817315E-03 Eh
 * total energy  :   -83.1624622 Eh     change       -0.9890599E-03 Eh
 * total energy  :   -83.1631358 Eh     change       -0.6735948E-03 Eh
 * total energy  :   -83.1635147 Eh     change       -0.3789392E-03 Eh
 * total energy  :   -83.1636763 Eh     change       -0.1615750E-03 Eh
 * total energy  :   -83.1644467 Eh     change       -0.1358690E-04 Eh
 * total energy  :   -83.1644585 Eh     change       -0.1184374E-04 Eh
 * total energy  :   -83.1644706 Eh     change       -0.1207544E-04 Eh
 * total energy  :   -83.1644776 Eh     change       -0.6996135E-05 Eh
 * total energy  :   -83.1644823 Eh     change       -0.4720965E-05 Eh
 * total energy  :   -83.1644876 Eh     change       -0.5260608E-05 Eh
 * total energy  :   -83.1644927 Eh     change       -0.5059593E-05 Eh
 * total energy  :   -83.1644969 Eh     change       -0.4229141E-05 Eh
 * total energy  :   -83.1644998 Eh     change       -0.2932421E-05 Eh
   *** GEOMETRY OPTIMIZATION CONVERGED AFTER 37 ITERATIONS ***

 final structure:
================
43
 xtb: 6.5.1 (579679a)
C           -4.35556778296266       -2.72716125736650        0.03026554907729
O           -4.39378060178554       -1.51571318186573        0.80111797721517
C           -3.56839349237537       -0.53402755041135        0.73759083229335
O           -3.64747930771234        0.35165510715870        1.66487687394681
C           -4.60308774062324        0.20715914178771        2.73195569408277
C           -2.52766755174281       -0.30843758798423       -0.26093881427666
N           -1.45852579590999        0.40675510957780        0.23213587392540
C           -0.47061327214203        0.71268043661920       -0.54245390610296
C            0.69047696981854        1.51044120775377        0.02808865957516
C            0.70865752259449        2.91411599573513       -0.59441046809303
C            0.54361590828420        1.60838416582561        1.54728206711291
N            1.95484778307410        0.81278846704614       -0.23133067138208
C            2.57789398891125        0.71770282932465       -1.42200839364738
O            2.12443138003190        1.10639440739392       -2.49163642827603
C            3.89710389164232        0.05757819352798       -1.32503711454919
N            4.74279792272732       -0.18173653742950       -2.27825593372299
N            5.80986966081528       -0.80529148055527       -1.71005326902098
C            5.55203222014201       -0.91121279039199       -0.44289835059338
C            6.39243827422670       -1.52158403074041        0.60931919805755
O            4.35642381102907       -0.38355771843371       -0.13341300135575
N           -0.45122056875201        0.38751391782484       -1.86397007808856
C           -1.46409781338542       -0.28802921329908       -2.48177466828118
O           -1.47608432376717       -0.57936980171538       -3.66318273155899
C           -2.57847858666210       -0.64797157577873       -1.58994044463405
O           -3.60530006438637       -1.24369282434488       -2.17923718784196
H           -3.33802735252319       -2.94533577799357       -0.28903807771186
H           -4.73094927733255       -3.50631606464819        0.69283478707255
H           -5.01356644060849       -2.61537786909125       -0.83117795778130
H           -5.61242385014258        0.23705931672069        2.32054049691750
H           -4.43679744008544       -0.74308369573405        3.23952919941162
H           -4.42905600208840        1.04609375792813        3.40132831848334
H           -0.19949531372618        3.44246636239107       -0.30887138266870
H            0.76029034888539        2.86299554339924       -1.67982484759709
H            1.57273330662994        3.46175253039445       -0.22170025464164
H           -0.38392228716428        2.12177723451127        1.79378349382607
H            0.51686648106276        0.61330901837877        1.98772478266753
H            1.38147875881099        2.16414729878111        1.96370026780982
H            2.42039407512104        0.42702228806902        0.57500909207659
H            5.86587321453530       -2.36301660980331        1.05940001478870
H            7.33045754985108       -1.86488465050193        0.17924359903586
H            6.59091940370491       -0.79234123853327        1.39432252254864
H            0.36499109270781        0.65700270900916       -2.42637110161152
H           -3.41005569871394       -1.34864958253234       -3.13505621649925

          :  Hamiltonian                  GFN1-xTB          :
         :: total energy             -83.164499819361 Eh    ::
         :: gradient norm              0.000460481625 Eh/a0 ::
         :: HOMO-LUMO gap              2.171581610858 eV    ::
         :: SCC energy               -83.958283794288 Eh    ::
         :: -> Gsolv                  -0.107928975819 Eh    ::
         :: repulsion energy           0.819828389293 Eh    ::

    * Orbital Energies and Occupations

         #    Occupation            Energy/Eh            Energy/eV
      -------------------------------------------------------------
         1        2.0000           -0.9161547             -24.9298
       ...           ...                  ...                  ...
        55        2.0000           -0.5284238             -14.3791
        56        2.0000           -0.5224423             -14.2164
        57        2.0000           -0.5162714             -14.0485
        58        2.0000           -0.5117335             -13.9250
        59        2.0000           -0.5109248             -13.9030
        60        2.0000           -0.4936714             -13.4335
        61        2.0000           -0.4858683             -13.2212
        62        2.0000           -0.4812729             -13.0961
        63        2.0000           -0.4753524             -12.9350
        64        2.0000           -0.4695473             -12.7770
        65        2.0000           -0.4620313             -12.5725
        66        2.0000           -0.4583216             -12.4716
        67        2.0000           -0.4571057             -12.4385 (HOMO)
        68                         -0.3773016             -10.2669 (LUMO)
        69                         -0.3217147              -8.7543
        70                         -0.3144151              -8.5557
        71                         -0.2951779              -8.0322
        72                         -0.2616579              -7.1201
        73                         -0.2085873              -5.6759
        74                         -0.2001348              -5.4459
        75                         -0.1692778              -4.6063
        76                         -0.1610718              -4.3830
        77                         -0.1441336              -3.9221
        78                         -0.1363841              -3.7112
       ...                                ...                  ...
       136                          0.7083010              19.2739
      -------------------------------------------------------------
                  HL-Gap            0.0798042 Eh            2.1716 eV

Wiberg/Mayer (AO) data.
largest (>0.10) Wiberg bond orders for each atom

     #   Z sym  total        # sym  WBO       # sym  WBO       # sym  WBO
 ---------------------------------------------------------------------------
     1   6 C    3.811 --    26 H    0.980    27 H    0.974    28 H    0.964
                             2 O    0.847
     2   8 O    2.315 --     3 C    1.267     1 C    0.847
     3   6 C    3.806 --     4 O    1.277     2 O    1.267     6 C    1.076
     4   8 O    2.317 --     3 C    1.277     5 C    0.853
     5   6 C    3.821 --    31 H    0.981    30 H    0.972    29 H    0.972
                             4 O    0.853
     6   6 C    3.956 --    24 C    1.460     7 N    1.158     3 C    1.076
     7   7 N    3.018 --     8 C    1.583     6 C    1.158
     8   6 C    3.923 --     7 N    1.583    21 N    1.188     9 C    0.971
     9   6 C    3.934 --    11 C    1.000    10 C    0.977     8 C    0.971
                            12 N    0.923
    10   6 C    3.984 --    32 H    0.984    34 H    0.982    33 H    0.979
                             9 C    0.977
    11   6 C    3.988 --     9 C    1.000    37 H    0.984    36 H    0.983
                            35 H    0.982
    12   7 N    3.349 --    13 C    1.267     9 C    0.923    38 H    0.887
                            14 O    0.171
    13   6 C    3.913 --    14 O    1.551    12 N    1.267    15 C    1.004
    14   8 O    1.920 --    13 C    1.551    12 N    0.171
    15   6 C    3.876 --    16 N    1.617    20 O    1.046    13 C    1.004
    16   7 N    3.004 --    15 C    1.617    17 N    1.205
    17   7 N    2.982 --    18 C    1.604    16 N    1.205
    18   6 C    3.866 --    17 N    1.604    20 O    1.073    19 C    1.033
    19   6 C    3.985 --    18 C    1.033    40 H    0.982    41 H    0.963
                            39 H    0.961
    20   8 O    2.317 --    18 C    1.073    15 C    1.046
    21   7 N    3.485 --     8 C    1.188    22 C    1.163    42 H    0.822
                            23 O    0.141
    22   6 C    3.917 --    23 O    1.600    21 N    1.163    24 C    1.032
    23   8 O    1.928 --    22 C    1.600    21 N    0.141
    24   6 C    3.912 --     6 C    1.460    25 O    1.142    22 C    1.032
    25   8 O    2.124 --    24 C    1.142    43 H    0.779
    26   1 H    0.999 --     1 C    0.980
    27   1 H    1.000 --     1 C    0.974
    28   1 H    1.007 --     1 C    0.964
    29   1 H    0.998 --     5 C    0.972
    30   1 H    0.997 --     5 C    0.972
    31   1 H    1.002 --     5 C    0.981
    32   1 H    0.999 --    10 C    0.984
    33   1 H    1.007 --    10 C    0.979
    34   1 H    0.997 --    10 C    0.982
    35   1 H    1.006 --    11 C    0.982
    36   1 H    1.002 --    11 C    0.983
    37   1 H    0.997 --    11 C    0.984
    38   1 H    0.932 --    12 N    0.887
    39   1 H    0.996 --    19 C    0.961
    40   1 H    0.998 --    19 C    0.982
    41   1 H    0.996 --    19 C    0.963
    42   1 H    0.916 --    21 N    0.822
    43   1 H    0.822 --    25 O    0.779
 ---------------------------------------------------------------------------

           -------------------------------------------------
          | TOTAL ENERGY              -83.164499819361 Eh   |
          | GRADIENT NORM               0.000460481625 Eh/α |
          | HOMO-LUMO GAP               2.171581610858 eV   |
           -------------------------------------------------

 * finished run on 2023/06/20 at 15:21:10.582
