   * xtb version 6.5.1 (579679a) compiled by 'ehlert@majestix' on 2022-07-11
          program call               : /lustre/hpc/kemi/ree/PhD/git/ReactivityQM/dep/xtb-6.5.1/bin/xtb --gfn 1 /lustre/hpc/kemi/ree/PhD/git/ReactivityQM/calculations/R02methylcation/reac01prodE14/conf11/R02methylcation_reac01prodE14_conf11_gfn1.xyz --opt --vfukui --chrg -2 --uhf 0 --alpb DMSO

   ID    Z sym.   atoms
    1    6 C      1, 3, 5, 7-10, 12, 14, 17, 18, 21, 23, 24
    2    8 O      2, 4, 13, 19, 22, 25
    3    7 N      6, 11, 15, 16, 20
    4    1 H      26-42

      * Solvation model:               ALPB
        Solvent                        DMSO
        Solvent mass                       7.8130E+01 g/mol
          :  Hamiltonian                  GFN1-xTB          :
 * total energy  :   -83.5823425 Eh     change       -0.1223555E-09 Eh
 * total energy  :   -83.5983198 Eh     change       -0.1597734E-01 Eh
 * total energy  :   -83.6052198 Eh     change       -0.6899996E-02 Eh
 * total energy  :   -83.6067309 Eh     change       -0.1511063E-02 Eh
 * total energy  :   -83.6075080 Eh     change       -0.7771223E-03 Eh
 * total energy  :   -83.6078423 Eh     change       -0.3342517E-03 Eh
 * total energy  :   -83.6080993 Eh     change       -0.2569836E-03 Eh
 * total energy  :   -83.6083083 Eh     change       -0.2090408E-03 Eh
 * total energy  :   -83.6084755 Eh     change       -0.1672009E-03 Eh
 * total energy  :   -83.6085949 Eh     change       -0.1194551E-03 Eh
 * total energy  :   -83.6100878 Eh     change       -0.2479267E-04 Eh
 * total energy  :   -83.6101130 Eh     change       -0.2518862E-04 Eh
 * total energy  :   -83.6101266 Eh     change       -0.1361607E-04 Eh
 * total energy  :   -83.6101458 Eh     change       -0.1919520E-04 Eh
 * total energy  :   -83.6101526 Eh     change       -0.6828928E-05 Eh
 * total energy  :   -83.6101663 Eh     change       -0.1369221E-04 Eh
 * total energy  :   -83.6101715 Eh     change       -0.5150110E-05 Eh
 * total energy  :   -83.6101791 Eh     change       -0.7668673E-05 Eh
 * total energy  :   -83.6101834 Eh     change       -0.4298708E-05 Eh
   *** GEOMETRY OPTIMIZATION CONVERGED AFTER 50 ITERATIONS ***

 final structure:
================
42
 xtb: 6.5.1 (579679a)
C           -5.54090732073731        1.92725171761745       -1.17578460103800
O           -4.56898419284836        1.51780784206998       -0.23954240713649
C           -3.55409883734586        0.69627150165200       -0.75720258938131
O           -3.60347577860337        0.41367756162578       -1.97391903838027
C           -2.56272057038854        0.30022165236532        0.15903780909737
N           -1.63850472291852       -0.55827407514429       -0.38561187935349
C           -0.62400024448627       -0.99156095825480        0.27408980538879
C            0.34449377055236       -1.96311968630713       -0.37074364857112
C            0.68250397781128       -3.14602683815956        0.54232860973895
C           -0.25605305121433       -2.48201257913235       -1.68067106573423
N            1.57399934642718       -1.22646416024035       -0.74682359033690
C            2.59589068164754       -0.88459021625182        0.06064117894955
O            2.74678500356056       -1.23189113623635        1.23016694040108
C            3.55234475546036       -0.00552298924538       -0.64641188520757
N            3.40044875431864        0.49267299173509       -1.84435695331272
N            4.51097086792644        1.24705117290689       -2.09952937041770
C            5.26672907558510        1.16138573884297       -1.05033683639932
C            6.58411486724816        1.80139011610573       -0.83515646492719
O            4.72228809155522        0.39008223081066       -0.09384498767033
N           -0.29263409504645       -0.48882112384177        1.54433357892074
C           -1.04337370985434        0.49416468029127        2.12572542319316
O           -0.54335346269652        1.17496119395623        3.03104210043943
C           -2.55546080926708        0.52419667360395        1.70575851326332
C           -3.06732930166163        1.96254008178632        2.06355506155940
O           -3.17503529967755       -0.44348001785678        2.40081800395616
H           -6.25962502375802        2.55775112714117       -0.64975681278539
H           -6.06879803794387        1.06864471582558       -1.61055069552610
H           -5.09204718783336        2.50321116537767       -1.99506225635298
H           -0.20108580412115       -3.77505564282527        0.64901189517221
H            0.99352143080245       -2.81516878248085        1.53100578481102
H            1.48343905190127       -3.74002014143110        0.10491805223408
H            0.45151509648878       -3.13577647304389       -2.18732533479871
H           -0.50901674754443       -1.64797242852205       -2.33592192558535
H           -1.16799788577130       -3.03972568342211       -1.47021333585969
H            1.59205638495307       -0.84721020717523       -1.68222485724997
H            6.91024594380119        2.28088696647925       -1.75451313447311
H            7.31722779393269        1.05531443463985       -0.53239856312931
H            6.51616413027737        2.54882769577802       -0.04438269032082
H            0.65724675543159       -0.59892853295485        1.86811940486428
H           -4.15537931071162        1.96948329289708        2.07982230896979
H           -2.70723740462191        2.70770952129358        1.35283133881182
H           -2.71486798062703        2.22611559772850        3.06254911416869

          :  Hamiltonian                  GFN1-xTB          :
         :: total energy             -83.610183429982 Eh    ::
         :: gradient norm              0.000623219332 Eh/a0 ::
         :: HOMO-LUMO gap              0.251666911468 eV    ::
         :: SCC energy               -84.343591758868 Eh    ::
         :: -> Gsolv                  -0.303699360045 Eh    ::
         :: repulsion energy           0.759328959145 Eh    ::

    * Orbital Energies and Occupations

         #    Occupation            Energy/Eh            Energy/eV
      -------------------------------------------------------------
         1        2.0000           -0.8442131             -22.9722
       ...           ...                  ...                  ...
        56        2.0000           -0.4402242             -11.9791
        57        2.0000           -0.4366970             -11.8831
        58        2.0000           -0.4301253             -11.7043
        59        2.0000           -0.4278241             -11.6417
        60        2.0000           -0.4210819             -11.4582
        61        2.0000           -0.4142381             -11.2720
        62        2.0000           -0.3992908             -10.8653
        63        2.0000           -0.3912617             -10.6468
        64        2.0000           -0.3851996             -10.4818
        65        2.0000           -0.3702097             -10.0739
        66        2.0000           -0.3071274              -8.3574
        67        1.9944           -0.2992938              -8.1442
        68        1.9873           -0.2985079              -8.1228 (HOMO)
        69        0.0183           -0.2892594              -7.8711 (LUMO)
        70                         -0.2415406              -6.5727
        71                         -0.2130004              -5.7960
        72                         -0.1767553              -4.8098
        73                         -0.1692186              -4.6047
        74                         -0.1361662              -3.7053
        75                         -0.1160248              -3.1572
        76                         -0.1068898              -2.9086
        77                         -0.1054724              -2.8701
        78                         -0.1034170              -2.8141
        79                         -0.0753058              -2.0492
       ...                                ...                  ...
       134                          0.7248231              19.7234
      -------------------------------------------------------------
                  HL-Gap            0.0092486 Eh            0.2517 eV

Wiberg/Mayer (AO) data.
largest (>0.10) Wiberg bond orders for each atom

     #   Z sym  total        # sym  WBO       # sym  WBO       # sym  WBO
 ---------------------------------------------------------------------------
     1   6 C    3.921 --    26 H    0.987    27 H    0.980    28 H    0.980
                             2 O    0.951
     2   8 O    2.085 --     1 C    0.951     3 C    0.937
     3   6 C    3.838 --     4 O    1.451     5 C    1.315     2 O    0.937
     4   8 O    1.740 --     3 C    1.451     5 C    0.101
     5   6 C    3.803 --     3 C    1.315     6 N    1.201    23 C    0.918
                             4 O    0.101
     6   7 N    3.051 --     7 C    1.597     5 C    1.201
     7   6 C    3.906 --     6 N    1.597    20 N    1.019     8 C    0.969
     8   6 C    3.924 --    10 C    1.001     9 C    0.995     7 C    0.969
                            11 N    0.894
     9   6 C    3.992 --     8 C    0.995    31 H    0.986    29 H    0.986
                            30 H    0.980
    10   6 C    3.996 --     8 C    1.001    32 H    0.988    34 H    0.984
                            33 H    0.982
    11   7 N    3.344 --    12 C    1.260    35 H    0.904     8 C    0.894
                            13 O    0.174
    12   6 C    3.891 --    13 O    1.529    11 N    1.260    14 C    1.008
    13   8 O    1.852 --    12 C    1.529    11 N    0.174
    14   6 C    3.833 --    15 N    1.571    19 O    1.045    12 C    1.008
    15   7 N    2.959 --    14 C    1.571    16 N    1.187
    16   7 N    2.979 --    17 C    1.619    15 N    1.187
    17   6 C    3.862 --    16 N    1.619    19 O    1.075    18 C    1.029
    18   6 C    3.989 --    17 C    1.029    36 H    0.983    37 H    0.969
                            38 H    0.964
    19   8 O    2.295 --    17 C    1.075    14 C    1.045
    20   7 N    3.366 --    21 C    1.182     7 C    1.019    39 H    0.903
                            22 O    0.117
    21   6 C    3.817 --    22 O    1.556    20 N    1.182    23 C    0.879
    22   8 O    1.826 --    21 C    1.556    20 N    0.117
    23   6 C    3.964 --    25 O    1.123    24 C    0.946     5 C    0.918
                            21 C    0.879
    24   6 C    3.989 --    41 H    0.990    40 H    0.987    42 H    0.985
                            23 C    0.946
    25   8 O    1.415 --    23 C    1.123
    26   1 H    1.020 --     1 C    0.987
    27   1 H    1.022 --     1 C    0.980
    28   1 H    1.022 --     1 C    0.980
    29   1 H    1.007 --     9 C    0.986
    30   1 H    1.019 --     9 C    0.980
    31   1 H    1.004 --     9 C    0.986
    32   1 H    1.004 --    10 C    0.988
    33   1 H    1.021 --    10 C    0.982
    34   1 H    1.013 --    10 C    0.984
    35   1 H    0.964 --    11 N    0.904
    36   1 H    1.000 --    18 C    0.983
    37   1 H    0.998 --    18 C    0.969
    38   1 H    0.998 --    18 C    0.964
    39   1 H    0.971 --    20 N    0.903
    40   1 H    1.034 --    24 C    0.987
    41   1 H    1.017 --    24 C    0.990
    42   1 H    1.027 --    24 C    0.985
 ---------------------------------------------------------------------------

           -------------------------------------------------
          | TOTAL ENERGY              -83.610183429982 Eh   |
          | GRADIENT NORM               0.000623219332 Eh/α |
          | HOMO-LUMO GAP               0.251666911468 eV   |
           -------------------------------------------------

 * finished run on 2023/06/21 at 17:28:33.597
