   * xtb version 6.5.1 (579679a) compiled by 'ehlert@majestix' on 2022-07-11
          program call               : /lustre/hpc/kemi/ree/PhD/git/ReactivityQM/dep/xtb-6.5.1/bin/xtb --gfn 1 /lustre/hpc/kemi/ree/PhD/git/ReactivityQM/calculations/R02/reac01prodN06/conf11/R02_reac01prodN06_conf11_gfn1.xyz --opt --vfukui --chrg 1 --uhf 0 --alpb DMSO

   ID    Z sym.   atoms
    1    6 C      1, 3, 5, 7-10, 12, 14, 16, 17, 20, 22, 24
    2    8 O      2, 4, 13, 15, 23, 25
    3    7 N      6, 11, 18, 19, 21
    4    1 H      26-43

      * Solvation model:               ALPB
        Solvent                        DMSO
        Solvent mass                       7.8130E+01 g/mol
          :  Hamiltonian                  GFN1-xTB          :
 * total energy  :   -83.1550395 Eh     change       -0.4180833E-10 Eh
 * total energy  :   -83.1744062 Eh     change       -0.1936674E-01 Eh
 * total energy  :   -83.1819332 Eh     change       -0.7526919E-02 Eh
 * total energy  :   -83.1837076 Eh     change       -0.1774468E-02 Eh
 * total energy  :   -83.1852232 Eh     change       -0.1515566E-02 Eh
 * total energy  :   -83.1860567 Eh     change       -0.8335481E-03 Eh
 * total energy  :   -83.1867804 Eh     change       -0.7236292E-03 Eh
 * total energy  :   -83.1872259 Eh     change       -0.4455057E-03 Eh
 * total energy  :   -83.1874242 Eh     change       -0.1983234E-03 Eh
 * total energy  :   -83.1875046 Eh     change       -0.8043620E-04 Eh
 * total energy  :   -83.1892130 Eh     change       -0.2002281E-04 Eh
 * total energy  :   -83.1892606 Eh     change       -0.4763026E-04 Eh
 * total energy  :   -83.1892873 Eh     change       -0.2663413E-04 Eh
 * total energy  :   -83.1893012 Eh     change       -0.1396284E-04 Eh
 * total energy  :   -83.1893308 Eh     change       -0.2958925E-04 Eh
 * total energy  :   -83.1893467 Eh     change       -0.1588949E-04 Eh
 * total energy  :   -83.1893580 Eh     change       -0.1131308E-04 Eh
 * total energy  :   -83.1893685 Eh     change       -0.1044184E-04 Eh
 * total energy  :   -83.1893732 Eh     change       -0.4715759E-05 Eh
   *** GEOMETRY OPTIMIZATION CONVERGED AFTER 45 ITERATIONS ***

 final structure:
================
43
 xtb: 6.5.1 (579679a)
C            6.50179799828545        1.74061807196448       -0.05970270976075
O            5.31478765620585        1.17471501694662        0.50564786790574
C            4.38538183730066        0.76296702431492       -0.35152532484289
O            4.50817574537105        0.83727482003294       -1.55278500913567
C            3.17263393931442        0.19903855620728        0.31547889645275
N            2.22670228724739       -0.26448219085209       -0.57094314347081
C            1.12835240524167       -0.76537213035672       -0.13196597134839
C            0.10122498685809       -1.31756821522051       -1.09616456956613
C            0.20156185978097       -2.84525513348468       -1.11929681101023
C            0.29577206491041       -0.72314997407106       -2.49238945325537
N           -1.24141044080839       -0.97320117285418       -0.59352959297851
C           -1.58164975415007        0.28550960780346       -0.30509120786143
O           -0.86640259183589        1.26568387593408       -0.35292027877071
C           -3.00931787525357        0.40759423529593        0.14533854704439
O           -3.82693587081412       -0.62518868011165        0.27178986115536
C           -4.99735102541431       -0.12381323579147        0.70446727762400
C           -6.14479382838344       -1.00839877861041        0.96059894245098
N           -4.92522210481394        1.16854352586103        0.84333947624717
N           -3.66915803354557        1.48917870773234        0.48748213359819
C           -3.23971656492661        2.87171204799238        0.54540475029184
N            0.85416503467227       -0.88621024738450        1.20216265984377
C            1.70784465742972       -0.43810114271926        2.17999626931811
O            1.45013914132893       -0.51693054159170        3.37109294141866
C            2.95086842241169        0.13584563710183        1.66450380973232
O            3.80496024844517        0.57379127671204        2.59408565131918
H            6.97219186661301        1.02596367108967       -0.73950434853552
H            6.25533641632323        2.65337133167361       -0.60742799269770
H            7.16558498149893        1.96633530310405        0.77259779045517
H            0.04547877116226       -3.24645523488767       -0.11982569806110
H           -0.55161328706389       -3.25571320805202       -1.78901369062903
H            1.18909161251821       -3.14137373094734       -1.47089350575443
H            1.29182877222293       -0.97891619014728       -2.85172560366621
H           -0.45056209649928       -1.12800601742670       -3.17223974043308
H            0.20171983745822        0.36097133454465       -2.45581134895913
H           -1.93706721790408       -1.69789436002690       -0.55006997997115
H           -6.36117807668906       -1.59467570546192        0.06749349635097
H           -7.01346090635778       -0.41820081714126        1.24183673162513
H           -5.89496073388077       -1.70540873542426        1.76174480421816
H           -4.09922281861536        3.50048068713684        0.32567706195900
H           -2.87386085588311        3.07718583093386        1.55146483888644
H           -2.44184696463129        3.02221088932671       -0.17832136400134
H           -0.01793439335449       -1.29048689287121        1.50038450873742
H            3.41806489820051        0.42581388374372        3.47641102807471

          :  Hamiltonian                  GFN1-xTB          :
         :: total energy             -83.189373192062 Eh    ::
         :: gradient norm              0.000511481599 Eh/a0 ::
         :: HOMO-LUMO gap              1.681837888456 eV    ::
         :: SCC energy               -84.000940848909 Eh    ::
         :: -> Gsolv                  -0.127235474883 Eh    ::
         :: repulsion energy           0.837694577092 Eh    ::

    * Orbital Energies and Occupations

         #    Occupation            Energy/Eh            Energy/eV
      -------------------------------------------------------------
         1        2.0000           -0.9389324             -25.5497
       ...           ...                  ...                  ...
        55        2.0000           -0.5321414             -14.4803
        56        2.0000           -0.5238840             -14.2556
        57        2.0000           -0.5192134             -14.1285
        58        2.0000           -0.5171530             -14.0724
        59        2.0000           -0.5166111             -14.0577
        60        2.0000           -0.5048048             -13.7364
        61        2.0000           -0.5002500             -13.6125
        62        2.0000           -0.4954744             -13.4825
        63        2.0000           -0.4913399             -13.3700
        64        2.0000           -0.4903664             -13.3435
        65        2.0000           -0.4676870             -12.7264
        66        2.0000           -0.4578676             -12.4592
        67        2.0000           -0.4396784             -11.9643 (HOMO)
        68                         -0.3778720             -10.2824 (LUMO)
        69                         -0.3307121              -8.9991
        70                         -0.3239945              -8.8163
        71                         -0.2924200              -7.9572
        72                         -0.2583499              -7.0301
        73                         -0.2462521              -6.7009
        74                         -0.1718606              -4.6766
        75                         -0.1661990              -4.5225
        76                         -0.1655736              -4.5055
        77                         -0.1466674              -3.9910
        78                         -0.1401811              -3.8145
       ...                                ...                  ...
       136                          0.7276474              19.8003
      -------------------------------------------------------------
                  HL-Gap            0.0618064 Eh            1.6818 eV

Wiberg/Mayer (AO) data.
largest (>0.10) Wiberg bond orders for each atom

     #   Z sym  total        # sym  WBO       # sym  WBO       # sym  WBO
 ---------------------------------------------------------------------------
     1   6 C    3.870 --    28 H    0.986    26 H    0.979    27 H    0.979
                             2 O    0.895
     2   8 O    2.207 --     3 C    1.120     1 C    0.895     4 O    0.136
     3   6 C    3.853 --     4 O    1.658     2 O    1.120     5 C    0.996
     4   8 O    1.920 --     3 C    1.658     2 O    0.136
     5   6 C    3.962 --    24 C    1.509     6 N    1.170     3 C    0.996
     6   7 N    3.030 --     7 C    1.608     5 C    1.170
     7   6 C    3.934 --     6 N    1.608    21 N    1.157     8 C    0.976
     8   6 C    3.916 --    10 C    0.988     9 C    0.984     7 C    0.976
                            11 N    0.903
     9   6 C    3.986 --     8 C    0.984    29 H    0.983    31 H    0.981
                            30 H    0.981
    10   6 C    3.984 --     8 C    0.988    33 H    0.985    34 H    0.981
                            32 H    0.981
    11   7 N    3.392 --    12 C    1.305     8 C    0.903    35 H    0.882
                            13 O    0.200
    12   6 C    3.929 --    13 O    1.591    11 N    1.305    14 C    0.957
    13   8 O    1.936 --    12 C    1.591    11 N    0.200
    14   6 C    3.843 --    19 N    1.456    15 O    1.127    12 C    0.957
    15   8 O    2.371 --    14 C    1.127    16 C    1.068
    16   6 C    3.837 --    18 N    1.571    15 O    1.068    17 C    1.044
    17   6 C    3.969 --    16 C    1.044    37 H    0.977    36 H    0.950
                            38 H    0.946
    18   7 N    2.965 --    16 C    1.571    19 N    1.159
    19   7 N    3.662 --    14 C    1.456    18 N    1.159    20 C    0.909
    20   6 C    3.878 --    39 H    0.974    41 H    0.971    40 H    0.958
                            19 N    0.909
    21   7 N    3.463 --     7 C    1.157    22 C    1.138    42 H    0.883
                            23 O    0.135
    22   6 C    3.909 --    23 O    1.581    21 N    1.138    24 C    1.059
    23   8 O    1.904 --    22 C    1.581    21 N    0.135
    24   6 C    3.920 --     5 C    1.509    25 O    1.112    22 C    1.059
    25   8 O    2.090 --    24 C    1.112    43 H    0.805
    26   1 H    1.007 --     1 C    0.979
    27   1 H    1.006 --     1 C    0.979
    28   1 H    1.010 --     1 C    0.986
    29   1 H    0.996 --     9 C    0.983
    30   1 H    0.994 --     9 C    0.981
    31   1 H    0.998 --     9 C    0.981
    32   1 H    1.007 --    10 C    0.981
    33   1 H    0.999 --    10 C    0.985
    34   1 H    1.006 --    10 C    0.981
    35   1 H    0.919 --    11 N    0.882
    36   1 H    0.988 --    17 C    0.950
    37   1 H    0.990 --    17 C    0.977
    38   1 H    0.988 --    17 C    0.946
    39   1 H    0.992 --    20 C    0.974
    40   1 H    0.990 --    20 C    0.958
    41   1 H    1.003 --    20 C    0.971
    42   1 H    0.927 --    21 N    0.883
    43   1 H    0.844 --    25 O    0.805
 ---------------------------------------------------------------------------

           -------------------------------------------------
          | TOTAL ENERGY              -83.189373192062 Eh   |
          | GRADIENT NORM               0.000511481599 Eh/α |
          | HOMO-LUMO GAP               1.681837888456 eV   |
           -------------------------------------------------

 * finished run on 2023/06/20 at 15:25:13.646
