   * xtb version 6.5.1 (579679a) compiled by 'ehlert@majestix' on 2022-07-11
          program call               : /lustre/hpc/kemi/ree/PhD/git/ReactivityQM/dep/xtb-6.5.1/bin/xtb --gfn 1 /lustre/hpc/kemi/ree/PhD/git/ReactivityQM/calculations/R02methylcation/reac01prodN04/conf10/R02methylcation_reac01prodN04_conf10_gfn1.xyz --opt --vfukui --chrg 0 --uhf 0 --alpb DMSO

   ID    Z sym.   atoms
    1    6 C      1, 3, 5, 6, 8-11, 13, 15, 18, 19, 22, 24
    2    8 O      2, 4, 14, 20, 23, 25
    3    7 N      7, 12, 16, 17, 21
    4    1 H      26-42

      * Solvation model:               ALPB
        Solvent                        DMSO
        Solvent mass                       7.8130E+01 g/mol
          :  Hamiltonian                  GFN1-xTB          :
 * total energy  :   -82.9678973 Eh     change       -0.8427037E-11 Eh
 * total energy  :   -82.9849738 Eh     change       -0.1707648E-01 Eh
 * total energy  :   -82.9908518 Eh     change       -0.5877980E-02 Eh
 * total energy  :   -82.9921629 Eh     change       -0.1311145E-02 Eh
 * total energy  :   -82.9926932 Eh     change       -0.5302927E-03 Eh
 * total energy  :   -82.9928765 Eh     change       -0.1833306E-03 Eh
 * total energy  :   -82.9930075 Eh     change       -0.1309164E-03 Eh
 * total energy  :   -82.9931060 Eh     change       -0.9849527E-04 Eh
 * total energy  :   -82.9931809 Eh     change       -0.7494619E-04 Eh
 * total energy  :   -82.9932349 Eh     change       -0.5401706E-04 Eh
 * total energy  :   -82.9935539 Eh     change       -0.1535703E-04 Eh
 * total energy  :   -82.9935630 Eh     change       -0.9171542E-05 Eh
 * total energy  :   -82.9935711 Eh     change       -0.8055266E-05 Eh
 * total energy  :   -82.9935839 Eh     change       -0.1280963E-04 Eh
 * total energy  :   -82.9935976 Eh     change       -0.1370524E-04 Eh
 * total energy  :   -82.9936101 Eh     change       -0.1247848E-04 Eh
 * total energy  :   -82.9936185 Eh     change       -0.8424468E-05 Eh
 * total energy  :   -82.9936240 Eh     change       -0.5465768E-05 Eh
 * total energy  :   -82.9936283 Eh     change       -0.4371942E-05 Eh
   *** GEOMETRY OPTIMIZATION CONVERGED AFTER 29 ITERATIONS ***

 final structure:
================
42
 xtb: 6.5.1 (579679a)
C           -6.41026603559056        0.12845436045911        0.71933587107436
O           -5.07888447344156        0.45856208717766        1.12117512558981
C           -4.08104301981678        0.25077519157916        0.28828889979151
O           -4.45857395873812       -0.27671236198639       -0.86299028476356
C           -3.59137315122136       -0.62471102691254       -1.94097773210915
C           -2.78600120602038        0.60336800161896        0.68236453969540
N           -1.75714141256383        0.39166178105226       -0.23258454102069
C           -0.55595624200158        0.72488168774227        0.05166221658069
C            0.56538974401467        0.55872900609071       -0.95237524120599
C            0.17845844229746       -0.43162597979529       -2.05248532520680
C            0.87880604136518        1.94194862015778       -1.54305488724086
N            1.72822466450357        0.04648844969292       -0.21713928210342
C            2.93862572005236       -0.14911305269256       -0.78874108913217
O            3.25787441376053        0.18480633636253       -1.91448139314225
C            3.86376315652742       -0.82065134142039        0.16022652944500
N            3.56577928583110       -1.25096368169815        1.34928838008047
N            4.70190286361096       -1.79818679401707        1.86498374248384
C            5.62062738300503       -1.66748037428304        0.95607666868840
C            7.03375415110728       -2.09910250454864        1.03044330084178
O            5.15224663153613       -1.05947747724598       -0.14344984296551
N           -0.20966441282161        1.31230666538317        1.24894468702081
C           -1.09228831308548        1.56696284975386        2.26517687155597
O           -0.71900255066415        2.07976599439461        3.30384375051598
C           -2.53519564473536        1.17393025755130        1.98610031399561
O           -3.37942262597921        1.36347896680491        2.85413507726174
H           -6.69236437362494        0.70541323135425       -0.16356407303562
H           -6.48537499563878       -0.93772659359055        0.49724581379816
H           -7.05206297491010        0.38601420536843        1.56007057858541
H           -2.85748647342606       -1.36538116324701       -1.62026565094031
H           -4.23670178883734       -1.04522549154703       -2.71251996238059
H           -3.07821643333767        0.25933087393371       -2.32217931058211
H           -0.07016471747029       -1.39772339030678       -1.61666897103731
H            1.00636615021567       -0.55352421796122       -2.74866098628893
H           -0.68581526175629       -0.05324212741751       -2.59417133039957
H            1.64681811704415        1.86266951374910       -2.30930329493725
H           -0.02602305576320        2.35046364603401       -1.98995086580712
H            1.22360615563099        2.61418577685104       -0.75943381416129
H            1.56172950042086       -0.40635036547058        0.66980800392168
H            7.20752746928366       -2.62384947636866        1.96663446777853
H            7.26654083216838       -2.75532267872894        0.19227633009733
H            7.69138719735668       -1.23154622009998        0.97192498708870
H            0.74959620171252        1.58371981622668        1.40268972257161

          :  Hamiltonian                  GFN1-xTB          :
         :: total energy             -82.993628336738 Eh    ::
         :: gradient norm              0.000469731120 Eh/a0 ::
         :: HOMO-LUMO gap              2.390278427959 eV    ::
         :: SCC energy               -83.773307348550 Eh    ::
         :: -> Gsolv                  -0.060758693352 Eh    ::
         :: repulsion energy           0.805504279887 Eh    ::

    * Orbital Energies and Occupations

         #    Occupation            Energy/Eh            Energy/eV
      -------------------------------------------------------------
         1        2.0000           -0.8634749             -23.4963
       ...           ...                  ...                  ...
        55        2.0000           -0.5057054             -13.7609
        56        2.0000           -0.5047986             -13.7363
        57        2.0000           -0.5007358             -13.6257
        58        2.0000           -0.4958306             -13.4922
        59        2.0000           -0.4825119             -13.1298
        60        2.0000           -0.4789312             -13.0324
        61        2.0000           -0.4658844             -12.6774
        62        2.0000           -0.4611448             -12.5484
        63        2.0000           -0.4537324             -12.3467
        64        2.0000           -0.4508536             -12.2684
        65        2.0000           -0.4474401             -12.1755
        66        2.0000           -0.4210129             -11.4563
        67        2.0000           -0.4150427             -11.2939 (HOMO)
        68                         -0.3272016              -8.9036 (LUMO)
        69                         -0.3111604              -8.4671
        70                         -0.2747414              -7.4761
        71                         -0.2566996              -6.9852
        72                         -0.2481905              -6.7536
        73                         -0.1993825              -5.4255
        74                         -0.1560063              -4.2451
        75                         -0.1522913              -4.1441
        76                         -0.1430966              -3.8939
        77                         -0.1417493              -3.8572
        78                         -0.1251369              -3.4051
       ...                                ...                  ...
       134                          0.7553065              20.5529
      -------------------------------------------------------------
                  HL-Gap            0.0878411 Eh            2.3903 eV

Wiberg/Mayer (AO) data.
largest (>0.10) Wiberg bond orders for each atom

     #   Z sym  total        # sym  WBO       # sym  WBO       # sym  WBO
 ---------------------------------------------------------------------------
     1   6 C    3.861 --    28 H    0.984    26 H    0.978    27 H    0.978
                             2 O    0.888
     2   8 O    2.239 --     3 C    1.154     1 C    0.888
     3   6 C    3.833 --     6 C    1.333     2 O    1.154     4 O    1.133
     4   8 O    2.224 --     3 C    1.133     5 C    0.882
     5   6 C    3.853 --    30 H    0.981    29 H    0.977    31 H    0.975
                             4 O    0.882
     6   6 C    3.922 --     3 C    1.333    24 C    1.164     7 N    1.107
     7   7 N    3.044 --     8 C    1.655     6 C    1.107
     8   6 C    3.932 --     7 N    1.655    21 N    1.104     9 C    0.980
     9   6 C    3.934 --    10 C    0.992     8 C    0.980    11 C    0.978
                            12 N    0.921
    10   6 C    3.990 --     9 C    0.992    32 H    0.985    34 H    0.982
                            33 H    0.981
    11   6 C    3.986 --    36 H    0.985    37 H    0.984     9 C    0.978
                            35 H    0.977
    12   7 N    3.331 --    13 C    1.241     9 C    0.921    38 H    0.894
                            14 O    0.174
    13   6 C    3.916 --    14 O    1.602    12 N    1.241    15 C    0.989
    14   8 O    1.918 --    13 C    1.602    12 N    0.174
    15   6 C    3.875 --    16 N    1.610    20 O    1.064    13 C    0.989
    16   7 N    3.017 --    15 C    1.610    17 N    1.200
    17   7 N    2.981 --    18 C    1.604    16 N    1.200
    18   6 C    3.871 --    17 N    1.604    20 O    1.083    19 C    1.031
    19   6 C    3.986 --    18 C    1.031    39 H    0.983    40 H    0.965
                            41 H    0.962
    20   8 O    2.331 --    18 C    1.083    15 C    1.064
    21   7 N    3.435 --    22 C    1.159     8 C    1.104    42 H    0.886
                            23 O    0.138
    22   6 C    3.882 --    23 O    1.637    21 N    1.159    24 C    0.940
    23   8 O    1.915 --    22 C    1.637    21 N    0.138
    24   6 C    3.920 --    25 O    1.633     6 C    1.164    22 C    0.940
    25   8 O    1.919 --    24 C    1.633
    26   1 H    1.005 --     1 C    0.978
    27   1 H    1.005 --     1 C    0.978
    28   1 H    1.008 --     1 C    0.984
    29   1 H    1.019 --     5 C    0.977
    30   1 H    1.008 --     5 C    0.981
    31   1 H    1.020 --     5 C    0.975
    32   1 H    1.004 --    10 C    0.985
    33   1 H    1.005 --    10 C    0.981
    34   1 H    1.007 --    10 C    0.982
    35   1 H    1.010 --    11 C    0.977
    36   1 H    1.002 --    11 C    0.985
    37   1 H    1.001 --    11 C    0.984
    38   1 H    0.952 --    12 N    0.894
    39   1 H    0.998 --    19 C    0.983
    40   1 H    0.997 --    19 C    0.965
    41   1 H    0.997 --    19 C    0.962
    42   1 H    0.934 --    21 N    0.886
 ---------------------------------------------------------------------------

           -------------------------------------------------
          | TOTAL ENERGY              -82.993628336738 Eh   |
          | GRADIENT NORM               0.000469731120 Eh/α |
          | HOMO-LUMO GAP               2.390278427959 eV   |
           -------------------------------------------------

 * finished run on 2023/06/21 at 17:34:17.489
