   * xtb version 6.5.1 (579679a) compiled by 'ehlert@majestix' on 2022-07-11
          program call               : /lustre/hpc/kemi/ree/PhD/git/ReactivityQM/dep/xtb-6.5.1/bin/xtb --gfn 1 /lustre/hpc/kemi/ree/PhD/git/ReactivityQM/calculations/R02methylcation/reac01prodN08/conf09/R02methylcation_reac01prodN08_conf09_gfn1.xyz --opt --vfukui --chrg 0 --uhf 0 --alpb DMSO

   ID    Z sym.   atoms
    1    6 C      1, 3, 5, 7-10, 12, 14, 17, 18, 21, 23, 25
    2    8 O      2, 4, 13, 19, 22, 24
    3    7 N      6, 11, 15, 16, 20
    4    1 H      26-42

      * Solvation model:               ALPB
        Solvent                        DMSO
        Solvent mass                       7.8130E+01 g/mol
          :  Hamiltonian                  GFN1-xTB          :
 * total energy  :   -82.9945882 Eh     change       -0.1561773E-10 Eh
 * total energy  :   -83.0102126 Eh     change       -0.1562435E-01 Eh
 * total energy  :   -83.0155306 Eh     change       -0.5317959E-02 Eh
 * total energy  :   -83.0165916 Eh     change       -0.1061067E-02 Eh
 * total energy  :   -83.0170140 Eh     change       -0.4224034E-03 Eh
 * total energy  :   -83.0171574 Eh     change       -0.1433502E-03 Eh
 * total energy  :   -83.0172441 Eh     change       -0.8674657E-04 Eh
 * total energy  :   -83.0173032 Eh     change       -0.5910746E-04 Eh
 * total energy  :   -83.0173504 Eh     change       -0.4713168E-04 Eh
 * total energy  :   -83.0173976 Eh     change       -0.4727619E-04 Eh
 * total energy  :   -83.0174912 Eh     change       -0.2964717E-04 Eh
 * total energy  :   -83.0175146 Eh     change       -0.2339939E-04 Eh
 * total energy  :   -83.0175540 Eh     change       -0.3939598E-04 Eh
 * total energy  :   -83.0175793 Eh     change       -0.2535741E-04 Eh
 * total energy  :   -83.0175937 Eh     change       -0.1441446E-04 Eh
 * total energy  :   -83.0176085 Eh     change       -0.1475523E-04 Eh
 * total energy  :   -83.0176144 Eh     change       -0.5863401E-05 Eh
 * total energy  :   -83.0176218 Eh     change       -0.7447606E-05 Eh
 * total energy  :   -83.0176260 Eh     change       -0.4206632E-05 Eh
   *** GEOMETRY OPTIMIZATION CONVERGED AFTER 21 ITERATIONS ***

 final structure:
================
42
 xtb: 6.5.1 (579679a)
C           -5.85559134326971        2.41599169471329        0.63105935195908
O           -4.87208458666149        1.38143439314526        0.53637626344892
C           -3.70333468532078        1.72505859535229        0.00061799112456
O           -3.45887202028874        2.84762899219613       -0.38209030303821
C           -2.71479186522155        0.60653000529652       -0.09439200189767
N           -1.53244674164083        1.01374657163546       -0.65741185849605
C           -0.57558031776535        0.16855863757630       -0.81664425451379
C            0.71919229355181        0.58506157037012       -1.47907770347790
C            0.81975349159102        2.11224817165758       -1.52890730220407
C            0.75362216816340       -0.02107794328640       -2.89061210724132
N            1.81553187014110        0.03518127576024       -0.67362047601415
C            3.11955092031359        0.18023818342727       -1.00103279257258
O            3.54406853723750        0.69581282744861       -2.01830822614859
C            3.99069538542647       -0.38838540328554        0.05901764440699
N            3.59090555428534       -0.92653749877313        1.17225339930603
N            4.71044790148357       -1.29993093559598        1.85190193450570
C            5.72288920878375       -0.96402877646404        1.11005852265399
C            7.16016406897211       -1.15109966478257        1.40700894554313
O            5.33258215343573       -0.38352610279912       -0.03368624949444
N           -0.70653756181797       -1.13729804169725       -0.44640860260053
C           -1.83829624371321       -1.67393789375144        0.13119590224907
O           -1.86378151977915       -2.85861035014224        0.43158767490824
C           -2.91585186183791       -0.69501591542285        0.31183191065571
O           -4.08800632006791       -1.04134390010422        0.85929564481510
C           -4.39049098860097       -2.37034762730806        1.28545314055479
H           -6.13916382103606        2.75466210094524       -0.36849581224790
H           -5.46080454323746        3.26095448722233        1.20036140491486
H           -6.71396349083671        1.98385372182050        1.14096812318869
H            1.73362326929952        2.40779322187517       -2.04037201471411
H            0.82452528236778        2.51867321363505       -0.51863654612936
H           -0.03876124617670        2.51228386206125       -2.06636453754196
H            1.65157556311396        0.29902790300337       -3.41530203548491
H            0.74619069947079       -1.10751544221629       -2.82835861987056
H           -0.12079511652843        0.30973486240925       -3.44872341591514
H            1.60376538092758       -0.33919135782788        0.23867544608303
H            7.64080794695504       -1.69683335135944        0.59518568241692
H            7.65065075873483       -0.18142115818366        1.49874231051901
H            7.27165498559321       -1.70308345015375        2.33720156822340
H            0.05399050087362       -1.78292728096029       -0.59688315518520
H           -4.34508080490645       -3.07169839814038        0.44945364635245
H           -3.71228931350609       -2.69509820790403        2.07746348881245
H           -5.40966254851087       -2.32556759139180        1.67154201814992

          :  Hamiltonian                  GFN1-xTB          :
         :: total energy             -83.017626018350 Eh    ::
         :: gradient norm              0.000623467099 Eh/a0 ::
         :: HOMO-LUMO gap              2.771240307337 eV    ::
         :: SCC energy               -83.801367963675 Eh    ::
         :: -> Gsolv                  -0.052151273832 Eh    ::
         :: repulsion energy           0.808644588256 Eh    ::

    * Orbital Energies and Occupations

         #    Occupation            Energy/Eh            Energy/eV
      -------------------------------------------------------------
         1        2.0000           -0.8648570             -23.5340
       ...           ...                  ...                  ...
        55        2.0000           -0.5067799             -13.7902
        56        2.0000           -0.5025695             -13.6756
        57        2.0000           -0.4971432             -13.5280
        58        2.0000           -0.4872150             -13.2578
        59        2.0000           -0.4840609             -13.1720
        60        2.0000           -0.4826430             -13.1334
        61        2.0000           -0.4681186             -12.7382
        62        2.0000           -0.4629050             -12.5963
        63        2.0000           -0.4586342             -12.4801
        64        2.0000           -0.4533042             -12.3350
        65        2.0000           -0.4525151             -12.3136
        66        2.0000           -0.4491457             -12.2219
        67        2.0000           -0.4293657             -11.6836 (HOMO)
        68                         -0.3275245              -8.9124 (LUMO)
        69                         -0.3127104              -8.5093
        70                         -0.2867093              -7.8018
        71                         -0.2579222              -7.0184
        72                         -0.2427356              -6.6052
        73                         -0.2006189              -5.4591
        74                         -0.1635516              -4.4505
        75                         -0.1424926              -3.8774
        76                         -0.1383984              -3.7660
        77                         -0.1336373              -3.6365
        78                         -0.1307902              -3.5590
       ...                                ...                  ...
       134                          0.7257577              19.7489
      -------------------------------------------------------------
                  HL-Gap            0.1018412 Eh            2.7712 eV

Wiberg/Mayer (AO) data.
largest (>0.10) Wiberg bond orders for each atom

     #   Z sym  total        # sym  WBO       # sym  WBO       # sym  WBO
 ---------------------------------------------------------------------------
     1   6 C    3.871 --    28 H    0.986    27 H    0.979    26 H    0.979
                             2 O    0.896
     2   8 O    2.206 --     3 C    1.117     1 C    0.896     4 O    0.134
     3   6 C    3.852 --     4 O    1.654     2 O    1.117     5 C    1.000
     4   8 O    1.916 --     3 C    1.654     2 O    0.134
     5   6 C    3.962 --    23 C    1.483     6 N    1.184     3 C    1.000
     6   7 N    3.029 --     7 C    1.591     5 C    1.184
     7   6 C    3.930 --     6 N    1.591    20 N    1.165     8 C    0.981
     8   6 C    3.933 --     9 C    0.991     7 C    0.981    10 C    0.976
                            11 N    0.921
     9   6 C    3.989 --     8 C    0.991    30 H    0.985    31 H    0.983
                            29 H    0.982
    10   6 C    3.987 --    34 H    0.985    33 H    0.984    32 H    0.977
                             8 C    0.976
    11   7 N    3.333 --    12 C    1.242     8 C    0.921    35 H    0.894
                            13 O    0.175
    12   6 C    3.916 --    13 O    1.601    11 N    1.242    14 C    0.989
    13   8 O    1.917 --    12 C    1.601    11 N    0.175
    14   6 C    3.875 --    15 N    1.609    19 O    1.065    12 C    0.989
    15   7 N    3.018 --    14 C    1.609    16 N    1.201
    16   7 N    2.981 --    17 C    1.603    15 N    1.201
    17   6 C    3.870 --    16 N    1.603    19 O    1.084    18 C    1.031
    18   6 C    3.986 --    17 C    1.031    38 H    0.982    36 H    0.965
                            37 H    0.961
    19   8 O    2.332 --    17 C    1.084    14 C    1.065
    20   7 N    3.465 --     7 C    1.165    21 C    1.130    39 H    0.883
                            22 O    0.133
    21   6 C    3.909 --    22 O    1.577    20 N    1.130    23 C    1.066
    22   8 O    1.904 --    21 C    1.577    20 N    0.133
    23   6 C    3.918 --     5 C    1.483    24 O    1.099    21 C    1.066
    24   8 O    2.195 --    23 C    1.099    25 C    0.895
    25   6 C    3.870 --    42 H    0.984    40 H    0.979    41 H    0.979
                            24 O    0.895
    26   1 H    1.007 --     1 C    0.979
    27   1 H    1.008 --     1 C    0.979
    28   1 H    1.011 --     1 C    0.986
    29   1 H    1.007 --     9 C    0.982
    30   1 H    1.004 --     9 C    0.985
    31   1 H    1.009 --     9 C    0.983
    32   1 H    1.009 --    10 C    0.977
    33   1 H    1.001 --    10 C    0.984
    34   1 H    1.001 --    10 C    0.985
    35   1 H    0.951 --    11 N    0.894
    36   1 H    0.996 --    18 C    0.965
    37   1 H    0.997 --    18 C    0.961
    38   1 H    0.998 --    18 C    0.982
    39   1 H    0.929 --    20 N    0.883
    40   1 H    1.014 --    25 C    0.979
    41   1 H    1.014 --    25 C    0.979
    42   1 H    1.012 --    25 C    0.984
 ---------------------------------------------------------------------------

           -------------------------------------------------
          | TOTAL ENERGY              -83.017626018350 Eh   |
          | GRADIENT NORM               0.000623467099 Eh/α |
          | HOMO-LUMO GAP               2.771240307337 eV   |
           -------------------------------------------------

 * finished run on 2023/06/21 at 17:39:15.479
