   * xtb version 6.5.1 (579679a) compiled by 'ehlert@majestix' on 2022-07-11
          program call               : /lustre/hpc/kemi/ree/PhD/git/ReactivityQM/dep/xtb-6.5.1/bin/xtb --gfn 1 /lustre/hpc/kemi/ree/PhD/git/ReactivityQM/calculations/R03/reac01prodE04/conf03/R03_reac01prodE04_conf03_gfn1.xyz --opt --vfukui --chrg -1 --uhf 0 --alpb DMSO

   ID    Z sym.   atoms
    1    6 C      1, 2, 4-7, 9, 10
    2    9 F      3
    3    7 N      8
    4    1 H      11-21

      * Solvation model:               ALPB
        Solvent                        DMSO
        Solvent mass                       7.8130E+01 g/mol
          :  Hamiltonian                  GFN1-xTB          :
 * total energy  :   -31.4696658 Eh     change       -0.9858780E-11 Eh
 * total energy  :   -31.4757219 Eh     change       -0.6056065E-02 Eh
 * total energy  :   -31.4790746 Eh     change       -0.3352737E-02 Eh
 * total energy  :   -31.4809943 Eh     change       -0.1919752E-02 Eh
 * total energy  :   -31.4835149 Eh     change       -0.2520514E-02 Eh
 * total energy  :   -31.4892947 Eh     change       -0.5779816E-02 Eh
 * total energy  :   -31.4956631 Eh     change       -0.6368391E-02 Eh
 * total energy  :   -31.4991066 Eh     change       -0.3443481E-02 Eh
 * total energy  :   -31.5012274 Eh     change       -0.2120828E-02 Eh
 * total energy  :   -31.5033451 Eh     change       -0.2117747E-02 Eh
 * total energy  :   -31.5116945 Eh     change       -0.2673041E-04 Eh
 * total energy  :   -31.5117326 Eh     change       -0.3816235E-04 Eh
 * total energy  :   -31.5117689 Eh     change       -0.3628213E-04 Eh
 * total energy  :   -31.5117827 Eh     change       -0.1382224E-04 Eh
 * total energy  :   -31.5117994 Eh     change       -0.1671475E-04 Eh
 * total energy  :   -31.5118164 Eh     change       -0.1699937E-04 Eh
 * total energy  :   -31.5118271 Eh     change       -0.1064376E-04 Eh
 * total energy  :   -31.5118324 Eh     change       -0.5285549E-05 Eh
 * total energy  :   -31.5118349 Eh     change       -0.2502414E-05 Eh
   *** GEOMETRY OPTIMIZATION CONVERGED AFTER 82 ITERATIONS ***

 final structure:
================
21
 xtb: 6.5.1 (579679a)
C            2.99775716609001        0.19725600475071       -0.16002350272889
C            1.51012349407326        0.08314220495499       -0.00761780031934
F            4.45285768977832        0.14981849516038        2.52886707770042
C            0.72982103804071        1.21330192105091        0.23754949023423
C           -0.64435400257145        1.10860245560685        0.39277365409857
C           -1.27850855164758       -0.12961418890924        0.30839049476397
C           -2.78430657966799       -0.23378066909821        0.42199571754924
N           -3.43304049950087       -0.02927993594200       -0.87781891311355
C           -0.50172438859939       -1.25970622017605        0.06243703226773
C            0.87344052881064       -1.15473185395139       -0.08986497984864
H            3.26652576164710        1.13626352102601       -0.64471417089569
H            3.48139655712038        0.17553613370525        0.83018313901011
H            3.39368338121136       -0.63095573031442       -0.74788316479707
H            1.19848317761796        2.19076059694978        0.29864634336990
H           -1.23293603010671        2.00103329429331        0.57813978820658
H           -3.07306137971520       -1.22287641378992        0.79393045486979
H           -3.17045393999909        0.52132754720289        1.11563333061557
H           -3.08461793815854       -0.71737347368811       -1.53306782708739
H           -3.17926337894771        0.88315318596516       -1.23511352482475
H           -0.97706004921990       -2.23219041653130       -0.01362099382684
H            1.45523894373821       -2.04968745825918       -0.28760364525321

          :  Hamiltonian                  GFN1-xTB          :
         :: total energy             -31.511834869689 Eh    ::
         :: gradient norm              0.000302110966 Eh/a0 ::
         :: HOMO-LUMO gap              2.413179620235 eV    ::
         :: SCC energy               -31.914555641280 Eh    ::
         :: -> Gsolv                  -0.123918879040 Eh    ::
         :: repulsion energy           0.412422718474 Eh    ::

    * Orbital Energies and Occupations

         #    Occupation            Energy/Eh            Energy/eV
      -------------------------------------------------------------
         1        2.0000           -0.7390388             -20.1103
       ...           ...                  ...                  ...
        16        2.0000           -0.5039021             -13.7119
        17        2.0000           -0.4963893             -13.5074
        18        2.0000           -0.4857920             -13.2191
        19        2.0000           -0.4720747             -12.8458
        20        2.0000           -0.4708044             -12.8112
        21        2.0000           -0.4534419             -12.3388
        22        2.0000           -0.4453144             -12.1176
        23        2.0000           -0.4200805             -11.4310
        24        2.0000           -0.4080671             -11.1041
        25        2.0000           -0.3940713             -10.7232
        26        2.0000           -0.3311452              -9.0109
        27        2.0000           -0.3311430              -9.0109
        28        2.0000           -0.3306845              -8.9984 (HOMO)
        29                         -0.2420018              -6.5852 (LUMO)
        30                         -0.2392434              -6.5101
        31                         -0.1194631              -3.2508
        32                         -0.1024449              -2.7877
        33                         -0.0964806              -2.6254
        34                         -0.0956086              -2.6016
        35                         -0.0870655              -2.3692
        36                         -0.0814534              -2.2165
        37                         -0.0735204              -2.0006
        38                         -0.0511494              -1.3918
        39                         -0.0421587              -1.1472
       ...                                ...                  ...
        62                          0.6642181              18.0743
      -------------------------------------------------------------
                  HL-Gap            0.0886827 Eh            2.4132 eV

Wiberg/Mayer (AO) data.
largest (>0.10) Wiberg bond orders for each atom

     #   Z sym  total        # sym  WBO       # sym  WBO       # sym  WBO
 ---------------------------------------------------------------------------
     1   6 C    3.989 --     2 C    1.031    13 H    0.985    11 H    0.983
                            12 H    0.930
     2   6 C    3.987 --    10 C    1.407     4 C    1.403     1 C    1.031
                             6 C    0.105
     3   9 F    0.097
     4   6 C    3.995 --     5 C    1.454     2 C    1.403    14 H    0.974
                             9 C    0.107
     5   6 C    3.996 --     4 C    1.454     6 C    1.410    15 H    0.973
                            10 C    0.107
     6   6 C    3.987 --     9 C    1.413     5 C    1.410     7 C    0.997
                             2 C    0.105
     7   6 C    3.977 --     6 C    0.997     8 N    0.983    16 H    0.980
                            17 H    0.979
     8   7 N    2.952 --     7 C    0.983    18 H    0.951    19 H    0.951
     9   6 C    3.996 --    10 C    1.451     6 C    1.413    20 H    0.973
                             4 C    0.107
    10   6 C    3.995 --     9 C    1.451     2 C    1.407    21 H    0.973
                             5 C    0.107
    11   1 H    1.007 --     1 C    0.983
    12   1 H    1.039 --     1 C    0.930
    13   1 H    1.006 --     1 C    0.985
    14   1 H    1.003 --     4 C    0.974
    15   1 H    1.003 --     5 C    0.973
    16   1 H    1.012 --     7 C    0.980
    17   1 H    1.012 --     7 C    0.979
    18   1 H    0.966 --     8 N    0.951
    19   1 H    0.967 --     8 N    0.951
    20   1 H    1.003 --     9 C    0.973
    21   1 H    1.003 --    10 C    0.973
 ---------------------------------------------------------------------------

           -------------------------------------------------
          | TOTAL ENERGY              -31.511834869689 Eh   |
          | GRADIENT NORM               0.000302110966 Eh/α |
          | HOMO-LUMO GAP               2.413179620235 eV   |
           -------------------------------------------------

 * finished run on 2023/06/20 at 15:13:51.441
