   * xtb version 6.5.1 (579679a) compiled by 'ehlert@majestix' on 2022-07-11
          program call               : /lustre/hpc/kemi/ree/PhD/git/ReactivityQM/dep/xtb-6.5.1/bin/xtb --gfn 1 /lustre/hpc/kemi/ree/PhD/git/ReactivityQM/calculations/R02methylcation/reac01prodE12/conf08/R02methylcation_reac01prodE12_conf08_gfn1.xyz --opt --vfukui --chrg -2 --uhf 0 --alpb DMSO

   ID    Z sym.   atoms
    1    6 C      1, 3, 5, 6, 8, 9, 12-15, 17, 19, 22, 23
    2    8 O      2, 4, 7, 10, 18, 24
    3    7 N      11, 16, 20, 21, 25
    4    1 H      26-42

      * Solvation model:               ALPB
        Solvent                        DMSO
        Solvent mass                       7.8130E+01 g/mol
          :  Hamiltonian                  GFN1-xTB          :
 * total energy  :   -83.5994971 Eh     change       -0.3467449E-10 Eh
 * total energy  :   -83.6130036 Eh     change       -0.1350643E-01 Eh
 * total energy  :   -83.6187646 Eh     change       -0.5761003E-02 Eh
 * total energy  :   -83.6201639 Eh     change       -0.1399362E-02 Eh
 * total energy  :   -83.6216582 Eh     change       -0.1494314E-02 Eh
 * total energy  :   -83.6225331 Eh     change       -0.8748836E-03 Eh
 * total energy  :   -83.6233515 Eh     change       -0.8183715E-03 Eh
 * total energy  :   -83.6238527 Eh     change       -0.5012470E-03 Eh
 * total energy  :   -83.6240904 Eh     change       -0.2376881E-03 Eh
 * total energy  :   -83.6242542 Eh     change       -0.1637763E-03 Eh
 * total energy  :   -83.6250401 Eh     change       -0.2489305E-04 Eh
 * total energy  :   -83.6250517 Eh     change       -0.1160685E-04 Eh
 * total energy  :   -83.6250693 Eh     change       -0.1753933E-04 Eh
 * total energy  :   -83.6250756 Eh     change       -0.6303536E-05 Eh
 * total energy  :   -83.6250866 Eh     change       -0.1100657E-04 Eh
 * total energy  :   -83.6250735 Eh     change        0.1303911E-04 Eh
 * total energy  :   -83.6250891 Eh     change       -0.1558899E-04 Eh
 * total energy  :   -83.6250947 Eh     change       -0.5623664E-05 Eh
 * total energy  :   -83.6250985 Eh     change       -0.3765410E-05 Eh
   *** GEOMETRY OPTIMIZATION CONVERGED AFTER 29 ITERATIONS ***

 final structure:
================
42
 xtb: 6.5.1 (579679a)
C           -4.52123721935293        3.55112149819468       -0.22557518950282
O           -3.58839993406012        2.49599170533307       -0.31288242771935
C           -3.91715438706332        1.34813202904343        0.42682456880907
O           -4.96508935132348        1.36107158658086        1.08371219327307
C           -2.95772985820398        0.30986770393154        0.29452698818368
C           -3.09420063485096       -0.95733629482185        0.92481455999308
O           -4.00076191588117       -1.26082364335722        1.73048250097435
C           -2.06415071165298       -2.07693129720922        0.50352557302266
C           -1.75145775846855       -2.92869313969555        1.78504271060140
O           -2.42136223363232       -2.77730641107628       -0.53920695726132
N           -0.73017836774161       -1.31374926459180        0.24939120428122
C           -0.84743049184318       -0.20063101134994       -0.54221935848695
C            0.31976022710201        0.12253530656669       -1.48234906682996
C            0.21756190770089       -0.76041449790973       -2.73137094483944
C            0.27122795732921        1.59995747083906       -1.88206622912543
N            1.60281709522676       -0.07430680216981       -0.78210040514073
C            2.35052063804747       -1.18464504516728       -0.73338948298791
O            2.11123600001497       -2.26040261489548       -1.26790421798577
C            3.58500858322920       -1.00962199959080        0.08521585943802
N            4.46873254239323       -1.91912988322725        0.36632284876583
N            5.41726915396576       -1.32069775654432        1.14623128111379
C            5.05433124575118       -0.08640957647930        1.29208219072627
C            5.74956708694699        0.97607674100583        2.05136436842332
O            3.90321019856890        0.17837396820338        0.64959049914601
N           -1.84739692385710        0.59839851640258       -0.54259869011290
H           -4.64433789029733        3.89341354532756        0.80986266010302
H           -4.13977054600602        4.37526669954210       -0.83009770986734
H           -5.50533827486922        3.25083165105453       -0.60830465018811
H           -1.04650331105310       -3.71783758998021        1.52607468072037
H           -1.32587815340531       -2.30825751972291        2.57412948121025
H           -2.67645815366635       -3.38358021717401        2.13998160970121
H           -0.02874528926879       -1.96580269090314       -0.08262956851277
H           -0.62617544027826       -0.41684162472758       -3.33036422451001
H            1.12327968555360       -0.68892885258872       -3.33085916909640
H            0.04859824812720       -1.80254069915785       -2.46118138559365
H            1.07755426733580        1.83436320375602       -2.57460340988204
H           -0.68600565461491        1.81551271524890       -2.35659119118477
H            0.36471762121641        2.23324137889962       -1.00034619904444
H            1.95976867419161        0.73477405270997       -0.30191072500842
H            5.12534415949814        1.31803623608442        2.87694950821548
H            6.68665781477047        0.58913691515413        2.44293829808485
H            5.94859939442326        1.82878550846794        1.40341761806735

          :  Hamiltonian                  GFN1-xTB          :
         :: total energy             -83.625098503519 Eh    ::
         :: gradient norm              0.000708028095 Eh/a0 ::
         :: HOMO-LUMO gap              0.234026982960 eV    ::
         :: SCC energy               -84.363415851190 Eh    ::
         :: -> Gsolv                  -0.314065164377 Eh    ::
         :: repulsion energy           0.764070207492 Eh    ::

    * Orbital Energies and Occupations

         #    Occupation            Energy/Eh            Energy/eV
      -------------------------------------------------------------
         1        2.0000           -0.8518433             -23.1798
       ...           ...                  ...                  ...
        56        2.0000           -0.4398572             -11.9691
        57        2.0000           -0.4345634             -11.8251
        58        2.0000           -0.4333777             -11.7928
        59        2.0000           -0.4326065             -11.7718
        60        2.0000           -0.4233273             -11.5193
        61        2.0000           -0.4159616             -11.3189
        62        2.0000           -0.3983977             -10.8410
        63        2.0000           -0.3902826             -10.6201
        64        2.0000           -0.3669691              -9.9857
        65        2.0000           -0.3518562              -9.5745
        66        2.0000           -0.3285678              -8.9408
        67        2.0000           -0.3066763              -8.3451
        68        1.9786           -0.2995620              -8.1515 (HOMO)
        69        0.0214           -0.2909616              -7.9175 (LUMO)
        70                         -0.2452648              -6.6740
        71                         -0.1990924              -5.4176
        72                         -0.1877195              -5.1081
        73                         -0.1785332              -4.8581
        74                         -0.1373622              -3.7378
        75                         -0.1078057              -2.9335
        76                         -0.1049609              -2.8561
        77                         -0.0979063              -2.6642
        78                         -0.0843124              -2.2943
        79                         -0.0724086              -1.9703
       ...                                ...                  ...
       134                          0.7463539              20.3093
      -------------------------------------------------------------
                  HL-Gap            0.0086003 Eh            0.2340 eV

Wiberg/Mayer (AO) data.
largest (>0.10) Wiberg bond orders for each atom

     #   Z sym  total        # sym  WBO       # sym  WBO       # sym  WBO
 ---------------------------------------------------------------------------
     1   6 C    3.920 --    27 H    0.987    28 H    0.980    26 H    0.980
                             2 O    0.952
     2   8 O    2.083 --     1 C    0.952     3 C    0.948
     3   6 C    3.851 --     4 O    1.508     5 C    1.253     2 O    0.948
     4   8 O    1.809 --     3 C    1.508
     5   6 C    3.880 --     6 C    1.264     3 C    1.253    25 N    1.048
     6   6 C    3.887 --     7 O    1.534     5 C    1.264     8 C    0.881
     7   8 O    1.811 --     6 C    1.534
     8   6 C    3.915 --    10 O    1.218     9 C    0.936     6 C    0.881
                            11 N    0.782
     9   6 C    3.984 --    30 H    0.991    29 H    0.989    31 H    0.986
                             8 C    0.936
    10   8 O    1.490 --     8 C    1.218
    11   7 N    3.182 --    12 C    1.158    32 H    0.931     8 C    0.782
                            25 N    0.152
    12   6 C    3.952 --    25 N    1.657    11 N    1.158    13 C    0.945
    13   6 C    3.915 --    15 C    0.999    14 C    0.990    12 C    0.945
                            16 N    0.904
    14   6 C    3.992 --    13 C    0.990    34 H    0.987    33 H    0.986
                            35 H    0.980
    15   6 C    3.995 --    13 C    0.999    36 H    0.988    38 H    0.984
                            37 H    0.981
    16   7 N    3.373 --    17 C    1.292    39 H    0.904    13 C    0.904
                            18 O    0.186
    17   6 C    3.916 --    18 O    1.552    16 N    1.292    19 C    0.985
    18   8 O    1.875 --    17 C    1.552    16 N    0.186
    19   6 C    3.854 --    20 N    1.620    24 O    1.043    17 C    0.985
    20   7 N    2.979 --    19 C    1.620    21 N    1.188
    21   7 N    2.980 --    22 C    1.622    20 N    1.188
    22   6 C    3.869 --    21 N    1.622    24 O    1.069    23 C    1.030
    23   6 C    3.988 --    22 C    1.030    41 H    0.983    42 H    0.966
                            40 H    0.964
    24   8 O    2.306 --    22 C    1.069    19 C    1.043
    25   7 N    2.999 --    12 C    1.657     5 C    1.048    11 N    0.152
    26   1 H    1.021 --     1 C    0.980
    27   1 H    1.020 --     1 C    0.987
    28   1 H    1.020 --     1 C    0.980
    29   1 H    1.019 --     9 C    0.989
    30   1 H    1.017 --     9 C    0.991
    31   1 H    1.027 --     9 C    0.986
    32   1 H    0.984 --    11 N    0.931
    33   1 H    1.008 --    14 C    0.986
    34   1 H    1.006 --    14 C    0.987
    35   1 H    1.021 --    14 C    0.980
    36   1 H    1.004 --    15 C    0.988
    37   1 H    1.026 --    15 C    0.981
    38   1 H    1.010 --    15 C    0.984
    39   1 H    0.950 --    16 N    0.904
    40   1 H    0.998 --    23 C    0.964
    41   1 H    1.000 --    23 C    0.983
    42   1 H    0.998 --    23 C    0.966
 ---------------------------------------------------------------------------

           -------------------------------------------------
          | TOTAL ENERGY              -83.625098503519 Eh   |
          | GRADIENT NORM               0.000708028095 Eh/α |
          | HOMO-LUMO GAP               0.234026982960 eV   |
           -------------------------------------------------

 * finished run on 2023/06/21 at 17:25:26.472
