   * xtb version 6.5.1 (579679a) compiled by 'ehlert@majestix' on 2022-07-11
          program call               : /lustre/hpc/kemi/ree/PhD/git/ReactivityQM/dep/xtb-6.5.1/bin/xtb --gfn 1 /lustre/hpc/kemi/ree/PhD/git/ReactivityQM/calculations/R02methylcation/reac01prodE13/conf16/R02methylcation_reac01prodE13_conf16_gfn1.xyz --opt --vfukui --chrg -2 --uhf 0 --alpb DMSO

   ID    Z sym.   atoms
    1    6 C      1, 3, 5, 6, 8, 10, 12-15, 17, 19, 22, 23
    2    8 O      2, 4, 7, 9, 18, 24
    3    7 N      11, 16, 20, 21, 25
    4    1 H      26-42

      * Solvation model:               ALPB
        Solvent                        DMSO
        Solvent mass                       7.8130E+01 g/mol
          :  Hamiltonian                  GFN1-xTB          :
 * total energy  :   -83.5648250 Eh     change       -0.2771117E-11 Eh
 * total energy  :   -83.5771475 Eh     change       -0.1232246E-01 Eh
 * total energy  :   -83.5816145 Eh     change       -0.4467013E-02 Eh
 * total energy  :   -83.5823078 Eh     change       -0.6933271E-03 Eh
 * total energy  :   -83.5828688 Eh     change       -0.5610082E-03 Eh
 * total energy  :   -83.5831829 Eh     change       -0.3140734E-03 Eh
 * total energy  :   -83.5835188 Eh     change       -0.3359188E-03 Eh
 * total energy  :   -83.5838008 Eh     change       -0.2820452E-03 Eh
 * total energy  :   -83.5839873 Eh     change       -0.1864983E-03 Eh
 * total energy  :   -83.5841420 Eh     change       -0.1546633E-03 Eh
 * total energy  :   -83.5911504 Eh     change       -0.1650839E-04 Eh
 * total energy  :   -83.5911661 Eh     change       -0.1574026E-04 Eh
 * total energy  :   -83.5911759 Eh     change       -0.9764310E-05 Eh
 * total energy  :   -83.5911835 Eh     change       -0.7591532E-05 Eh
 * total energy  :   -83.5911902 Eh     change       -0.6711805E-05 Eh
 * total energy  :   -83.5911959 Eh     change       -0.5668233E-05 Eh
 * total energy  :   -83.5912039 Eh     change       -0.7972534E-05 Eh
 * total energy  :   -83.5912088 Eh     change       -0.4962164E-05 Eh
 * total energy  :   -83.5912131 Eh     change       -0.4336315E-05 Eh
   *** GEOMETRY OPTIMIZATION CONVERGED AFTER 85 ITERATIONS ***

 final structure:
================
42
 xtb: 6.5.1 (579679a)
C           -2.02229745840184       -3.10144176868778        1.95504320175031
O           -1.64175124357346       -1.92172185733044        1.28506094865141
C           -2.62380740517030       -0.90033617032363        1.27849324342413
O           -3.70799806439729       -1.13519978419077        1.84503911001104
C           -2.19778156954242        0.25785848569297        0.60139109774459
C           -3.04397558755220        1.46098012853405        0.43827491123983
O           -4.21097432311204        1.56485875072259        0.92914172253227
C           -2.44834036729784        2.48133465591761       -0.30919729289223
O           -3.04613928452016        3.69519856874686       -0.65076232834997
C           -3.45896521182667        4.51016115493885        0.43860544575512
N           -1.13701610243481        2.36438593966703       -0.81130735194891
C           -0.43172157216350        1.20606121830554       -0.61298342757202
C            0.96823739747312        1.13882426974247       -1.20852720981897
C            0.88628796726759        1.28310334662509       -2.73817701838423
C            1.83713610207224        2.26070199992525       -0.60890675927464
N            1.50961566254082       -0.16763957232287       -0.86710016522544
C            2.80817160329455       -0.54155347976390       -1.13590692076178
O            3.56468168181755        0.11137393199887       -1.89247171653937
C            3.21098994736742       -1.77123862707727       -0.51450519868472
N            4.39214566399838       -2.38519325006495       -0.61975331430814
N            4.31506665662327       -3.50913170227450        0.15518634158087
C            3.13461681088349       -3.53770126389716        0.68352761635742
C            2.59581756024938       -4.56914955223442        1.60448757574425
O            2.36652381174588       -2.48227102180726        0.31874213240464
N           -0.90861476984010        0.21449670109179        0.04804732518638
H           -2.90642319558147       -3.56209871619899        1.49353439052543
H           -1.18489927992757       -3.79918382532765        1.89178891706072
H           -2.24820914544747       -2.91077384743359        3.01288941318544
H           -3.85301410978652        5.43516287301078        0.01320294916221
H           -4.24542421487449        4.01926450232356        1.02723421219693
H           -2.61497511770334        4.75243102812708        1.09822881753040
H           -0.77646064022212        3.12644759750230       -1.35455472516092
H            1.88271281727170        1.24393940150301       -3.17608603363273
H            0.42896558904591        2.23559019392432       -3.00035710933802
H            0.28381169104302        0.47577859450744       -3.15510444912563
H            2.83604866843373        2.24174678851609       -1.04244320950520
H            1.91504894527071        2.13405344813202        0.47071769103702
H            1.38793799918148        3.23021841061040       -0.81632338880287
H            1.00581050428234       -0.66211389436104       -0.13443972580633
H            2.32736298151369       -4.12265364693172        2.56248728181604
H            3.35021224321141       -5.33501175969646        1.76678334407941
H            1.70158435877931       -5.02955625015182        1.18331465615754

          :  Hamiltonian                  GFN1-xTB          :
         :: total energy             -83.591213148983 Eh    ::
         :: gradient norm              0.000802266234 Eh/a0 ::
         :: HOMO-LUMO gap              0.045116352468 eV    ::
         :: SCC energy               -84.318069710095 Eh    ::
         :: -> Gsolv                  -0.272647299688 Eh    ::
         :: repulsion energy           0.752224277947 Eh    ::

    * Orbital Energies and Occupations

         #    Occupation            Energy/Eh            Energy/eV
      -------------------------------------------------------------
         1        2.0000           -0.8033870             -21.8613
       ...           ...                  ...                  ...
        56        2.0000           -0.4321347             -11.7590
        57        2.0000           -0.4286136             -11.6632
        58        2.0000           -0.4237726             -11.5314
        59        2.0000           -0.4077595             -11.0957
        60        2.0000           -0.4050526             -11.0220
        61        2.0000           -0.4036437             -10.9837
        62        2.0000           -0.3966409             -10.7931
        63        2.0000           -0.3891779             -10.5901
        64        2.0000           -0.3875936             -10.5470
        65        2.0000           -0.3831929             -10.4272
        66        2.0000           -0.3390498              -9.2260
        67        2.0000           -0.3335415              -9.0761
        68        1.4106           -0.2659354              -7.2365 (HOMO)
        69        0.5894           -0.2642774              -7.1914 (LUMO)
        70                         -0.2109786              -5.7410
        71                         -0.1987609              -5.4086
        72                         -0.1601694              -4.3584
        73                         -0.1393655              -3.7923
        74                         -0.1273444              -3.4652
        75                         -0.1060794              -2.8866
        76                         -0.1043655              -2.8399
        77                         -0.1006854              -2.7398
        78                         -0.0972941              -2.6475
        79                         -0.0729179              -1.9842
       ...                                ...                  ...
       134                          0.7365846              20.0435
      -------------------------------------------------------------
                  HL-Gap            0.0016580 Eh            0.0451 eV

Wiberg/Mayer (AO) data.
largest (>0.10) Wiberg bond orders for each atom

     #   Z sym  total        # sym  WBO       # sym  WBO       # sym  WBO
 ---------------------------------------------------------------------------
     1   6 C    3.924 --    27 H    0.986    26 H    0.980    28 H    0.980
                             2 O    0.957
     2   8 O    2.050 --     1 C    0.957     3 C    0.922
     3   6 C    3.786 --     4 O    1.461     5 C    1.301     2 O    0.922
     4   8 O    1.716 --     3 C    1.461
     5   6 C    3.754 --     3 C    1.301    25 N    1.101     6 C    1.069
     6   6 C    3.924 --     7 O    1.390     8 C    1.341     5 C    1.069
     7   8 O    1.685 --     6 C    1.390     8 C    0.119
     8   6 C    3.525 --     6 C    1.341    11 N    1.007     9 O    0.947
                             7 O    0.119
     9   8 O    2.008 --     8 C    0.947    10 C    0.935
    10   6 C    3.910 --    29 H    0.987    31 H    0.983    30 H    0.979
                             9 O    0.935
    11   7 N    3.243 --    12 C    1.129     8 C    1.007    32 H    0.910
                            25 N    0.108
    12   6 C    3.929 --    25 N    1.614    11 N    1.129    13 C    0.973
    13   6 C    3.952 --    14 C    0.984    15 C    0.981    12 C    0.973
                            16 N    0.951
    14   6 C    3.991 --    35 H    0.987    34 H    0.986    13 C    0.984
                            33 H    0.981
    15   6 C    3.989 --    37 H    0.987    38 H    0.985    36 H    0.981
                            13 C    0.981
    16   7 N    3.201 --    17 C    1.143    13 C    0.951    39 H    0.893
                            18 O    0.124
    17   6 C    3.776 --    18 O    1.430    16 N    1.143    19 C    1.133
    18   8 O    1.688 --    17 C    1.430    16 N    0.124
    19   6 C    3.689 --    20 N    1.413    17 C    1.133    24 O    0.973
    20   7 N    2.740 --    19 C    1.413    21 N    1.190
    21   7 N    2.980 --    22 C    1.626    20 N    1.190
    22   6 C    3.816 --    21 N    1.626    24 O    1.045    23 C    1.024
    23   6 C    3.994 --    22 C    1.024    41 H    0.986    42 H    0.971
                            40 H    0.971
    24   8 O    2.187 --    22 C    1.045    19 C    0.973
    25   7 N    2.980 --    12 C    1.614     5 C    1.101    11 N    0.108
    26   1 H    1.022 --     1 C    0.980
    27   1 H    1.021 --     1 C    0.986
    28   1 H    1.021 --     1 C    0.980
    29   1 H    1.020 --    10 C    0.987
    30   1 H    1.037 --    10 C    0.979
    31   1 H    1.014 --    10 C    0.983
    32   1 H    0.960 --    11 N    0.910
    33   1 H    1.020 --    14 C    0.981
    34   1 H    1.006 --    14 C    0.986
    35   1 H    1.010 --    14 C    0.987
    36   1 H    1.017 --    15 C    0.981
    37   1 H    1.008 --    15 C    0.987
    38   1 H    1.006 --    15 C    0.985
    39   1 H    0.984 --    16 N    0.893
    40   1 H    1.001 --    23 C    0.971
    41   1 H    1.005 --    23 C    0.986
    42   1 H    1.001 --    23 C    0.971
 ---------------------------------------------------------------------------

           -------------------------------------------------
          | TOTAL ENERGY              -83.591213148983 Eh   |
          | GRADIENT NORM               0.000802266234 Eh/α |
          | HOMO-LUMO GAP               0.045116352468 eV   |
           -------------------------------------------------

 * finished run on 2023/06/21 at 17:25:39.625
