   * xtb version 6.5.1 (579679a) compiled by 'ehlert@majestix' on 2022-07-11
          program call               : /lustre/hpc/kemi/ree/PhD/git/ReactivityQM/dep/xtb-6.5.1/bin/xtb --gfn 1 /lustre/hpc/kemi/ree/PhD/git/ReactivityQM/calculations/R01/reac01/conf05/R01_reac01_conf05_gfn1.xyz --opt --vfukui --chrg 0 --uhf 0 --alpb DMSO

   ID    Z sym.   atoms
    1    6 C      1, 3, 5, 8, 9
    2    8 O      2, 4, 10
    3    7 N      6, 7
    4    1 H      11-16

      * Solvation model:               ALPB
        Solvent                        DMSO
        Solvent mass                       7.8130E+01 g/mol
          :  Hamiltonian                  GFN1-xTB          :
 * total energy  :   -34.2854927 Eh     change       -0.2025047E-11 Eh
 * total energy  :   -34.2928010 Eh     change       -0.7308344E-02 Eh
 * total energy  :   -34.2953953 Eh     change       -0.2594251E-02 Eh
 * total energy  :   -34.2957080 Eh     change       -0.3127124E-03 Eh
 * total energy  :   -34.2958236 Eh     change       -0.1155878E-03 Eh
 * total energy  :   -34.2958390 Eh     change       -0.1539066E-04 Eh
 * total energy  :   -34.2958493 Eh     change       -0.1031429E-04 Eh
 * total energy  :   -34.2958575 Eh     change       -0.8242521E-05 Eh
 * total energy  :   -34.2958773 Eh     change       -0.1983450E-04 Eh
 * total energy  :   -34.2958941 Eh     change       -0.1670583E-04 Eh
 * total energy  :   -34.2961085 Eh     change       -0.3093771E-04 Eh
 * total energy  :   -34.2961304 Eh     change       -0.2182981E-04 Eh
 * total energy  :   -34.2961502 Eh     change       -0.1980092E-04 Eh
 * total energy  :   -34.2961702 Eh     change       -0.2003284E-04 Eh
 * total energy  :   -34.2961778 Eh     change       -0.7561854E-05 Eh
 * total energy  :   -34.2961846 Eh     change       -0.6792531E-05 Eh
 * total energy  :   -34.2961914 Eh     change       -0.6840303E-05 Eh
 * total energy  :   -34.2961971 Eh     change       -0.5714051E-05 Eh
 * total energy  :   -34.2962017 Eh     change       -0.4556088E-05 Eh
   *** GEOMETRY OPTIMIZATION CONVERGED AFTER 26 ITERATIONS ***

 final structure:
================
16
 xtb: 6.5.1 (579679a)
C           -3.61068775901933        0.06939180810497        0.26587947975540
O           -2.24048049204940       -0.20465569000645        0.58317029133999
C           -1.33008485335764        0.25021576089063       -0.27031899157791
O           -1.57924274031432        0.85944699051119       -1.28043120775497
C            0.03848459583142       -0.09006321112577        0.18861340044966
N            0.38636030028465       -0.71857882041220        1.27237178417349
N            1.74195278558431       -0.78125620967389        1.27067431730434
C            2.14299801787172       -0.18674067027925        0.18538433437244
C            3.53542603888658       -0.00042812936730       -0.27517676916968
O            1.11514884446985        0.27049487145603       -0.53873036233569
H           -3.79084758093459        1.14583885219232        0.29959671752494
H           -4.20912351768689       -0.43991657438965        1.01795841409431
H           -3.84594026950570       -0.30796856999210       -0.73144172353021
H            3.72640464258157       -0.63168423967915       -1.14377580702408
H            4.22361489215035       -0.27004951174364        0.52222626512274
H            3.69601609520736        1.03595234351419       -0.57006114274481

          :  Hamiltonian                  GFN1-xTB          :
         :: total energy             -34.296201664004 Eh    ::
         :: gradient norm              0.000685656514 Eh/a0 ::
         :: HOMO-LUMO gap              3.714177200786 eV    ::
         :: SCC energy               -34.589229569126 Eh    ::
         :: -> Gsolv                  -0.020267703371 Eh    ::
         :: repulsion energy           0.298979624413 Eh    ::

    * Orbital Energies and Occupations

         #    Occupation            Energy/Eh            Energy/eV
      -------------------------------------------------------------
         1        2.0000           -0.8707264             -23.6937
       ...           ...                  ...                  ...
        15        2.0000           -0.5966529             -16.2358
        16        2.0000           -0.5711972             -15.5431
        17        2.0000           -0.5654421             -15.3865
        18        2.0000           -0.5494068             -14.9501
        19        2.0000           -0.5478995             -14.9091
        20        2.0000           -0.5374248             -14.6241
        21        2.0000           -0.5213530             -14.1867
        22        2.0000           -0.5125240             -13.9465
        23        2.0000           -0.5042296             -13.7208
        24        2.0000           -0.4963630             -13.5067
        25        2.0000           -0.4827066             -13.1351
        26        2.0000           -0.4618682             -12.5681
        27        2.0000           -0.4599603             -12.5162 (HOMO)
        28                         -0.3234668              -8.8020 (LUMO)
        29                         -0.2624483              -7.1416
        30                         -0.2090410              -5.6883
        31                         -0.1449316              -3.9438
        32                         -0.1412852              -3.8446
        33                         -0.0778276              -2.1178
        34                         -0.0770059              -2.0954
        35                         -0.0764423              -2.0801
        36                         -0.0761440              -2.0720
        37                          0.0004648               0.0126
        38                          0.0349215               0.9503
       ...                                ...                  ...
        52                          0.7344525              19.9855
      -------------------------------------------------------------
                  HL-Gap            0.1364935 Eh            3.7142 eV

Wiberg/Mayer (AO) data.
largest (>0.10) Wiberg bond orders for each atom

     #   Z sym  total        # sym  WBO       # sym  WBO       # sym  WBO
 ---------------------------------------------------------------------------
     1   6 C    3.861 --    12 H    0.986    13 H    0.979    11 H    0.979
                             2 O    0.888
     2   8 O    2.207 --     3 C    1.123     1 C    0.888     4 O    0.141
     3   6 C    3.866 --     4 O    1.671     2 O    1.123     5 C    0.990
     4   8 O    1.941 --     3 C    1.671     2 O    0.141
     5   6 C    3.879 --     6 N    1.606    10 O    1.056     3 C    0.990
     6   7 N    3.004 --     5 C    1.606     7 N    1.217
     7   7 N    2.981 --     8 C    1.588     6 N    1.217
     8   6 C    3.868 --     7 N    1.588    10 O    1.091     9 C    1.033
     9   6 C    3.985 --     8 C    1.033    15 H    0.981    16 H    0.967
                            14 H    0.958
    10   8 O    2.331 --     8 C    1.091     5 C    1.056
    11   1 H    1.004 --     1 C    0.979
    12   1 H    1.009 --     1 C    0.986
    13   1 H    1.005 --     1 C    0.979
    14   1 H    0.996 --     9 C    0.958
    15   1 H    0.998 --     9 C    0.981
    16   1 H    0.996 --     9 C    0.967
 ---------------------------------------------------------------------------

           -------------------------------------------------
          | TOTAL ENERGY              -34.296201664004 Eh   |
          | GRADIENT NORM               0.000685656514 Eh/α |
          | HOMO-LUMO GAP               3.714177200786 eV   |
           -------------------------------------------------

 * finished run on 2023/06/20 at 14:51:55.477
