   * xtb version 6.5.1 (579679a) compiled by 'ehlert@majestix' on 2022-07-11
          program call               : /lustre/hpc/kemi/ree/PhD/git/ReactivityQM/dep/xtb-6.5.1/bin/xtb --gfn 1 /lustre/hpc/kemi/ree/PhD/git/ReactivityQM/calculations/R01/reac01prodN03/conf02/R01_reac01prodN03_conf02_gfn1.xyz --opt --vfukui --chrg 1 --uhf 0 --alpb DMSO

   ID    Z sym.   atoms
    1    6 C      1, 3, 5, 7, 8, 11
    2    8 O      2, 4, 6
    3    7 N      9, 10
    4    1 H      12-20

      * Solvation model:               ALPB
        Solvent                        DMSO
        Solvent mass                       7.8130E+01 g/mol
          :  Hamiltonian                  GFN1-xTB          :
 * total energy  :   -37.6207676 Eh     change       -0.2440004E-10 Eh
 * total energy  :   -37.6368452 Eh     change       -0.1607762E-01 Eh
 * total energy  :   -37.6427619 Eh     change       -0.5916679E-02 Eh
 * total energy  :   -37.6435862 Eh     change       -0.8242953E-03 Eh
 * total energy  :   -37.6438747 Eh     change       -0.2885278E-03 Eh
 * total energy  :   -37.6439112 Eh     change       -0.3644381E-04 Eh
 * total energy  :   -37.6439349 Eh     change       -0.2375463E-04 Eh
 * total energy  :   -37.6439594 Eh     change       -0.2443985E-04 Eh
 * total energy  :   -37.6439824 Eh     change       -0.2300937E-04 Eh
 * total energy  :   -37.6440334 Eh     change       -0.5099912E-04 Eh
 * total energy  :   -37.6442578 Eh     change       -0.1926973E-04 Eh
 * total energy  :   -37.6442875 Eh     change       -0.2968511E-04 Eh
 * total energy  :   -37.6443027 Eh     change       -0.1518221E-04 Eh
 * total energy  :   -37.6443280 Eh     change       -0.2532964E-04 Eh
 * total energy  :   -37.6443448 Eh     change       -0.1681454E-04 Eh
 * total energy  :   -37.6443541 Eh     change       -0.9276394E-05 Eh
 * total energy  :   -37.6443645 Eh     change       -0.1042952E-04 Eh
 * total energy  :   -37.6443709 Eh     change       -0.6316428E-05 Eh
 * total energy  :   -37.6443745 Eh     change       -0.3652660E-05 Eh
   *** GEOMETRY OPTIMIZATION CONVERGED AFTER 24 ITERATIONS ***

 final structure:
================
20
 xtb: 6.5.1 (579679a)
C            3.56089783659130       -0.08394754581492       -0.10946460575284
O            2.13783618049721        0.16392825737109       -0.11950721884037
C            1.35396963333276       -0.84650768014832        0.17299201695099
O            1.67774734386105       -1.96226541861666        0.45186610056724
C           -0.09005886035820       -0.40807595163337        0.11487178259916
O           -1.08444420154644       -1.23194981428934        0.39574514629630
C           -2.21183927334915       -0.52592630642730        0.24290106728070
C           -3.53050620377864       -1.13446030001896        0.47905567771391
N           -1.94496233115442        0.69998781723762       -0.12177389326488
N           -0.60973905779457        0.75920194739358       -0.19869325378993
C            0.03520797524611        1.99579987263909       -0.58401594953556
H            4.03290024791126        0.87894837955505       -0.28597944042738
H            3.80834164800482       -0.79137277421057       -0.90206540168966
H            3.85132108252114       -0.49177778720407        0.85973893439386
H           -4.31393651649320       -0.40958912964527        0.27146859720973
H           -3.59902716830495       -1.46905842045896        1.51548733487597
H           -3.65098308505219       -2.00971330467602       -0.16075577776194
H            0.67530444548409        1.80377292123592       -1.44344556581492
H           -0.74131774120964        2.71645459047876       -0.82725686450166
H            0.64328904559163        2.34655264723271        0.24883031349149

          :  Hamiltonian                  GFN1-xTB          :
         :: total energy             -37.644374513955 Eh    ::
         :: gradient norm              0.000899109361 Eh/a0 ::
         :: HOMO-LUMO gap              3.657032312799 eV    ::
         :: SCC energy               -37.999120888660 Eh    ::
         :: -> Gsolv                  -0.081157920504 Eh    ::
         :: repulsion energy           0.363077938532 Eh    ::

    * Orbital Energies and Occupations

         #    Occupation            Energy/Eh            Energy/eV
      -------------------------------------------------------------
         1        2.0000           -0.9440245             -25.6882
       ...           ...                  ...                  ...
        18        2.0000           -0.6269125             -17.0592
        19        2.0000           -0.6085677             -16.5600
        20        2.0000           -0.6080515             -16.5459
        21        2.0000           -0.5935085             -16.1502
        22        2.0000           -0.5875903             -15.9891
        23        2.0000           -0.5744686             -15.6321
        24        2.0000           -0.5685319             -15.4705
        25        2.0000           -0.5615535             -15.2806
        26        2.0000           -0.5523388             -15.0299
        27        2.0000           -0.5441711             -14.8076
        28        2.0000           -0.5332635             -14.5108
        29        2.0000           -0.5322569             -14.4834
        30        2.0000           -0.5221769             -14.2092 (HOMO)
        31                         -0.3877835             -10.5521 (LUMO)
        32                         -0.3290846              -8.9548
        33                         -0.2701426              -7.3510
        34                         -0.1757212              -4.7816
        35                         -0.1693330              -4.6078
        36                         -0.1570159              -4.2726
        37                         -0.1120949              -3.0503
        38                         -0.1071300              -2.9152
        39                         -0.1002272              -2.7273
        40                         -0.0997975              -2.7156
        41                         -0.0921840              -2.5085
       ...                                ...                  ...
        62                          0.7331855              19.9510
      -------------------------------------------------------------
                  HL-Gap            0.1343935 Eh            3.6570 eV

Wiberg/Mayer (AO) data.
largest (>0.10) Wiberg bond orders for each atom

     #   Z sym  total        # sym  WBO       # sym  WBO       # sym  WBO
 ---------------------------------------------------------------------------
     1   6 C    3.824 --    12 H    0.983    14 H    0.977    13 H    0.976
                             2 O    0.853
     2   8 O    2.237 --     3 C    1.161     1 C    0.853     4 O    0.158
     3   6 C    3.882 --     4 O    1.710     2 O    1.161     5 C    0.940
     4   8 O    1.995 --     3 C    1.710     2 O    0.158
     5   6 C    3.852 --    10 N    1.449     6 O    1.136     3 C    0.940
     6   8 O    2.390 --     5 C    1.136     7 C    1.087
     7   6 C    3.837 --     9 N    1.548     6 O    1.087     8 C    1.045
     8   6 C    3.968 --     7 C    1.045    15 H    0.977    17 H    0.948
                            16 H    0.946
     9   7 N    2.967 --     7 C    1.548    10 N    1.176
    10   7 N    3.668 --     5 C    1.449     9 N    1.176    11 C    0.908
    11   6 C    3.876 --    19 H    0.978    18 H    0.963    20 H    0.960
                            10 N    0.908
    12   1 H    1.003 --     1 C    0.983
    13   1 H    0.998 --     1 C    0.976
    14   1 H    0.998 --     1 C    0.977
    15   1 H    0.990 --     8 C    0.977
    16   1 H    0.987 --     8 C    0.946
    17   1 H    0.988 --     8 C    0.948
    18   1 H    0.995 --    11 C    0.963
    19   1 H    0.992 --    11 C    0.978
    20   1 H    0.994 --    11 C    0.960
 ---------------------------------------------------------------------------

           -------------------------------------------------
          | TOTAL ENERGY              -37.644374513955 Eh   |
          | GRADIENT NORM               0.000899109361 Eh/α |
          | HOMO-LUMO GAP               3.657032312799 eV   |
           -------------------------------------------------

 * finished run on 2023/06/20 at 14:55:25.770
