   * xtb version 6.5.1 (579679a) compiled by 'ehlert@majestix' on 2022-07-11
          program call               : /lustre/hpc/kemi/ree/PhD/git/ReactivityQM/dep/xtb-6.5.1/bin/xtb --gfn 1 /lustre/hpc/kemi/ree/PhD/git/ReactivityQM/calculations/RaltegravirCLI/reac02prodE11/conf14/RaltegravirCLI_reac02prodE11_conf14_gfn1.xyz --opt --vfukui --chrg -1 --uhf 0 --alpb DMSO

   ID    Z sym.   atoms
    1    6 C      1, 3-6, 9, 10, 13-17, 19-21, 23, 24
    2    7 N      2, 7, 8, 12
    3    8 O      11, 22, 25
    4    9 F      18
    5    1 H      26-47

      * Solvation model:               ALPB
        Solvent                        DMSO
        Solvent mass                       7.8130E+01 g/mol
          :  Hamiltonian                  GFN1-xTB          :
 * total energy  :   -80.1942134 Eh     change       -0.1381295E-10 Eh
 * total energy  :   -80.2030295 Eh     change       -0.8816036E-02 Eh
 * total energy  :   -80.2060190 Eh     change       -0.2989514E-02 Eh
 * total energy  :   -80.2065899 Eh     change       -0.5709638E-03 Eh
 * total energy  :   -80.2070739 Eh     change       -0.4839674E-03 Eh
 * total energy  :   -80.2072728 Eh     change       -0.1989180E-03 Eh
 * total energy  :   -80.2074555 Eh     change       -0.1827174E-03 Eh
 * total energy  :   -80.2075645 Eh     change       -0.1089321E-03 Eh
 * total energy  :   -80.2076665 Eh     change       -0.1020385E-03 Eh
 * total energy  :   -80.2077779 Eh     change       -0.1114242E-03 Eh
 * total energy  :   -80.2096436 Eh     change       -0.1773337E-04 Eh
 * total energy  :   -80.2096636 Eh     change       -0.2004691E-04 Eh
 * total energy  :   -80.2096721 Eh     change       -0.8483451E-05 Eh
 * total energy  :   -80.2096866 Eh     change       -0.1446108E-04 Eh
 * total energy  :   -80.2096980 Eh     change       -0.1147138E-04 Eh
 * total energy  :   -80.2097093 Eh     change       -0.1128996E-04 Eh
 * total energy  :   -80.2097186 Eh     change       -0.9258629E-05 Eh
 * total energy  :   -80.2097244 Eh     change       -0.5848304E-05 Eh
 * total energy  :   -80.2097288 Eh     change       -0.4328229E-05 Eh
   *** GEOMETRY OPTIMIZATION CONVERGED AFTER 50 ITERATIONS ***

 final structure:
================
47
 xtb: 6.5.1 (579679a)
C           -3.32685857810632        1.09438049795090        2.27920267703792
N           -2.20402986283361        0.27780455974036        1.84697220458790
C           -1.84585992974143        0.10071335402564        0.56626364571476
C           -2.63378112569811        0.70853189980553       -0.60313172985175
C           -2.17133465359691        2.15670408673445       -0.82131484678055
C           -2.34850707158981       -0.10123680013904       -1.88007344784566
N           -4.07500994249537        0.69874135195654       -0.34807920772906
N           -0.75728654129123       -0.51809984227250        0.20152115790618
C            0.12535898145088       -0.97968981538523        1.19247647763618
C            1.43071928689466       -1.42928536613131        0.71299187465435
O            2.35939362435790       -1.78372957696647        1.46173972894726
N            1.55085286577913       -1.48258615198116       -0.63921394621197
C            2.83213010937225       -1.73714821891300       -1.27290512185331
C            3.61759913659207       -0.45034717298134       -1.42344298286021
C            4.33553246097654        0.05982052226645       -0.34293167041572
C            5.02981146775377        1.25555921797126       -0.45778683355792
C            4.98779393223492        1.92463591260778       -1.66794369833935
F            5.65844811367161        3.08555903934395       -1.78694050712716
C            4.28800819639471        1.44821155866104       -2.76080027096961
C            3.59898561200626        0.24991062589511       -2.62683795835228
C           -0.20035803408049       -0.99514154848005        2.50992157701541
O            0.65574117175371       -1.41666702121637        3.46282462418886
C           -1.62171067392142       -0.63311211011453        3.02482351993646
C           -2.46318554276700       -1.96279953283452        2.91998971978971
O           -1.69185936186107       -0.03870232413607        4.16298727913909
H           -3.19136533617214        1.32123783828173        3.34306352980843
H           -3.36862301452746        2.03211728529664        1.72653398357303
H           -4.27947390919110        0.57159482304948        2.15069283091908
H           -2.42420070206875        2.78503375036836        0.03223487634720
H           -2.65067977870419        2.57129428577863       -1.70775361894383
H           -1.09132698722604        2.17927581292740       -0.96607121382814
H           -2.60861130637999       -1.14832037592320       -1.72741049441262
H           -1.29231686367134       -0.04086945100832       -2.14008349532614
H           -2.94004392236823        0.29304352400503       -2.70532075012206
H           -4.42570374178090       -0.24438763873176       -0.46339152048988
H           -4.53129482830253        1.26650212403809       -1.04787652269544
H            0.82488323434640       -1.03989520691252       -1.18895792994257
H            2.65061524879296       -2.19014947862839       -2.25064544049253
H            3.38377320254115       -2.44633948802987       -0.64668132784298
H            4.35188440922203       -0.48431732123452        0.59543797151772
H            5.59646353462530        1.66295498812571        0.36964009865392
H            4.28441715698253        1.99944195729859       -3.69157257236704
H            3.04724734276847       -0.14288385341130       -3.47275375432459
H            1.50850536917458       -1.66572198894485        3.03174761212355
H           -2.44936106974691       -2.36407328022223        1.90877186651672
H           -3.48946632238047       -1.75542903301476        3.21700857753935
H           -2.03591235718669       -2.69213241850984        3.60705002913412

          :  Hamiltonian                  GFN1-xTB          :
         :: total energy             -80.209728762974 Eh    ::
         :: gradient norm              0.000654750774 Eh/a0 ::
         :: HOMO-LUMO gap              1.850904134581 eV    ::
         :: SCC energy               -81.067294009432 Eh    ::
         :: -> Gsolv                  -0.115839751844 Eh    ::
         :: repulsion energy           0.888706442622 Eh    ::

    * Orbital Energies and Occupations

         #    Occupation            Energy/Eh            Energy/eV
      -------------------------------------------------------------
         1        2.0000           -0.8577369             -23.3402
       ...           ...                  ...                  ...
        56        2.0000           -0.4560976             -12.4110
        57        2.0000           -0.4515138             -12.2863
        58        2.0000           -0.4437755             -12.0757
        59        2.0000           -0.4432172             -12.0606
        60        2.0000           -0.4316528             -11.7459
        61        2.0000           -0.4191626             -11.4060
        62        2.0000           -0.4148419             -11.2884
        63        2.0000           -0.3980333             -10.8310
        64        2.0000           -0.3937794             -10.7153
        65        2.0000           -0.3810464             -10.3688
        66        2.0000           -0.3601446              -9.8000
        67        2.0000           -0.3461064              -9.4180
        68        2.0000           -0.3337612              -9.0821 (HOMO)
        69                         -0.2657417              -7.2312 (LUMO)
        70                         -0.2593839              -7.0582
        71                         -0.2481509              -6.7525
        72                         -0.2079138              -5.6576
        73                         -0.1379562              -3.7540
        74                         -0.1250045              -3.4015
        75                         -0.1110414              -3.0216
        76                         -0.1101838              -2.9983
        77                         -0.1044334              -2.8418
        78                         -0.0970826              -2.6418
        79                         -0.0967454              -2.6326
       ...                                ...                  ...
       144                          0.7051557              19.1883
      -------------------------------------------------------------
                  HL-Gap            0.0680195 Eh            1.8509 eV

Wiberg/Mayer (AO) data.
largest (>0.10) Wiberg bond orders for each atom

     #   Z sym  total        # sym  WBO       # sym  WBO       # sym  WBO
 ---------------------------------------------------------------------------
     1   6 C    3.963 --    27 H    0.981    28 H    0.980    26 H    0.972
                             2 N    0.966
     2   7 N    3.360 --     3 C    1.290     1 C    0.966    23 C    0.736
                             8 N    0.173
     3   6 C    3.948 --     8 N    1.521     2 N    1.290     4 C    0.963
     4   6 C    3.964 --     6 C    0.990     5 C    0.989     7 N    0.979
                             3 C    0.963
     5   6 C    3.996 --     4 C    0.989    31 H    0.986    30 H    0.985
                            29 H    0.981
     6   6 C    3.996 --     4 C    0.990    34 H    0.986    32 H    0.985
                            33 H    0.982
     7   7 N    2.979 --     4 C    0.979    35 H    0.949    36 H    0.948
     8   7 N    2.985 --     3 C    1.521     9 C    1.072     2 N    0.173
     9   6 C    3.948 --    21 C    1.574    10 C    1.079     8 N    1.072
    10   6 C    3.893 --    11 O    1.482    12 N    1.219     9 C    1.079
    11   8 O    1.870 --    10 C    1.482    12 N    0.132
    12   7 N    3.308 --    10 C    1.219    13 C    0.952    37 H    0.897
                            11 O    0.132
    13   6 C    3.960 --    14 C    0.993    38 H    0.978    39 H    0.971
                            12 N    0.952
    14   6 C    3.986 --    20 C    1.422    15 C    1.414    13 C    0.993
    15   6 C    3.992 --    16 C    1.446    14 C    1.414    40 H    0.968
                            19 C    0.111
    16   6 C    3.992 --    15 C    1.446    17 C    1.399    41 H    0.970
                            20 C    0.110
    17   6 C    3.858 --    19 C    1.405    16 C    1.399    18 F    0.919
    18   9 F    1.045 --    17 C    0.919
    19   6 C    3.992 --    20 C    1.439    17 C    1.405    42 H    0.970
                            15 C    0.111
    20   6 C    3.994 --    19 C    1.439    14 C    1.422    43 H    0.972
                            16 C    0.110
    21   6 C    3.878 --     9 C    1.574    22 O    1.092    23 C    0.910
    22   8 O    2.062 --    21 C    1.092    44 H    0.793
    23   6 C    3.924 --    25 O    1.274    24 C    0.919    21 C    0.910
                             2 N    0.736
    24   6 C    3.989 --    45 H    0.991    47 H    0.986    46 H    0.986
                            23 C    0.919
    25   8 O    1.558 --    23 C    1.274
    26   1 H    1.032 --     1 C    0.972
    27   1 H    1.025 --     1 C    0.981
    28   1 H    1.027 --     1 C    0.980
    29   1 H    1.009 --     5 C    0.981
    30   1 H    1.003 --     5 C    0.985
    31   1 H    1.009 --     5 C    0.986
    32   1 H    1.012 --     6 C    0.985
    33   1 H    1.024 --     6 C    0.982
    34   1 H    1.006 --     6 C    0.986
    35   1 H    0.966 --     7 N    0.949
    36   1 H    0.964 --     7 N    0.948
    37   1 H    0.980 --    12 N    0.897
    38   1 H    1.006 --    13 C    0.978
    39   1 H    1.013 --    13 C    0.971
    40   1 H    1.014 --    15 C    0.968
    41   1 H    0.999 --    16 C    0.970
    42   1 H    0.999 --    19 C    0.970
    43   1 H    1.000 --    20 C    0.972
    44   1 H    0.884 --    22 O    0.793
    45   1 H    1.011 --    24 C    0.991
    46   1 H    1.014 --    24 C    0.986
    47   1 H    1.014 --    24 C    0.986
 ---------------------------------------------------------------------------

           -------------------------------------------------
          | TOTAL ENERGY              -80.209728762974 Eh   |
          | GRADIENT NORM               0.000654750774 Eh/α |
          | HOMO-LUMO GAP               1.850904134581 eV   |
           -------------------------------------------------

 * finished run on 2023/06/20 at 15:13:57.090
