   * xtb version 6.5.1 (579679a) compiled by 'ehlert@majestix' on 2022-07-11
          program call               : /lustre/hpc/kemi/ree/PhD/git/ReactivityQM/dep/xtb-6.5.1/bin/xtb --gfn 1 /lustre/hpc/kemi/ree/PhD/git/ReactivityQM/calculations/R02methylcation/reac01prodN10/conf18/R02methylcation_reac01prodN10_conf18_gfn1.xyz --opt --vfukui --chrg 0 --uhf 0 --alpb DMSO

   ID    Z sym.   atoms
    1    6 C      1, 3, 5, 6, 8, 11-15, 17, 19, 22, 23
    2    8 O      2, 4, 7, 9, 18, 24
    3    7 N      10, 16, 20, 21, 25
    4    1 H      26-42

      * Solvation model:               ALPB
        Solvent                        DMSO
        Solvent mass                       7.8130E+01 g/mol
          :  Hamiltonian                  GFN1-xTB          :
 * total energy  :   -82.9629322 Eh     change       -0.1450928E-10 Eh
 * total energy  :   -82.9752350 Eh     change       -0.1230283E-01 Eh
 * total energy  :   -82.9807797 Eh     change       -0.5544640E-02 Eh
 * total energy  :   -82.9819957 Eh     change       -0.1216001E-02 Eh
 * total energy  :   -82.9826746 Eh     change       -0.6789702E-03 Eh
 * total energy  :   -82.9830148 Eh     change       -0.3402203E-03 Eh
 * total energy  :   -82.9831988 Eh     change       -0.1839346E-03 Eh
 * total energy  :   -82.9833059 Eh     change       -0.1071698E-03 Eh
 * total energy  :   -82.9833947 Eh     change       -0.8874543E-04 Eh
 * total energy  :   -82.9834760 Eh     change       -0.8129489E-04 Eh
 * total energy  :   -82.9837463 Eh     change       -0.1805531E-04 Eh
 * total energy  :   -82.9837585 Eh     change       -0.1226923E-04 Eh
 * total energy  :   -82.9837673 Eh     change       -0.8779532E-05 Eh
 * total energy  :   -82.9837734 Eh     change       -0.6141516E-05 Eh
 * total energy  :   -82.9837839 Eh     change       -0.1041625E-04 Eh
 * total energy  :   -82.9837887 Eh     change       -0.4851042E-05 Eh
 * total energy  :   -82.9837960 Eh     change       -0.7290603E-05 Eh
 * total energy  :   -82.9838022 Eh     change       -0.6177612E-05 Eh
 * total energy  :   -82.9838060 Eh     change       -0.3857773E-05 Eh
   *** GEOMETRY OPTIMIZATION CONVERGED AFTER 29 ITERATIONS ***

 final structure:
================
42
 xtb: 6.5.1 (579679a)
C            4.30711763501152       -0.15525946007346        3.47117530171650
O            3.97874758071795        0.07149341690097        2.09390051548626
C            2.73540147680789        0.42186279248003        1.82513976118346
O            1.86407895092285        0.55518572867159        2.64635974850809
C            2.50471394481626        0.62612134495684        0.33968841826791
C            3.63575430004424        0.91823293632868       -0.58800071306805
O            4.67884630613399        1.41132219741003       -0.24435243976598
C            3.33339681198304        0.58096232822438       -2.05035109417203
O            4.20087470607766        0.38293019692268       -2.87577357416324
N            2.01594158129470        0.50493717938674       -2.33194165227230
C            0.92191020121854        0.76980187119069       -1.41812699557314
C            0.49514703199723        2.24133877407631       -1.54585385999624
C           -0.24868049566687       -0.22443454080606       -1.70794140290451
C            0.27058801788334       -1.66390542576085       -1.61127630243017
C           -0.89806201530829        0.03648404043935       -3.06780641230111
N           -1.22087303566599        0.00690676458760       -0.64024118030650
C           -2.39798822607592       -0.64974706630171       -0.54357382107151
O           -2.87490415260356       -1.38901021635053       -1.38511188208676
C           -3.06614726915019       -0.33330076105978        0.74542759231047
N           -2.58348282000009        0.40860625811406        1.69616967285591
N           -3.51055291074261        0.42028732040481        2.69441085747902
C           -4.49954157090140       -0.31759359584584        2.28919639316538
C           -5.75185408246475       -0.62593440860639        3.01405968710955
O           -4.27758710697790       -0.82270153158808        1.06685317122213
N            1.29234900155479        0.57301587806156       -0.05048935250221
H            4.09994456093915        0.74380813975137        4.05494013387610
H            5.36759412657938       -0.39489986211662        3.50002446813828
H            3.71618054690027       -0.98678198837184        3.86014759599744
H            1.78183085917347        0.39677150422161       -3.30693067664797
H           -0.40112736585726        2.42112628210377       -0.95667565368285
H            0.29915571161015        2.47614846481510       -2.58865428145600
H            1.29976329612841        2.87795980208655       -1.18246112408860
H            1.02869597677056       -1.83680247911220       -2.37208313116403
H           -0.55141787495087       -2.36048856570185       -1.76742713590176
H            0.70409398721057       -1.83729421375190       -0.62714231013058
H           -1.62376725805972       -0.74610689097458       -3.28304165407419
H           -0.14640703840382        0.03156312333390       -3.85425954077493
H           -1.41189554656715        0.99568550099756       -3.07135779181322
H           -0.87101302760067        0.46072462579092        0.19615255875015
H           -6.61126540182338       -0.42308985599744        2.37621593364887
H           -5.81092165190914       -0.02101010569764        3.91550142585232
H           -5.77464176104602       -1.68178850313943        3.28551074678309

          :  Hamiltonian                  GFN1-xTB          :
         :: total energy             -82.983806034173 Eh    ::
         :: gradient norm              0.000526808529 Eh/a0 ::
         :: HOMO-LUMO gap              1.760233158186 eV    ::
         :: SCC energy               -83.764755570772 Eh    ::
         :: -> Gsolv                  -0.053343574305 Eh    ::
         :: repulsion energy           0.808252966202 Eh    ::

    * Orbital Energies and Occupations

         #    Occupation            Energy/Eh            Energy/eV
      -------------------------------------------------------------
         1        2.0000           -0.8651129             -23.5409
       ...           ...                  ...                  ...
        55        2.0000           -0.5083477             -13.8328
        56        2.0000           -0.5072612             -13.8033
        57        2.0000           -0.5056470             -13.7594
        58        2.0000           -0.5023838             -13.6706
        59        2.0000           -0.4976779             -13.5425
        60        2.0000           -0.4843223             -13.1791
        61        2.0000           -0.4836914             -13.1619
        62        2.0000           -0.4713860             -12.8271
        63        2.0000           -0.4656738             -12.6716
        64        2.0000           -0.4610945             -12.5470
        65        2.0000           -0.4538145             -12.3489
        66        2.0000           -0.4485184             -12.2048
        67        2.0000           -0.4402278             -11.9792 (HOMO)
        68                         -0.3755405             -10.2190 (LUMO)
        69                         -0.3216159              -8.7516
        70                         -0.3126664              -8.5081
        71                         -0.2582881              -7.0284
        72                         -0.2526187              -6.8741
        73                         -0.2070050              -5.6329
        74                         -0.2009560              -5.4683
        75                         -0.1441098              -3.9214
        76                         -0.1435301              -3.9057
        77                         -0.1433002              -3.8994
        78                         -0.1392917              -3.7903
       ...                                ...                  ...
       134                          0.7653155              20.8253
      -------------------------------------------------------------
                  HL-Gap            0.0646874 Eh            1.7602 eV

Wiberg/Mayer (AO) data.
largest (>0.10) Wiberg bond orders for each atom

     #   Z sym  total        # sym  WBO       # sym  WBO       # sym  WBO
 ---------------------------------------------------------------------------
     1   6 C    3.859 --    27 H    0.985    26 H    0.979    28 H    0.978
                             2 O    0.884
     2   8 O    2.226 --     3 C    1.149     1 C    0.884     4 O    0.147
     3   6 C    3.854 --     4 O    1.684     2 O    1.149     5 C    0.944
     4   8 O    1.948 --     3 C    1.684     2 O    0.147
     5   6 C    3.952 --    25 N    1.790     6 C    0.992     3 C    0.944
     6   6 C    3.856 --     7 O    1.806     5 C    0.992     8 C    0.906
     7   8 O    2.011 --     6 C    1.806
     8   6 C    3.904 --     9 O    1.635    10 N    1.248     6 C    0.906
     9   8 O    1.929 --     8 C    1.635    10 N    0.185
    10   7 N    3.363 --     8 C    1.248    11 C    0.940    29 H    0.882
                             9 O    0.185
    11   6 C    3.913 --    25 N    1.000    12 C    0.947    10 N    0.940
                            13 C    0.929
    12   6 C    3.982 --    32 H    0.982    30 H    0.981    31 H    0.980
                            11 C    0.947
    13   6 C    3.929 --    15 C    0.999    14 C    0.991    16 N    0.934
                            11 C    0.929
    14   6 C    3.990 --    13 C    0.991    33 H    0.984    35 H    0.984
                            34 H    0.981
    15   6 C    3.989 --    13 C    0.999    38 H    0.982    37 H    0.981
                            36 H    0.974
    16   7 N    3.339 --    17 C    1.244    13 C    0.934    39 H    0.886
                            18 O    0.175
    17   6 C    3.916 --    18 O    1.599    16 N    1.244    19 C    0.989
    18   8 O    1.915 --    17 C    1.599    16 N    0.175
    19   6 C    3.875 --    20 N    1.611    24 O    1.064    17 C    0.989
    20   7 N    3.017 --    19 C    1.611    21 N    1.200
    21   7 N    2.981 --    22 C    1.604    20 N    1.200
    22   6 C    3.871 --    21 N    1.604    24 O    1.083    23 C    1.031
    23   6 C    3.986 --    22 C    1.031    41 H    0.982    40 H    0.967
                            42 H    0.960
    24   8 O    2.330 --    22 C    1.083    19 C    1.064
    25   7 N    3.064 --     5 C    1.790    11 C    1.000
    26   1 H    1.004 --     1 C    0.979
    27   1 H    1.008 --     1 C    0.985
    28   1 H    1.004 --     1 C    0.978
    29   1 H    0.929 --    10 N    0.882
    30   1 H    0.999 --    12 C    0.981
    31   1 H    0.999 --    12 C    0.980
    32   1 H    0.999 --    12 C    0.982
    33   1 H    1.002 --    14 C    0.984
    34   1 H    1.004 --    14 C    0.981
    35   1 H    1.004 --    14 C    0.984
    36   1 H    1.009 --    15 C    0.974
    37   1 H    0.998 --    15 C    0.981
    38   1 H    1.001 --    15 C    0.982
    39   1 H    0.969 --    16 N    0.886
    40   1 H    0.997 --    23 C    0.967
    41   1 H    0.998 --    23 C    0.982
    42   1 H    0.997 --    23 C    0.960
 ---------------------------------------------------------------------------

           -------------------------------------------------
          | TOTAL ENERGY              -82.983806034173 Eh   |
          | GRADIENT NORM               0.000526808529 Eh/α |
          | HOMO-LUMO GAP               1.760233158186 eV   |
           -------------------------------------------------

 * finished run on 2023/06/21 at 17:41:52.479
