   * xtb version 6.5.1 (579679a) compiled by 'ehlert@majestix' on 2022-07-11
          program call               : /lustre/hpc/kemi/ree/PhD/git/ReactivityQM/dep/xtb-6.5.1/bin/xtb --gfn 1 /lustre/hpc/kemi/ree/PhD/git/ReactivityQM/calculations/R02methylcation/reac01prodN04/conf05/R02methylcation_reac01prodN04_conf05_gfn1.xyz --opt --vfukui --chrg 0 --uhf 0 --alpb DMSO

   ID    Z sym.   atoms
    1    6 C      1, 3, 5, 6, 8-11, 13, 15, 18, 19, 22, 24
    2    8 O      2, 4, 14, 20, 23, 25
    3    7 N      7, 12, 16, 17, 21
    4    1 H      26-42

      * Solvation model:               ALPB
        Solvent                        DMSO
        Solvent mass                       7.8130E+01 g/mol
          :  Hamiltonian                  GFN1-xTB          :
 * total energy  :   -82.9659104 Eh     change       -0.8299139E-11 Eh
 * total energy  :   -82.9831383 Eh     change       -0.1722789E-01 Eh
 * total energy  :   -82.9895179 Eh     change       -0.6379605E-02 Eh
 * total energy  :   -82.9912516 Eh     change       -0.1733676E-02 Eh
 * total energy  :   -82.9920429 Eh     change       -0.7913185E-03 Eh
 * total energy  :   -82.9923180 Eh     change       -0.2751086E-03 Eh
 * total energy  :   -82.9925035 Eh     change       -0.1855329E-03 Eh
 * total energy  :   -82.9926401 Eh     change       -0.1365345E-03 Eh
 * total energy  :   -82.9927800 Eh     change       -0.1399409E-03 Eh
 * total energy  :   -82.9929578 Eh     change       -0.1777638E-03 Eh
 * total energy  :   -82.9944796 Eh     change       -0.3009032E-04 Eh
 * total energy  :   -82.9945019 Eh     change       -0.2224337E-04 Eh
 * total energy  :   -82.9945168 Eh     change       -0.1495117E-04 Eh
 * total energy  :   -82.9945334 Eh     change       -0.1662977E-04 Eh
 * total energy  :   -82.9945453 Eh     change       -0.1190110E-04 Eh
 * total energy  :   -82.9945555 Eh     change       -0.1017399E-04 Eh
 * total energy  :   -82.9945629 Eh     change       -0.7334958E-05 Eh
 * total energy  :   -82.9945683 Eh     change       -0.5479415E-05 Eh
 * total energy  :   -82.9945726 Eh     change       -0.4304998E-05 Eh
   *** GEOMETRY OPTIMIZATION CONVERGED AFTER 42 ITERATIONS ***

 final structure:
================
42
 xtb: 6.5.1 (579679a)
C            0.94651389116309        0.93151291749276        1.96322232308049
O            2.11969007322032        0.17465336026338        2.25924035310337
C            2.86783952921659       -0.46380604788232        1.37726565523491
O            3.99796515209481       -0.91813486280696        1.87612217056816
C            4.31671423998179       -0.66141576499075        3.24540361901683
C            2.59119982881707       -0.68360343925271        0.02370373694482
N            1.33418388283018       -0.30915488367955       -0.44297693615268
C            1.02695605185924       -0.43908019457255       -1.67955388314349
C           -0.34918849322783       -0.02410162591471       -2.16635002455002
C           -0.24919839212497        1.36578918612302       -2.81406282760632
C           -0.94389375717731       -1.04780527801306       -3.14104868134137
N           -1.18838399404343        0.04662409305906       -0.97324999825570
C           -2.46858027921535        0.45697605109616       -0.95147887701567
O           -3.13128473427388        0.79070538580468       -1.91801808977240
C           -2.99084909384248        0.44719615390230        0.44279827034666
N           -2.31832336183712        0.13607714083922        1.51119690577375
N           -3.17257054842544        0.26117225629901        2.56541960968609
C           -4.31272274322265        0.64155867185197        2.07281432492943
C           -5.56730376654298        0.91440623043230        2.80787568759695
O           -4.25997745895804        0.77612301416869        0.73936580476189
N            1.91580719788913       -0.91130040535714       -2.61588430000636
C            3.18011385064952       -1.35354640251124       -2.31908097131699
O            3.91252358693595       -1.77680699525748       -3.19349488949879
C            3.57648099069799       -1.27091773642967       -0.85299362048429
O            4.68309858726984       -1.67319553090679       -0.51322889970113
H            1.10237241600270        1.56492263877309        1.08929788004177
H            0.76152428682697        1.54588519301831        2.84516555819773
H            0.09410897555624        0.27074705076086        1.78961444716676
H            5.29721167468762       -1.10275184860270        3.41529389754123
H            4.34695746805205        0.41383179727358        3.43117462324031
H            3.57469547857598       -1.12316600678270        3.89971293439030
H            0.44951600621552        1.33131986305012       -3.64777050613882
H            0.10429028032409        2.08928284198911       -2.08106700825904
H           -1.22614354278905        1.67535913644870       -3.18115144340507
H           -1.97029682680679       -0.77021286068824       -3.37513876109861
H           -0.37415432730482       -1.06565085607375       -4.06744321381885
H           -0.93539321280114       -2.04087803085428       -2.69477034191609
H           -0.73850442352225       -0.19140639221798       -0.09915827672802
H           -5.41321107422332        0.74024336942103        3.86983298874296
H           -6.36212275638105        0.26469157913905        2.44172920756612
H           -5.87612454885562        1.94738317446904        2.64848501772166
H            1.64846488669795       -0.95952794287734       -3.58681446544106

          :  Hamiltonian                  GFN1-xTB          :
         :: total energy             -82.994572638537 Eh    ::
         :: gradient norm              0.000529233240 Eh/a0 ::
         :: HOMO-LUMO gap              2.373189390570 eV    ::
         :: SCC energy               -83.773175551566 Eh    ::
         :: -> Gsolv                  -0.057327448031 Eh    ::
         :: repulsion energy           0.805309021061 Eh    ::

    * Orbital Energies and Occupations

         #    Occupation            Energy/Eh            Energy/eV
      -------------------------------------------------------------
         1        2.0000           -0.8652098             -23.5436
       ...           ...                  ...                  ...
        55        2.0000           -0.5066234             -13.7859
        56        2.0000           -0.5030724             -13.6893
        57        2.0000           -0.5027969             -13.6818
        58        2.0000           -0.4959088             -13.4944
        59        2.0000           -0.4840035             -13.1704
        60        2.0000           -0.4796696             -13.0525
        61        2.0000           -0.4663055             -12.6888
        62        2.0000           -0.4614306             -12.5562
        63        2.0000           -0.4557895             -12.4027
        64        2.0000           -0.4519924             -12.2993
        65        2.0000           -0.4469777             -12.1629
        66        2.0000           -0.4220059             -11.4834
        67        2.0000           -0.4152798             -11.3003 (HOMO)
        68                         -0.3280667              -8.9271 (LUMO)
        69                         -0.3108145              -8.4577
        70                         -0.2757103              -7.5025
        71                         -0.2585757              -7.0362
        72                         -0.2493622              -6.7855
        73                         -0.1989714              -5.4143
        74                         -0.1575215              -4.2864
        75                         -0.1486451              -4.0448
        76                         -0.1427740              -3.8851
        77                         -0.1399052              -3.8070
        78                         -0.1370726              -3.7299
       ...                                ...                  ...
       134                          0.7552939              20.5526
      -------------------------------------------------------------
                  HL-Gap            0.0872131 Eh            2.3732 eV

Wiberg/Mayer (AO) data.
largest (>0.10) Wiberg bond orders for each atom

     #   Z sym  total        # sym  WBO       # sym  WBO       # sym  WBO
 ---------------------------------------------------------------------------
     1   6 C    3.852 --    27 H    0.981    26 H    0.978    28 H    0.968
                             2 O    0.881
     2   8 O    2.223 --     3 C    1.133     1 C    0.881
     3   6 C    3.833 --     6 C    1.331     4 O    1.154     2 O    1.133
     4   8 O    2.240 --     3 C    1.154     5 C    0.888
     5   6 C    3.861 --    29 H    0.984    31 H    0.978    30 H    0.978
                             4 O    0.888
     6   6 C    3.921 --     3 C    1.331    24 C    1.165     7 N    1.105
     7   7 N    3.057 --     8 C    1.645     6 C    1.105
     8   6 C    3.931 --     7 N    1.645    21 N    1.113     9 C    0.980
     9   6 C    3.937 --    11 C    0.986     8 C    0.980    10 C    0.975
                            12 N    0.931
    10   6 C    3.986 --    33 H    0.985    32 H    0.985    34 H    0.979
                             9 C    0.975
    11   6 C    3.988 --     9 C    0.986    37 H    0.985    36 H    0.981
                            35 H    0.978
    12   7 N    3.356 --    13 C    1.265     9 C    0.931    38 H    0.880
                            14 O    0.181
    13   6 C    3.919 --    14 O    1.589    12 N    1.265    15 C    0.984
    14   8 O    1.909 --    13 C    1.589    12 N    0.181
    15   6 C    3.874 --    16 N    1.607    20 O    1.068    13 C    0.984
    16   7 N    3.038 --    15 C    1.607    17 N    1.197
    17   7 N    2.980 --    18 C    1.606    16 N    1.197
    18   6 C    3.870 --    17 N    1.606    20 O    1.082    19 C    1.031
    19   6 C    3.986 --    18 C    1.031    39 H    0.983    40 H    0.963
                            41 H    0.963
    20   8 O    2.332 --    18 C    1.082    15 C    1.068
    21   7 N    3.435 --    22 C    1.155     8 C    1.113    42 H    0.885
                            23 O    0.137
    22   6 C    3.882 --    23 O    1.640    21 N    1.155    24 C    0.940
    23   8 O    1.918 --    22 C    1.640    21 N    0.137
    24   6 C    3.921 --    25 O    1.633     6 C    1.165    22 C    0.940
    25   8 O    1.919 --    24 C    1.633
    26   1 H    1.016 --     1 C    0.978
    27   1 H    1.008 --     1 C    0.981
    28   1 H    1.038 --     1 C    0.968
    29   1 H    1.008 --     5 C    0.984
    30   1 H    1.005 --     5 C    0.978
    31   1 H    1.005 --     5 C    0.978
    32   1 H    1.000 --    10 C    0.985
    33   1 H    1.002 --    10 C    0.985
    34   1 H    1.007 --    10 C    0.979
    35   1 H    1.007 --    11 C    0.978
    36   1 H    0.999 --    11 C    0.981
    37   1 H    1.001 --    11 C    0.985
    38   1 H    0.968 --    12 N    0.880
    39   1 H    0.998 --    19 C    0.983
    40   1 H    0.996 --    19 C    0.963
    41   1 H    0.996 --    19 C    0.963
    42   1 H    0.934 --    21 N    0.885
 ---------------------------------------------------------------------------

           -------------------------------------------------
          | TOTAL ENERGY              -82.994572638537 Eh   |
          | GRADIENT NORM               0.000529233240 Eh/α |
          | HOMO-LUMO GAP               2.373189390570 eV   |
           -------------------------------------------------

 * finished run on 2023/06/21 at 17:34:18.314
