   * xtb version 6.5.1 (579679a) compiled by 'ehlert@majestix' on 2022-07-11
          program call               : /lustre/hpc/kemi/ree/PhD/git/ReactivityQM/dep/xtb-6.5.1/bin/xtb --gfn 1 /lustre/hpc/kemi/ree/PhD/git/ReactivityQM/calculations/R02oxygendeprot/reac01prodE08/conf15/R02oxygendeprot_reac01prodE08_conf15_gfn1.xyz --opt --vfukui --chrg -2 --uhf 0 --alpb DMSO

   ID    Z sym.   atoms
    1    6 C      1, 3, 5, 7-10, 12, 14, 15, 18, 19, 22, 24
    2    8 O      2, 4, 13, 20, 23, 25
    3    7 N      6, 11, 16, 17, 21
    4    1 H      26-42

      * Solvation model:               ALPB
        Solvent                        DMSO
        Solvent mass                       7.8130E+01 g/mol
          :  Hamiltonian                  GFN1-xTB          :
 * total energy  :   -83.6257283 Eh     change       -0.3028475E-09 Eh
 * total energy  :   -83.6383339 Eh     change       -0.1260552E-01 Eh
 * total energy  :   -83.6430098 Eh     change       -0.4675900E-02 Eh
 * total energy  :   -83.6439031 Eh     change       -0.8933713E-03 Eh
 * total energy  :   -83.6446763 Eh     change       -0.7731327E-03 Eh
 * total energy  :   -83.6450503 Eh     change       -0.3740031E-03 Eh
 * total energy  :   -83.6453616 Eh     change       -0.3113325E-03 Eh
 * total energy  :   -83.6455450 Eh     change       -0.1833649E-03 Eh
 * total energy  :   -83.6456409 Eh     change       -0.9597505E-04 Eh
 * total energy  :   -83.6457010 Eh     change       -0.6006046E-04 Eh
 * total energy  :   -83.6473163 Eh     change        0.3167953E-04 Eh
 * total energy  :   -83.6472097 Eh     change        0.1065767E-03 Eh
 * total energy  :   -83.6473641 Eh     change       -0.1543457E-03 Eh
 * total energy  :   -83.6474303 Eh     change       -0.6625991E-04 Eh
 * total energy  :   -83.6474516 Eh     change       -0.2128480E-04 Eh
 * total energy  :   -83.6474679 Eh     change       -0.1629891E-04 Eh
 * total energy  :   -83.6474756 Eh     change       -0.7723332E-05 Eh
 * total energy  :   -83.6474847 Eh     change       -0.9095328E-05 Eh
 * total energy  :   -83.6474893 Eh     change       -0.4615086E-05 Eh
   *** GEOMETRY OPTIMIZATION CONVERGED AFTER 50 ITERATIONS ***

 final structure:
================
42
 xtb: 6.5.1 (579679a)
C            4.89659761688897        2.68336869762002       -1.26786002935068
O            3.93803829793627        1.76110483020782       -0.77638487647314
C            4.11976283312284        1.35255133635762        0.52083622037009
O            5.05017169373465        1.79898924436435        1.17738671085954
C            3.12276794166763        0.38877840366310        0.94624176449514
N            2.17557047729977        0.05812534620931       -0.00682947198868
C            1.25541100728898       -0.79925229124499        0.25002519287120
C            0.23422276397876       -1.15339377381156       -0.82406433630347
C            0.62196718676923       -0.43250788180380       -2.11887056523529
C            0.21286046702954       -2.66871362381073       -1.07741844922768
N           -1.09458797637136       -0.66002932845646       -0.44811885859619
C           -1.92041001489891       -1.21799785737314        0.47314470498068
O           -1.57770964754344       -2.12057323511392        1.24494884823004
C           -3.26610352174916       -0.48542432491482        0.63197420206918
C           -4.39768502683823       -1.49270845377315        0.90446225177302
N           -3.03856816722763        0.42428573557093        1.75991913805296
N           -3.19882068920485        1.67894947731986        1.25368467036723
C           -3.49872536298317        1.63401578842068        0.01062997288848
C           -3.78023119370225        2.76754430694864       -0.91227855359452
O           -3.55969585003492        0.31918752881951       -0.50373503190321
N            1.17080505516512       -1.41994669906368        1.47491042749141
C            2.03464122290510       -1.19280309271259        2.50769964359370
O            1.89873905507060       -1.79919249467438        3.57194440675606
C            3.12819260610576       -0.17941535393399        2.24731028029115
O            3.93766778325178        0.07729291105309        3.15990193485231
H            5.90411695029307        2.25584499822870       -1.22983051928542
H            4.63136849354046        2.90061876646041       -2.30170611202524
H            4.88601388505800        3.60945208652660       -0.68302411573039
H            0.63105991394010        0.64626461039476       -1.96459589913122
H            1.61753511360680       -0.74404604378051       -2.43101451038646
H           -0.08688252935545       -0.67425018132996       -2.90830320732614
H            1.20035705416232       -2.99422372744612       -1.40181284258022
H           -0.06124376398558       -3.22021422274880       -0.18027547777140
H           -0.50785492617341       -2.89840695355217       -1.86059553228149
H           -1.54877291886641       -0.09278747768023       -1.15038658534744
H           -4.09788054501627       -2.16377876960303        1.70776259504805
H           -5.29717060244640       -0.95574797048017        1.19874848106564
H           -4.60431833345825       -2.07209200470019        0.00618440144803
H           -3.00589308598087        2.86408076853030       -1.67803845856243
H           -3.82267654996567        3.69334788644716       -0.33953730692668
H           -4.73436991660518        2.62349065156597       -1.42321677994821
H            0.43173220358253       -2.09978561269972        1.62757067247056

          :  Hamiltonian                  GFN1-xTB          :
         :: total energy             -83.647489349199 Eh    ::
         :: gradient norm              0.000846773431 Eh/a0 ::
         :: HOMO-LUMO gap              0.391376575327 eV    ::
         :: SCC energy               -84.385210135302 Eh    ::
         :: -> Gsolv                  -0.278287419571 Eh    ::
         :: repulsion energy           0.764358713117 Eh    ::

    * Orbital Energies and Occupations

         #    Occupation            Energy/Eh            Energy/eV
      -------------------------------------------------------------
         1        2.0000           -0.7925005             -21.5650
       ...           ...                  ...                  ...
        56        2.0000           -0.4481661             -12.1952
        57        2.0000           -0.4455334             -12.1236
        58        2.0000           -0.4323904             -11.7659
        59        2.0000           -0.4275472             -11.6342
        60        2.0000           -0.4128243             -11.2335
        61        2.0000           -0.4046253             -11.0104
        62        2.0000           -0.4025089             -10.9528
        63        2.0000           -0.3996164             -10.8741
        64        2.0000           -0.3787534             -10.3064
        65        2.0000           -0.3686408             -10.0312
        66        2.0000           -0.3570107              -9.7148
        67        2.0000           -0.3499542              -9.5227
        68        1.9990           -0.2763837              -7.5208 (HOMO)
        69        0.0010           -0.2620008              -7.1294 (LUMO)
        70                         -0.2281461              -6.2082
        71                         -0.2087799              -5.6812
        72                         -0.1885116              -5.1297
        73                         -0.1624799              -4.4213
        74                         -0.1203251              -3.2742
        75                         -0.1096756              -2.9844
        76                         -0.1076052              -2.9281
        77                         -0.1050736              -2.8592
        78                         -0.0996836              -2.7125
        79                         -0.0889928              -2.4216
       ...                                ...                  ...
       134                          0.7682693              20.9057
      -------------------------------------------------------------
                  HL-Gap            0.0143828 Eh            0.3914 eV

Wiberg/Mayer (AO) data.
largest (>0.10) Wiberg bond orders for each atom

     #   Z sym  total        # sym  WBO       # sym  WBO       # sym  WBO
 ---------------------------------------------------------------------------
     1   6 C    3.902 --    27 H    0.987    26 H    0.980    28 H    0.980
                             2 O    0.930
     2   8 O    2.133 --     3 C    1.018     1 C    0.930     4 O    0.106
     3   6 C    3.848 --     4 O    1.584     5 C    1.128     2 O    1.018
     4   8 O    1.861 --     3 C    1.584     2 O    0.106
     5   6 C    3.917 --    24 C    1.270     6 N    1.150     3 C    1.128
                            25 O    0.128
     6   7 N    3.024 --     7 C    1.627     5 C    1.150
     7   6 C    3.933 --     6 N    1.627    21 N    1.109     8 C    0.970
     8   6 C    3.952 --     9 C    1.002    10 C    0.986     7 C    0.970
                            11 N    0.930
     9   6 C    3.995 --     8 C    1.002    31 H    0.986    30 H    0.985
                            29 H    0.984
    10   6 C    3.992 --    32 H    0.987     8 C    0.986    34 H    0.985
                            33 H    0.978
    11   7 N    3.299 --    12 C    1.227     8 C    0.930    35 H    0.902
                            13 O    0.140
    12   6 C    3.866 --    13 O    1.535    11 N    1.227    14 C    0.922
    13   8 O    1.873 --    12 C    1.535    11 N    0.140
    14   6 C    3.896 --    16 N    0.978    15 C    0.972    20 O    0.922
                            12 C    0.922
    15   6 C    3.996 --    38 H    0.988    37 H    0.987    36 H    0.986
                            14 C    0.972
    16   7 N    2.622 --    17 N    1.192    14 C    0.978    18 C    0.207
    17   7 N    3.019 --    18 C    1.668    16 N    1.192
    18   6 C    3.862 --    17 N    1.668    19 C    1.017    20 O    0.918
                            16 N    0.207
    19   6 C    3.996 --    18 C    1.017    40 H    0.987    41 H    0.978
                            39 H    0.976
    20   8 O    2.064 --    14 C    0.922    18 C    0.918
    21   7 N    3.447 --    22 C    1.181     7 C    1.109    42 H    0.873
                            23 O    0.136
    22   6 C    3.884 --    23 O    1.561    21 N    1.181    24 C    0.970
    23   8 O    1.839 --    22 C    1.561    21 N    0.136
    24   6 C    3.942 --    25 O    1.514     5 C    1.270    22 C    0.970
    25   8 O    1.817 --    24 C    1.514     5 C    0.128
    26   1 H    1.015 --     1 C    0.980
    27   1 H    1.016 --     1 C    0.987
    28   1 H    1.015 --     1 C    0.980
    29   1 H    1.014 --     9 C    0.984
    30   1 H    1.013 --     9 C    0.985
    31   1 H    1.002 --     9 C    0.986
    32   1 H    1.005 --    10 C    0.987
    33   1 H    1.016 --    10 C    0.978
    34   1 H    1.003 --    10 C    0.985
    35   1 H    0.961 --    11 N    0.902
    36   1 H    1.018 --    15 C    0.986
    37   1 H    1.020 --    15 C    0.987
    38   1 H    1.011 --    15 C    0.988
    39   1 H    1.010 --    19 C    0.976
    40   1 H    1.010 --    19 C    0.987
    41   1 H    1.009 --    19 C    0.978
    42   1 H    0.961 --    21 N    0.873
 ---------------------------------------------------------------------------

           -------------------------------------------------
          | TOTAL ENERGY              -83.647489349199 Eh   |
          | GRADIENT NORM               0.000846773431 Eh/α |
          | HOMO-LUMO GAP               0.391376575327 eV   |
           -------------------------------------------------

 * finished run on 2023/06/21 at 17:10:18.731
