   * xtb version 6.5.1 (579679a) compiled by 'ehlert@majestix' on 2022-07-11
          program call               : /lustre/hpc/kemi/ree/PhD/git/ReactivityQM/dep/xtb-6.5.1/bin/xtb --gfn 1 /lustre/hpc/kemi/ree/PhD/git/ReactivityQM/calculations/R02oxygendeprot/reac01prodN12/conf06/R02oxygendeprot_reac01prodN12_conf06_gfn1.xyz --opt --vfukui --chrg 0 --uhf 0 --alpb DMSO

   ID    Z sym.   atoms
    1    6 C      1, 3, 5, 7-10, 12, 14, 15, 18, 19, 22, 24
    2    8 O      2, 4, 13, 20, 23, 25
    3    7 N      6, 11, 16, 17, 21
    4    1 H      26-42

      * Solvation model:               ALPB
        Solvent                        DMSO
        Solvent mass                       7.8130E+01 g/mol
          :  Hamiltonian                  GFN1-xTB          :
 * total energy  :   -82.9289815 Eh     change       -0.3876721E-10 Eh
 * total energy  :   -82.9390786 Eh     change       -0.1009714E-01 Eh
 * total energy  :   -82.9429453 Eh     change       -0.3866663E-02 Eh
 * total energy  :   -82.9437829 Eh     change       -0.8376198E-03 Eh
 * total energy  :   -82.9444522 Eh     change       -0.6692887E-03 Eh
 * total energy  :   -82.9449391 Eh     change       -0.4869633E-03 Eh
 * total energy  :   -82.9454335 Eh     change       -0.4943949E-03 Eh
 * total energy  :   -82.9459753 Eh     change       -0.5417447E-03 Eh
 * total energy  :   -82.9465503 Eh     change       -0.5750359E-03 Eh
 * total energy  :   -82.9471044 Eh     change       -0.5540265E-03 Eh
 * total energy  :   -82.9545986 Eh     change       -0.5831353E-04 Eh
 * total energy  :   -82.9546273 Eh     change       -0.2867427E-04 Eh
 * total energy  :   -82.9546653 Eh     change       -0.3808034E-04 Eh
 * total energy  :   -82.9547073 Eh     change       -0.4194537E-04 Eh
 * total energy  :   -82.9547409 Eh     change       -0.3359556E-04 Eh
 * total energy  :   -82.9547505 Eh     change       -0.9623490E-05 Eh
 * total energy  :   -82.9547591 Eh     change       -0.8631458E-05 Eh
 * total energy  :   -82.9547634 Eh     change       -0.4309403E-05 Eh
 * total energy  :   -82.9547676 Eh     change       -0.4171010E-05 Eh
   *** GEOMETRY OPTIMIZATION CONVERGED AFTER 63 ITERATIONS ***

 final structure:
================
42
 xtb: 6.5.1 (579679a)
C            5.83957464528192        1.18715646831744       -1.41283683087146
O            4.57623562377648        0.76241432994358       -0.90471920199962
C            4.46727379878482       -0.54772915905703       -0.60899809447816
O            5.38511606859417       -1.32280745525813       -0.77630954299564
C            3.13450872795283       -0.88557226033095       -0.06847100234945
N            2.25289262637227        0.14147513414774        0.01218217822048
C            1.06668623317087       -0.04731355507185        0.49787067321912
C            0.08969356896667        1.09461002571322        0.60596507333778
C            0.54797545494210        2.28229134092272       -0.24063306648463
C           -0.09637526081256        1.49161065799222        2.07286271960761
N           -1.22244155965282        0.61704090330789        0.12084423232966
C           -1.30677288743135       -0.02348181244706       -1.04030104958231
O           -0.37777335885940       -0.36635822121603       -1.73295576648433
C           -2.78020679582501       -0.37794871760338       -1.48435448584818
C           -3.03343480093940        0.26515632992614       -2.84643120078178
N           -2.87740960041681       -1.79693161243935       -1.49293306043911
N           -3.75295323920110       -2.15813505258128       -0.60872592461355
C           -4.25379767843532       -1.06445980794766       -0.03929857464595
C           -5.27044065159086       -1.02122896664398        1.01951064695577
O           -3.72103867378216        0.04019538300897       -0.52036611583024
N            0.66437455475000       -1.25626786277958        0.98863496577359
C            1.43092521155358       -2.40194970219036        0.94332873940472
O            0.98790023964831       -3.45356853237398        1.37110001496672
C            2.81145346897952       -2.22417663187938        0.34264610085667
O            3.55744058595075       -3.19967419339749        0.25158764604217
H            5.74439633790526        2.24617971158075       -1.64230102581519
H            6.62022697959128        1.03413132574895       -0.66279466961714
H            6.09614598134940        0.62776300132360       -2.31658074425019
H            0.67157677474693        1.97524594409079       -1.27836779152334
H            1.50299959577126        2.64555402397174        0.13587873288700
H           -0.18874483933837        3.08015671114450       -0.18630951921003
H           -0.81420239627374        2.30565762030766        2.14576601611018
H            0.85532028147053        1.82086229373267        2.48699517731101
H           -0.46331495667880        0.64496480456032        2.64997709119229
H           -2.04841883291662        0.96207824348875        0.57644701889350
H           -3.00885888597609        1.34663939967436       -2.74185184846311
H           -4.01078939555341       -0.04333345133558       -3.20919449626850
H           -2.25742984950874       -0.05938646227267       -3.53681503037262
H           -4.82070882166455       -0.64882700532025        1.94113648488240
H           -6.06052594599393       -0.32327417403265        0.74194603583133
H           -5.68130267664027       -2.01299692433222        1.19008548449925
H           -0.25577465208081       -1.33576009239996        1.38949801060398

          :  Hamiltonian                  GFN1-xTB          :
         :: total energy             -82.954767619373 Eh    ::
         :: gradient norm              0.000761445970 Eh/a0 ::
         :: HOMO-LUMO gap              0.138627478376 eV    ::
         :: SCC energy               -83.726419941836 Eh    ::
         :: -> Gsolv                  -0.094291538756 Eh    ::
         :: repulsion energy           0.798822369974 Eh    ::

    * Orbital Energies and Occupations

         #    Occupation            Energy/Eh            Energy/eV
      -------------------------------------------------------------
         1        2.0000           -0.8887707             -24.1847
       ...           ...                  ...                  ...
        55        2.0000           -0.5154589             -14.0264
        56        2.0000           -0.5088717             -13.8471
        57        2.0000           -0.5056112             -13.7584
        58        2.0000           -0.4950973             -13.4723
        59        2.0000           -0.4887506             -13.2996
        60        2.0000           -0.4873890             -13.2625
        61        2.0000           -0.4792038             -13.0398
        62        2.0000           -0.4773952             -12.9906
        63        2.0000           -0.4717976             -12.8383
        64        2.0000           -0.4684723             -12.7478
        65        2.0000           -0.4529972             -12.3267
        66        2.0000           -0.4144208             -11.2770
        67        1.8718           -0.4004608             -10.8971 (HOMO)
        68        0.1282           -0.3953663             -10.7585 (LUMO)
        69                         -0.3026267              -8.2349
        70                         -0.2900081              -7.8915
        71                         -0.2784868              -7.5780
        72                         -0.2757575              -7.5037
        73                         -0.2279876              -6.2039
        74                         -0.1572016              -4.2777
        75                         -0.1482556              -4.0342
        76                         -0.1426282              -3.8811
        77                         -0.1400764              -3.8117
        78                         -0.1332689              -3.6264
       ...                                ...                  ...
       134                          0.7526211              20.4799
      -------------------------------------------------------------
                  HL-Gap            0.0050945 Eh            0.1386 eV

Wiberg/Mayer (AO) data.
largest (>0.10) Wiberg bond orders for each atom

     #   Z sym  total        # sym  WBO       # sym  WBO       # sym  WBO
 ---------------------------------------------------------------------------
     1   6 C    3.881 --    26 H    0.986    27 H    0.980    28 H    0.980
                             2 O    0.908
     2   8 O    2.168 --     3 C    1.077     1 C    0.908     4 O    0.126
     3   6 C    3.840 --     4 O    1.637     2 O    1.077     5 C    1.042
     4   8 O    1.882 --     3 C    1.637     2 O    0.126
     5   6 C    3.758 --     6 N    1.270    24 C    1.182     3 C    1.042
     6   7 N    2.992 --     7 C    1.508     5 C    1.270
     7   6 C    3.867 --     6 N    1.508    21 N    1.155     8 C    0.988
     8   6 C    3.923 --     9 C    0.992     7 C    0.988    10 C    0.980
                            11 N    0.895
     9   6 C    3.988 --     8 C    0.992    31 H    0.985    30 H    0.982
                            29 H    0.982
    10   6 C    3.978 --    34 H    0.983    33 H    0.982    32 H    0.981
                             8 C    0.980
    11   7 N    3.358 --    12 C    1.319     8 C    0.895    35 H    0.884
                            13 O    0.172
    12   6 C    3.888 --    13 O    1.632    11 N    1.319    14 C    0.810
    13   8 O    1.985 --    12 C    1.632    11 N    0.172
    14   6 C    3.851 --    16 N    1.062    15 C    0.936    20 O    0.908
                            12 C    0.810
    15   6 C    3.938 --    36 H    0.981    37 H    0.979    38 H    0.979
                            14 C    0.936
    16   7 N    2.757 --    17 N    1.463    14 C    1.062
    17   7 N    2.969 --    16 N    1.463    18 C    1.357
    18   6 C    3.696 --    17 N    1.357    20 O    1.158    19 C    1.054
    19   6 C    3.973 --    18 C    1.054    41 H    0.979    40 H    0.949
                            39 H    0.938
    20   8 O    2.242 --    18 C    1.158    14 C    0.908
    21   7 N    3.442 --     7 C    1.155    22 C    1.126    42 H    0.890
                            23 O    0.121
    22   6 C    3.857 --    23 O    1.631    21 N    1.126    24 C    0.952
    23   8 O    1.883 --    22 C    1.631    21 N    0.121
    24   6 C    3.882 --    25 O    1.598     5 C    1.182    22 C    0.952
    25   8 O    1.797 --    24 C    1.598
    26   1 H    1.013 --     1 C    0.986
    27   1 H    1.008 --     1 C    0.980
    28   1 H    1.009 --     1 C    0.980
    29   1 H    1.007 --     9 C    0.982
    30   1 H    1.007 --     9 C    0.982
    31   1 H    1.000 --     9 C    0.985
    32   1 H    0.995 --    10 C    0.981
    33   1 H    0.998 --    10 C    0.982
    34   1 H    0.998 --    10 C    0.983
    35   1 H    0.928 --    11 N    0.884
    36   1 H    0.995 --    15 C    0.981
    37   1 H    0.994 --    15 C    0.979
    38   1 H    1.000 --    15 C    0.979
    39   1 H    0.979 --    19 C    0.938
    40   1 H    0.982 --    19 C    0.949
    41   1 H    0.994 --    19 C    0.979
    42   1 H    0.939 --    21 N    0.890
 ---------------------------------------------------------------------------

           -------------------------------------------------
          | TOTAL ENERGY              -82.954767619373 Eh   |
          | GRADIENT NORM               0.000761445970 Eh/α |
          | HOMO-LUMO GAP               0.138627478376 eV   |
           -------------------------------------------------

 * finished run on 2023/06/21 at 17:27:29.894
