   * xtb version 6.5.1 (579679a) compiled by 'ehlert@majestix' on 2022-07-11
          program call               : /lustre/hpc/kemi/ree/PhD/git/ReactivityQM/dep/xtb-6.5.1/bin/xtb --gfn 1 /lustre/hpc/kemi/ree/PhD/git/ReactivityQM/calculations/R03/reac01/conf07/R03_reac01_conf07_gfn1.xyz --opt --vfukui --chrg 0 --uhf 0 --alpb DMSO

   ID    Z sym.   atoms
    1    7 N      1
    2    6 C      2-6, 8, 9
    3    9 F      7
    4    1 H      10-17

      * Solvation model:               ALPB
        Solvent                        DMSO
        Solvent mass                       7.8130E+01 g/mol
          :  Hamiltonian                  GFN1-xTB          :
 * total energy  :   -27.4592062 Eh     change       -0.8462564E-11 Eh
 * total energy  :   -27.4616474 Eh     change       -0.2441225E-02 Eh
 * total energy  :   -27.4620453 Eh     change       -0.3978828E-03 Eh
 * total energy  :   -27.4620872 Eh     change       -0.4190991E-04 Eh
 * total energy  :   -27.4621194 Eh     change       -0.3218054E-04 Eh
 * total energy  :   -27.4621508 Eh     change       -0.3140398E-04 Eh
 * total energy  :   -27.4621830 Eh     change       -0.3220714E-04 Eh
 * total energy  :   -27.4622416 Eh     change       -0.5855397E-04 Eh
 * total energy  :   -27.4622874 Eh     change       -0.4589347E-04 Eh
 * total energy  :   -27.4623260 Eh     change       -0.3850464E-04 Eh
 * total energy  :   -27.4632657 Eh     change       -0.3732696E-03 Eh
 * total energy  :   -27.4632879 Eh     change       -0.2215211E-04 Eh
 * total energy  :   -27.4632986 Eh     change       -0.1074404E-04 Eh
 * total energy  :   -27.4633037 Eh     change       -0.5046862E-05 Eh
 * total energy  :   -27.4633122 Eh     change       -0.8522597E-05 Eh
 * total energy  :   -27.4633209 Eh     change       -0.8727985E-05 Eh
 * total energy  :   -27.4633325 Eh     change       -0.1159815E-04 Eh
 * total energy  :   -27.4633441 Eh     change       -0.1156609E-04 Eh
 * total energy  :   -27.4633476 Eh     change       -0.3512204E-05 Eh
   *** GEOMETRY OPTIMIZATION CONVERGED AFTER 29 ITERATIONS ***

 final structure:
================
17
 xtb: 6.5.1 (579679a)
N            2.50760028340678       -0.84942188485551        0.08471721962433
C            1.80820139842855        0.40445676311271       -0.19981573929852
C            0.31279600908943        0.22199862147990       -0.09440679931395
C           -0.26865187040892       -1.00157640542520       -0.42107414482662
C           -1.64280641158164       -1.17762263828313       -0.34794558734562
C           -2.41923876233804       -0.10635838239105        0.05510296232689
F           -3.75327763920287       -0.26750575989920        0.13068671414247
C           -1.87890693716921        1.12263459615412        0.38644726526708
C           -0.50136141930221        1.27837571971810        0.30837786544258
H            3.47779512360632       -0.73883560230077       -0.17277121505589
H            2.47965565346909       -1.01978365229723        1.08140504451106
H            2.13837895117791        1.21007971729526        0.47209733770542
H            2.05598801323979        0.70371493419010       -1.22539542889432
H            0.36727276962728       -1.82485812483707       -0.72804349567644
H           -2.10486071900614       -2.12466063872530       -0.59562752649168
H           -2.52026744528481        1.93559332879031        0.70105349335540
H           -0.05831599775153        2.23376740827396        0.56519203452819

          :  Hamiltonian                  GFN1-xTB          :
         :: total energy             -27.463347596491 Eh    ::
         :: gradient norm              0.000374425943 Eh/a0 ::
         :: HOMO-LUMO gap              3.687170512631 eV    ::
         :: SCC energy               -27.819344865709 Eh    ::
         :: -> Gsolv                  -0.016994371604 Eh    ::
         :: repulsion energy           0.363594851182 Eh    ::

    * Orbital Energies and Occupations

         #    Occupation            Energy/Eh            Energy/eV
      -------------------------------------------------------------
         1        2.0000           -0.8591919             -23.3798
       ...           ...                  ...                  ...
        12        2.0000           -0.5630235             -15.3206
        13        2.0000           -0.5475346             -14.8992
        14        2.0000           -0.5377103             -14.6318
        15        2.0000           -0.5319144             -14.4741
        16        2.0000           -0.5279536             -14.3663
        17        2.0000           -0.5140946             -13.9892
        18        2.0000           -0.5083847             -13.8339
        19        2.0000           -0.4947626             -13.4632
        20        2.0000           -0.4763269             -12.9615
        21        2.0000           -0.4688997             -12.7594
        22        2.0000           -0.4459218             -12.1342
        23        2.0000           -0.4288844             -11.6705
        24        2.0000           -0.4033469             -10.9756 (HOMO)
        25                         -0.2678459              -7.2885 (LUMO)
        26                         -0.2584420              -7.0326
        27                         -0.1385848              -3.7711
        28                         -0.1138988              -3.0993
        29                         -0.0989581              -2.6928
        30                         -0.0942385              -2.5644
        31                         -0.0893700              -2.4319
        32                         -0.0808122              -2.1990
        33                         -0.0734457              -1.9986
        34                         -0.0534835              -1.4554
        35                         -0.0238272              -0.6484
       ...                                ...                  ...
        52                          0.6510153              17.7150
      -------------------------------------------------------------
                  HL-Gap            0.1355010 Eh            3.6872 eV

Wiberg/Mayer (AO) data.
largest (>0.10) Wiberg bond orders for each atom

     #   Z sym  total        # sym  WBO       # sym  WBO       # sym  WBO
 ---------------------------------------------------------------------------
     1   7 N    2.949 --     2 C    0.996    11 H    0.949    10 H    0.945
     2   6 C    3.980 --     3 C    1.006     1 N    0.996    12 H    0.972
                            13 H    0.966
     3   6 C    3.988 --     9 C    1.417     4 C    1.414     2 C    1.006
     4   6 C    3.994 --     5 C    1.445     3 C    1.414    14 H    0.970
                             8 C    0.111
     5   6 C    3.992 --     4 C    1.445     6 C    1.401    15 H    0.970
                             9 C    0.110
     6   6 C    3.859 --     8 C    1.403     5 C    1.401     7 F    0.919
     7   9 F    1.044 --     6 C    0.919
     8   6 C    3.992 --     9 C    1.442     6 C    1.403    16 H    0.970
                             4 C    0.111
     9   6 C    3.994 --     8 C    1.442     3 C    1.417    17 H    0.972
                             5 C    0.110
    10   1 H    0.958 --     1 N    0.945
    11   1 H    0.962 --     1 N    0.949
    12   1 H    1.004 --     2 C    0.972
    13   1 H    1.011 --     2 C    0.966
    14   1 H    1.016 --     4 C    0.970
    15   1 H    0.999 --     5 C    0.970
    16   1 H    0.999 --     8 C    0.970
    17   1 H    1.001 --     9 C    0.972
 ---------------------------------------------------------------------------

           -------------------------------------------------
          | TOTAL ENERGY              -27.463347596491 Eh   |
          | GRADIENT NORM               0.000374425943 Eh/α |
          | HOMO-LUMO GAP               3.687170512631 eV   |
           -------------------------------------------------

 * finished run on 2023/06/20 at 15:12:17.290
