   * xtb version 6.5.1 (579679a) compiled by 'ehlert@majestix' on 2022-07-11
          program call               : /lustre/hpc/kemi/ree/PhD/git/ReactivityQM/dep/xtb-6.5.1/bin/xtb --gfn 1 /lustre/hpc/kemi/ree/PhD/git/ReactivityQM/calculations/R01/reac01prodN07/conf12/R01_reac01prodN07_conf12_gfn1.xyz --opt --vfukui --chrg 1 --uhf 0 --alpb DMSO

   ID    Z sym.   atoms
    1    6 C      1, 3, 5, 8-10
    2    8 O      2, 4, 11
    3    7 N      6, 7
    4    1 H      12-20

      * Solvation model:               ALPB
        Solvent                        DMSO
        Solvent mass                       7.8130E+01 g/mol
          :  Hamiltonian                  GFN1-xTB          :
 * total energy  :   -37.5560262 Eh     change       -0.3815614E-11 Eh
 * total energy  :   -37.5686993 Eh     change       -0.1267305E-01 Eh
 * total energy  :   -37.5735477 Eh     change       -0.4848381E-02 Eh
 * total energy  :   -37.5742332 Eh     change       -0.6855338E-03 Eh
 * total energy  :   -37.5746107 Eh     change       -0.3774585E-03 Eh
 * total energy  :   -37.5746658 Eh     change       -0.5510897E-04 Eh
 * total energy  :   -37.5747087 Eh     change       -0.4288368E-04 Eh
 * total energy  :   -37.5747315 Eh     change       -0.2287365E-04 Eh
 * total energy  :   -37.5747444 Eh     change       -0.1283239E-04 Eh
 * total energy  :   -37.5747489 Eh     change       -0.4581998E-05 Eh
   *** GEOMETRY OPTIMIZATION CONVERGED AFTER 10 ITERATIONS ***

 final structure:
================
20
 xtb: 6.5.1 (579679a)
C            4.12062438405184       -0.23725208006822       -0.56903384669135
O            2.70541280401738       -0.21637739521865       -0.84315075795206
C            1.89967675113830        0.00528549513686        0.15524044274440
O            2.17057388952701        0.20304771358467        1.30044435946921
C            0.44799375765647       -0.02028748619922       -0.34369965915182
N            0.04679024569194       -0.22776328676058       -1.64442082996708
N           -1.21173047990936       -0.18117677794676       -1.65747983612740
C           -1.71375528095910        0.06065430307848       -0.35389851885820
C           -2.47897996052495        1.39221577136417       -0.29270992440269
C           -2.56841085251591       -1.12034518708216        0.13411733323815
O           -0.53214971608206        0.15122293436885        0.43368971913627
H            4.33000407619392       -0.98617430940340        0.19602222152886
H            4.60406087883953       -0.48977474926688       -1.50940690237889
H            4.43401789819311        0.74695408609397       -0.21828876325855
H           -3.35857936937382        1.31536644083713       -0.92682742111866
H           -2.77289631681983        1.57565912473001        0.73812090527816
H           -1.83142052293887        2.19220566059406       -0.64463372789714
H           -3.44319384032855       -1.20217233078697       -0.50607606170083
H           -1.97830275381306       -2.03266899285180        0.08174281203796
H           -2.86973359204508       -0.92861893420347        1.16121045607153

          :  Hamiltonian                  GFN1-xTB          :
         :: total energy             -37.574748946088 Eh    ::
         :: gradient norm              0.000859012929 Eh/a0 ::
         :: HOMO-LUMO gap              1.771530915957 eV    ::
         :: SCC energy               -37.910626081865 Eh    ::
         :: -> Gsolv                  -0.081324093377 Eh    ::
         :: repulsion energy           0.344296000702 Eh    ::

    * Orbital Energies and Occupations

         #    Occupation            Energy/Eh            Energy/eV
      -------------------------------------------------------------
         1        2.0000           -0.9571789             -26.0462
       ...           ...                  ...                  ...
        18        2.0000           -0.6146993             -16.7268
        19        2.0000           -0.6121033             -16.6562
        20        2.0000           -0.6111384             -16.6299
        21        2.0000           -0.5875232             -15.9873
        22        2.0000           -0.5858520             -15.9418
        23        2.0000           -0.5797661             -15.7762
        24        2.0000           -0.5750166             -15.6470
        25        2.0000           -0.5683558             -15.4657
        26        2.0000           -0.5556582             -15.1202
        27        2.0000           -0.5530217             -15.0485
        28        2.0000           -0.5427846             -14.7699
        29        2.0000           -0.5362318             -14.5916
        30        2.0000           -0.5246565             -14.2766 (HOMO)
        31                         -0.4595540             -12.5051 (LUMO)
        32                         -0.3774720             -10.2715
        33                         -0.2805226              -7.6334
        34                         -0.1700345              -4.6269
        35                         -0.1641806              -4.4676
        36                         -0.1607987              -4.3756
        37                         -0.1201720              -3.2700
        38                         -0.1122388              -3.0542
        39                         -0.0985556              -2.6818
        40                         -0.0958311              -2.6077
        41                         -0.0934513              -2.5429
       ...                                ...                  ...
        62                          0.7401783              20.1413
      -------------------------------------------------------------
                  HL-Gap            0.0651026 Eh            1.7715 eV

Wiberg/Mayer (AO) data.
largest (>0.10) Wiberg bond orders for each atom

     #   Z sym  total        # sym  WBO       # sym  WBO       # sym  WBO
 ---------------------------------------------------------------------------
     1   6 C    3.820 --    13 H    0.983    12 H    0.972    14 H    0.971
                             2 O    0.854
     2   8 O    2.261 --     3 C    1.193     1 C    0.854     4 O    0.173
     3   6 C    3.881 --     4 O    1.721     2 O    1.193     5 C    0.897
     4   8 O    2.013 --     3 C    1.721     2 O    0.173
     5   6 C    3.788 --    11 O    1.394     6 N    1.199     3 C    0.897
     6   7 N    3.022 --     7 N    1.678     5 C    1.199
     7   7 N    2.995 --     6 N    1.678     8 C    1.074
     8   6 C    3.813 --     7 N    1.074     9 C    0.885    10 C    0.883
                            11 O    0.868
     9   6 C    3.942 --    17 H    0.978    15 H    0.975    16 H    0.974
                             8 C    0.885
    10   6 C    3.942 --    19 H    0.978    18 H    0.975    20 H    0.974
                             8 C    0.883
    11   8 O    2.442 --     5 C    1.394     8 C    0.868
    12   1 H    0.996 --     1 C    0.972
    13   1 H    1.002 --     1 C    0.983
    14   1 H    0.995 --     1 C    0.971
    15   1 H    0.989 --     9 C    0.975
    16   1 H    0.989 --     9 C    0.974
    17   1 H    0.989 --     9 C    0.978
    18   1 H    0.989 --    10 C    0.975
    19   1 H    0.989 --    10 C    0.978
    20   1 H    0.989 --    10 C    0.974
 ---------------------------------------------------------------------------

           -------------------------------------------------
          | TOTAL ENERGY              -37.574748946088 Eh   |
          | GRADIENT NORM               0.000859012929 Eh/α |
          | HOMO-LUMO GAP               1.771530915957 eV   |
           -------------------------------------------------

 * finished run on 2023/06/20 at 14:56:43.717
