   * xtb version 6.5.1 (579679a) compiled by 'ehlert@majestix' on 2022-07-11
          program call               : /lustre/hpc/kemi/ree/PhD/git/ReactivityQM/dep/xtb-6.5.1/bin/xtb --gfn 1 /lustre/hpc/kemi/ree/PhD/git/ReactivityQM/calculations/R02deprot/reac01prodE12/conf17/R02deprot_reac01prodE12_conf17_gfn1.xyz --opt --vfukui --chrg -2 --uhf 0 --alpb DMSO

   ID    Z sym.   atoms
    1    6 C      1, 3, 5, 6, 8, 9, 12-15, 17, 19, 22, 23
    2    8 O      2, 4, 7, 10, 18, 24
    3    7 N      11, 16, 20, 21, 25
    4    1 H      26-42

      * Solvation model:               ALPB
        Solvent                        DMSO
        Solvent mass                       7.8130E+01 g/mol
          :  Hamiltonian                  GFN1-xTB          :
 * total energy  :   -83.5622580 Eh     change       -0.9947598E-12 Eh
 * total energy  :   -83.5757770 Eh     change       -0.1351903E-01 Eh
 * total energy  :   -83.5822808 Eh     change       -0.6503863E-02 Eh
 * total energy  :   -83.5836779 Eh     change       -0.1397098E-02 Eh
 * total energy  :   -83.5843965 Eh     change       -0.7185381E-03 Eh
 * total energy  :   -83.5846632 Eh     change       -0.2667187E-03 Eh
 * total energy  :   -83.5848325 Eh     change       -0.1692823E-03 Eh
 * total energy  :   -83.5849489 Eh     change       -0.1164443E-03 Eh
 * total energy  :   -83.5850503 Eh     change       -0.1013560E-03 Eh
 * total energy  :   -83.5851582 Eh     change       -0.1078902E-03 Eh
 * total energy  :   -83.5855351 Eh     change       -0.2689368E-04 Eh
 * total energy  :   -83.5855492 Eh     change       -0.1407525E-04 Eh
 * total energy  :   -83.5855624 Eh     change       -0.1327763E-04 Eh
 * total energy  :   -83.5855719 Eh     change       -0.9445867E-05 Eh
 * total energy  :   -83.5855772 Eh     change       -0.5283392E-05 Eh
 * total energy  :   -83.5855825 Eh     change       -0.5291245E-05 Eh
 * total energy  :   -83.5855821 Eh     change        0.3361932E-06 Eh
 * total energy  :   -83.5855863 Eh     change       -0.4170099E-05 Eh
 * total energy  :   -83.5855902 Eh     change       -0.3940152E-05 Eh
   *** GEOMETRY OPTIMIZATION CONVERGED AFTER 26 ITERATIONS ***

 final structure:
================
42
 xtb: 6.5.1 (579679a)
C           -3.52505410966585        3.96553917923432        0.46499026226229
O           -3.47742826255873        2.54582014493978        0.49453791438743
C           -2.21430816312376        1.99488866130453        0.43822274438659
O           -1.24194124463586        2.73817563797212        0.37193927029854
C           -2.18126861264134        0.54167846585145        0.47550591055711
C           -3.26056486220781       -0.30158359016769        0.48583226939904
O           -4.56312975971729        0.09558904822269        0.39657443376870
C           -3.09874823489855       -1.83889120967132        0.76103244344684
C           -4.02040550532247       -2.59891858544780       -0.27535419038801
O           -3.38482829813631       -2.11678963163597        2.01838195933662
N           -1.69789909436016       -2.22845629943319        0.35963209071224
C           -0.78887102903158       -1.30522173157266        0.33242833927645
C            0.64495724793878       -1.83050555139548        0.09753174870255
C            0.69831893531303       -2.55006873778119       -1.25741906356435
C            1.02691710178201       -2.79348324342427        1.22944654924681
N            1.53801825222212       -0.67404628556171        0.08820909544098
C            2.85571310505685       -0.70786824671426       -0.09679847682990
O            3.53954451892975       -1.72011205069793       -0.25537290004487
C            3.45082642161781        0.65748354984425       -0.08802967474159
N            2.81855670030223        1.78232629343566        0.08270243787811
N            3.75335985870580        2.77692548285622        0.00718635261662
C            4.89188424272704        2.19822043315786       -0.20486715993395
C            6.21651878339576        2.84114903523540       -0.35951119192206
O            4.77596651136343        0.86147439971443       -0.27492782303060
N           -0.87957941130429        0.02394179620358        0.44609069187041
H           -3.09517870896047        4.34855103579481       -0.46616203145115
H           -2.97265996435339        4.39044897397236        1.30963845142692
H           -4.57257533484726        4.25455434612684        0.53042224231601
H           -4.65834816600367        1.05726981023184        0.33087447864543
H           -5.06671944210884       -2.37429967213836       -0.06985834491881
H           -3.77796818654131       -2.30991646777065       -1.29853810626032
H           -3.85788885752146       -3.67036202334510       -0.15711640320846
H            0.51738981753477       -1.84209526884783       -2.06666592284191
H           -0.08247966794768       -3.31161512491880       -1.27622779603897
H            1.66568384717396       -3.02588983425403       -1.41614026828078
H            0.25329793622352       -3.55924204819639        1.30601863517098
H            1.08721880934107       -2.25725564383075        2.17720523990560
H            1.98569560631240       -3.27332790843083        1.03512794549045
H            1.04295338315928        0.22111399991894        0.19185513551113
H            6.09610905827714        3.91990915552878       -0.41378962153983
H            6.85462887522498        2.59351493357472        0.48870209900422
H            6.70428490328679        2.48137477211015       -1.26427476606055

          :  Hamiltonian                  GFN1-xTB          :
         :: total energy             -83.585590233650 Eh    ::
         :: gradient norm              0.000349916687 Eh/a0 ::
         :: HOMO-LUMO gap              0.183396210705 eV    ::
         :: SCC energy               -84.314860086456 Eh    ::
         :: -> Gsolv                  -0.297135323818 Eh    ::
         :: repulsion energy           0.754761096805 Eh    ::

    * Orbital Energies and Occupations

         #    Occupation            Energy/Eh            Energy/eV
      -------------------------------------------------------------
         1        2.0000           -0.8415302             -22.8992
       ...           ...                  ...                  ...
        56        2.0000           -0.4369470             -11.8899
        57        2.0000           -0.4325169             -11.7694
        58        2.0000           -0.4247305             -11.5575
        59        2.0000           -0.4149034             -11.2901
        60        2.0000           -0.4118464             -11.2069
        61        2.0000           -0.4060945             -11.0504
        62        2.0000           -0.4039593             -10.9923
        63        2.0000           -0.3729521             -10.1485
        64        2.0000           -0.3626316              -9.8677
        65        2.0000           -0.3310473              -9.0083
        66        2.0000           -0.3050124              -8.2998
        67        2.0000           -0.2987511              -8.1294
        68        1.9440           -0.2880644              -7.8386 (HOMO)
        69        0.0560           -0.2813247              -7.6552 (LUMO)
        70                         -0.2384305              -6.4880
        71                         -0.2329615              -6.3392
        72                         -0.1681844              -4.5765
        73                         -0.1566695              -4.2632
        74                         -0.1357209              -3.6932
        75                         -0.1167642              -3.1773
        76                         -0.0989769              -2.6933
        77                         -0.0891501              -2.4259
        78                         -0.0877008              -2.3865
        79                         -0.0682178              -1.8563
       ...                                ...                  ...
       134                          0.7291473              19.8411
      -------------------------------------------------------------
                  HL-Gap            0.0067397 Eh            0.1834 eV

Wiberg/Mayer (AO) data.
largest (>0.10) Wiberg bond orders for each atom

     #   Z sym  total        # sym  WBO       # sym  WBO       # sym  WBO
 ---------------------------------------------------------------------------
     1   6 C    3.899 --    28 H    0.987    26 H    0.981    27 H    0.981
                             2 O    0.923
     2   8 O    2.143 --     3 C    0.995     1 C    0.923     4 O    0.100
     3   6 C    3.825 --     4 O    1.584     5 C    1.110     2 O    0.995
     4   8 O    1.858 --     3 C    1.584     2 O    0.100
     5   6 C    3.948 --     6 C    1.512     3 C    1.110    25 N    1.102
     6   6 C    3.831 --     5 C    1.512     7 O    1.042     8 C    0.891
     7   8 O    2.034 --     6 C    1.042    29 H    0.835
     8   6 C    3.941 --    10 O    1.172     9 C    0.924     6 C    0.891
                            11 N    0.889
     9   6 C    3.980 --    31 H    0.991    32 H    0.989    30 H    0.989
                             8 C    0.924
    10   8 O    1.455 --     8 C    1.172
    11   7 N    2.902 --    12 C    1.571     8 C    0.889    25 N    0.176
    12   6 C    3.962 --    11 N    1.571    25 N    1.332    13 C    0.941
    13   6 C    3.911 --    15 C    0.988    14 C    0.987    12 C    0.941
                            16 N    0.916
    14   6 C    3.995 --    33 H    0.987    13 C    0.987    35 H    0.985
                            34 H    0.984
    15   6 C    3.996 --    13 C    0.988    37 H    0.987    38 H    0.985
                            36 H    0.984
    16   7 N    3.392 --    17 C    1.319    13 C    0.916    39 H    0.861
                            18 O    0.187
    17   6 C    3.913 --    18 O    1.523    16 N    1.319    19 C    0.990
    18   8 O    1.836 --    17 C    1.523    16 N    0.187
    19   6 C    3.835 --    20 N    1.598    24 O    1.045    17 C    0.990
    20   7 N    2.972 --    19 C    1.598    21 N    1.185
    21   7 N    2.980 --    22 C    1.623    20 N    1.185
    22   6 C    3.869 --    21 N    1.623    24 O    1.076    23 C    1.028
    23   6 C    3.990 --    22 C    1.028    40 H    0.983    42 H    0.970
                            41 H    0.964
    24   8 O    2.299 --    22 C    1.076    19 C    1.045
    25   7 N    2.883 --    12 C    1.332     5 C    1.102    11 N    0.176
    26   1 H    1.016 --     1 C    0.981
    27   1 H    1.016 --     1 C    0.981
    28   1 H    1.015 --     1 C    0.987
    29   1 H    0.893 --     7 O    0.835
    30   1 H    1.024 --     9 C    0.989
    31   1 H    1.020 --     9 C    0.991
    32   1 H    1.026 --     9 C    0.989
    33   1 H    1.009 --    14 C    0.987
    34   1 H    1.028 --    14 C    0.984
    35   1 H    1.014 --    14 C    0.985
    36   1 H    1.028 --    15 C    0.984
    37   1 H    1.009 --    15 C    0.987
    38   1 H    1.016 --    15 C    0.985
    39   1 H    1.000 --    16 N    0.861
    40   1 H    1.001 --    23 C    0.983
    41   1 H    0.999 --    23 C    0.964
    42   1 H    0.999 --    23 C    0.970
 ---------------------------------------------------------------------------

           -------------------------------------------------
          | TOTAL ENERGY              -83.585590233650 Eh   |
          | GRADIENT NORM               0.000349916687 Eh/α |
          | HOMO-LUMO GAP               0.183396210705 eV   |
           -------------------------------------------------

 * finished run on 2023/06/20 at 17:57:48.013
