                         Program Version 5.0.1 -  RELEASE  -
|  1> # ORCA input file
|  2> ! SP r2SCAN-3c CPCM
|  3>
|  4> %maxcore 1875.0
|  5> %pal nprocs 4 end
|  6> %cpcm smd true SMDsolvent "DMSO" end
|  7>
|  8> *xyz -1 1
|  9> C       5.516203    2.426289   -0.988856
| 10> O       4.277336    1.808783   -0.655598
| 11> C       4.119987    0.535353   -1.069901
| 12> O       5.005956   -0.040651   -1.700842
| 13> C       2.856490   -0.072253   -0.697110
| 14> C       2.549602   -1.355455   -1.050545
| 15> O       3.369624   -2.135226   -1.765507
| 16> C       1.156084   -1.965247   -0.696092
| 17> C       1.358322   -3.459886   -0.312756
| 18> O       0.218380   -1.721120   -1.557138
| 19> N       0.865790   -1.249866    0.656337
| 20> C       0.947645    0.111411    0.560281
| 21> C      -0.228230    0.906694    1.105051
| 22> C      -0.029721    2.403450    0.851790
| 23> C      -0.447833    0.630306    2.596449
| 24> N      -1.368703    0.411410    0.316820
| 25> C      -2.627912    0.831478    0.475812
| 26> O      -3.009985    1.664693    1.287365
| 27> C      -3.556801    0.159919   -0.478667
| 28> N      -3.239132   -0.673682   -1.420234
| 29> N      -4.400022   -1.025648   -2.044705
| 30> C      -5.351648   -0.382959   -1.443198
| 31> C      -6.800483   -0.426101   -1.742086
| 32> O      -4.886406    0.384964   -0.446487
| 33> N       1.909503    0.730191   -0.026479
| 34> H       5.652100    2.454469   -2.073788
| 35> H       5.482547    3.439589   -0.591643
| 36> H       6.349535    1.877442   -0.541050
| 37> H       4.205033   -1.655020   -1.973303
| 38> H       0.405120   -3.868540    0.016710
| 39> H       1.692668   -4.006595   -1.193001
| 40> H       2.094449   -3.562710    0.482315
| 41> H      -0.019731   -1.577246    1.021518
| 42> H      -0.876271    2.971727    1.232783
| 43> H       0.078548    2.590441   -0.216344
| 44> H       0.877658    2.733716    1.355587
| 45> H      -0.641962   -0.427528    2.764838
| 46> H      -1.292588    1.205554    2.971391
| 47> H       0.446055    0.916193    3.149189
| 48> H      -1.162925   -0.287241   -0.400497
| 49> H      -6.980589   -1.091247   -2.582726
| 50> H      -7.350623   -0.782582   -0.871634
| 51> H      -7.163071    0.572729   -1.983219
| 52> **                         ****END OF INPUT****

CARTESIAN COORDINATES (ANGSTROEM)
---------------------------------
  C      5.516203    2.426289   -0.988856
  O      4.277336    1.808783   -0.655598
  C      4.119987    0.535353   -1.069901
  O      5.005956   -0.040651   -1.700842
  C      2.856490   -0.072253   -0.697110
  C      2.549602   -1.355455   -1.050545
  O      3.369624   -2.135226   -1.765507
  C      1.156084   -1.965247   -0.696092
  C      1.358322   -3.459886   -0.312756
  O      0.218380   -1.721120   -1.557138
  N      0.865790   -1.249866    0.656337
  C      0.947645    0.111411    0.560281
  C     -0.228230    0.906694    1.105051
  C     -0.029721    2.403450    0.851790
  C     -0.447833    0.630306    2.596449
  N     -1.368703    0.411410    0.316820
  C     -2.627912    0.831478    0.475812
  O     -3.009985    1.664693    1.287365
  C     -3.556801    0.159919   -0.478667
  N     -3.239132   -0.673682   -1.420234
  N     -4.400022   -1.025648   -2.044705
  C     -5.351648   -0.382959   -1.443198
  C     -6.800483   -0.426101   -1.742086
  O     -4.886406    0.384964   -0.446487
  N      1.909503    0.730191   -0.026479
  H      5.652100    2.454469   -2.073788
  H      5.482547    3.439589   -0.591643
  H      6.349535    1.877442   -0.541050
  H      4.205033   -1.655020   -1.973303
  H      0.405120   -3.868540    0.016710
  H      1.692668   -4.006595   -1.193001
  H      2.094449   -3.562710    0.482315
  H     -0.019731   -1.577246    1.021518
  H     -0.876271    2.971727    1.232783
  H      0.078548    2.590441   -0.216344
  H      0.877658    2.733716    1.355587
  H     -0.641962   -0.427528    2.764838
  H     -1.292588    1.205554    2.971391
  H      0.446055    0.916193    3.149189
  H     -1.162925   -0.287241   -0.400497
  H     -6.980589   -1.091247   -2.582726
  H     -7.350623   -0.782582   -0.871634
  H     -7.163071    0.572729   -1.983219

 Total Charge           Charge          ....   -1
 Multiplicity           Mult            ....    1
 Number of Electrons    NEL             ....  186
 Basis Dimension        Dim             ....  620

ORBITAL ENERGIES
----------------

  NO   OCC          E(Eh)            E(eV)
   0   2.0000     -19.057766      -518.5882
   1   2.0000     -18.987183      -516.6675
   2   2.0000     -18.975157      -516.3403
   3   2.0000     -18.930657      -515.1294
   4   2.0000     -18.923131      -514.9246
   5   2.0000     -18.839375      -512.6455
   6   2.0000     -14.197251      -386.3268
   7   2.0000     -14.191659      -386.1747
   8   2.0000     -14.184788      -385.9877
   9   2.0000     -14.145469      -384.9178
  10   2.0000     -14.124935      -384.3590
  11   2.0000     -10.146403      -276.0977
  12   2.0000     -10.145648      -276.0771
  13   2.0000     -10.140697      -275.9424
  14   2.0000     -10.135995      -275.8144
  15   2.0000     -10.088995      -274.5355
  16   2.0000     -10.086441      -274.4660
  17   2.0000     -10.082337      -274.3543
  18   2.0000     -10.076823      -274.2043
  19   2.0000     -10.069224      -273.9975
  20   2.0000     -10.043220      -273.2899
  21   2.0000     -10.042074      -273.2587
  22   2.0000     -10.012846      -272.4634
  23   2.0000     -10.007165      -272.3088
  24   2.0000      -9.994205      -271.9562
  25   2.0000      -1.147586       -31.2274
  26   2.0000      -1.061157       -28.8756
  27   2.0000      -1.022709       -27.8293
  28   2.0000      -1.010854       -27.5067
  29   2.0000      -0.969229       -26.3740
  30   2.0000      -0.968544       -26.3554
  31   2.0000      -0.937706       -25.5163
  32   2.0000      -0.900681       -24.5088
  33   2.0000      -0.881766       -23.9941
  34   2.0000      -0.825725       -22.4691
  35   2.0000      -0.813659       -22.1408
  36   2.0000      -0.756897       -20.5962
  37   2.0000      -0.717895       -19.5349
  38   2.0000      -0.705850       -19.2072
  39   2.0000      -0.685486       -18.6530
  40   2.0000      -0.662687       -18.0326
  41   2.0000      -0.655482       -17.8366
  42   2.0000      -0.646676       -17.5969
  43   2.0000      -0.616499       -16.7758
  44   2.0000      -0.605194       -16.4682
  45   2.0000      -0.584564       -15.9068
  46   2.0000      -0.556475       -15.1424
  47   2.0000      -0.535406       -14.5691
  48   2.0000      -0.526425       -14.3247
  49   2.0000      -0.512565       -13.9476
  50   2.0000      -0.504425       -13.7261
  51   2.0000      -0.487574       -13.2676
  52   2.0000      -0.483303       -13.1513
  53   2.0000      -0.467154       -12.7119
  54   2.0000      -0.456887       -12.4325
  55   2.0000      -0.440550       -11.9880
  56   2.0000      -0.439851       -11.9690
  57   2.0000      -0.429630       -11.6908
  58   2.0000      -0.419213       -11.4074
  59   2.0000      -0.410700       -11.1757
  60   2.0000      -0.401325       -10.9206
  61   2.0000      -0.394839       -10.7441
  62   2.0000      -0.390386       -10.6230
  63   2.0000      -0.388471       -10.5708
  64   2.0000      -0.385295       -10.4844
  65   2.0000      -0.379109       -10.3161
  66   2.0000      -0.376524       -10.2458
  67   2.0000      -0.373492       -10.1632
  68   2.0000      -0.363937        -9.9032
  69   2.0000      -0.353644        -9.6231
  70   2.0000      -0.345580        -9.4037
  71   2.0000      -0.344310        -9.3692
  72   2.0000      -0.339901        -9.2492
  73   2.0000      -0.338828        -9.2200
  74   2.0000      -0.337430        -9.1819
  75   2.0000      -0.332841        -9.0571
  76   2.0000      -0.319299        -8.6886
  77   2.0000      -0.313973        -8.5436
  78   2.0000      -0.312340        -8.4992
  79   2.0000      -0.310432        -8.4473
  80   2.0000      -0.306000        -8.3267
  81   2.0000      -0.293759        -7.9936
  82   2.0000      -0.266557        -7.2534
  83   2.0000      -0.262032        -7.1302
  84   2.0000      -0.258736        -7.0406
  85   2.0000      -0.252891        -6.8815
  86   2.0000      -0.240065        -6.5325
  87   2.0000      -0.233224        -6.3463
  88   2.0000      -0.230826        -6.2811
  89   2.0000      -0.218829        -5.9546
  90   2.0000      -0.182735        -4.9725
  91   2.0000      -0.162847        -4.4313
  92   2.0000      -0.153704        -4.1825
  93   0.0000      -0.076739        -2.0882
  94   0.0000      -0.045115        -1.2276
  95   0.0000      -0.014841        -0.4038
  96   0.0000      -0.004321        -0.1176
  97   0.0000       0.055988         1.5235

MULLIKEN ATOMIC CHARGES
-----------------------
   0 C :   -0.327334
   1 O :   -0.192428
   2 C :    0.232745
   3 O :   -0.501160
   4 C :   -0.126657
   5 C :    0.024296
   6 O :   -0.364578
   7 C :    0.116404
   8 C :   -0.566059
   9 O :   -0.480569
  10 N :   -0.443573
  11 C :    0.225403
  12 C :    0.077224
  13 C :   -0.669015
  14 C :   -0.610045
  15 N :   -0.055854
  16 C :   -0.119540
  17 O :   -0.464150
  18 C :    0.348721
  19 N :   -0.124509
  20 N :   -0.329729
  21 C :    0.424336
  22 C :   -0.643800
  23 O :   -0.030353
  24 N :   -0.129957
  25 H :    0.170835
  26 H :    0.170704
  27 H :    0.170670
  28 H :    0.358253
  29 H :    0.164592
  30 H :    0.165122
  31 H :    0.161628
  32 H :    0.306551
  33 H :    0.184388
  34 H :    0.185943
  35 H :    0.183925
  36 H :    0.176701
  37 H :    0.195999
  38 H :    0.187705
  39 H :    0.345578
  40 H :    0.203455
  41 H :    0.199301
  42 H :    0.198834
Sum of atomic charges:   -1.0000000

LOEWDIN ATOMIC CHARGES
----------------------
   0 C :   -0.045693
   1 O :   -0.587227
   2 C :    0.399427
   3 O :   -0.512023
   4 C :    0.116516
   5 C :    0.292430
   6 O :   -0.473984
   7 C :    0.226670
   8 C :   -0.380251
   9 O :   -0.715290
  10 N :   -0.618053
  11 C :    0.304768
  12 C :    0.103763
  13 C :   -0.355639
  14 C :   -0.355565
  15 N :   -0.585652
  16 C :    0.374678
  17 O :   -0.473978
  18 C :    0.418763
  19 N :   -0.358497
  20 N :   -0.366231
  21 C :    0.373231
  22 C :   -0.319201
  23 O :   -0.365916
  24 N :   -0.618959
  25 H :    0.178017
  26 H :    0.182215
  27 H :    0.177964
  28 H :    0.307942
  29 H :    0.160083
  30 H :    0.164886
  31 H :    0.159502
  32 H :    0.279371
  33 H :    0.170174
  34 H :    0.172690
  35 H :    0.171196
  36 H :    0.168840
  37 H :    0.177157
  38 H :    0.170236
  39 H :    0.311022
  40 H :    0.189960
  41 H :    0.190462
  42 H :    0.190197

  Mayer bond orders larger than 0.100000
B(  0-C ,  1-O ) :   0.8358 B(  0-C , 25-H ) :   0.9603 B(  0-C , 26-H ) :   0.9643
B(  0-C , 27-H ) :   0.9601 B(  1-O ,  2-C ) :   1.1388 B(  2-C ,  3-O ) :   1.6904
B(  2-C ,  4-C ) :   1.1494 B(  4-C ,  5-C ) :   1.4134 B(  4-C , 24-N ) :   0.9057
B(  5-C ,  6-O ) :   1.1640 B(  5-C ,  7-C ) :   0.8652 B(  6-O , 28-H ) :   0.7694
B(  7-C ,  8-C ) :   0.8891 B(  7-C ,  9-O ) :   1.6327 B(  7-C , 10-N ) :   0.6322
B(  8-C , 29-H ) :   0.9763 B(  8-C , 30-H ) :   0.9814 B(  8-C , 31-H ) :   0.9770
B( 10-N , 11-C ) :   1.1858 B( 10-N , 32-H ) :   0.8801 B( 11-C , 12-C ) :   0.9287
B( 11-C , 24-N ) :   1.8073 B( 12-C , 13-C ) :   0.8458 B( 12-C , 14-C ) :   0.9366
B( 12-C , 15-N ) :   0.8116 B( 13-C , 33-H ) :   0.9684 B( 13-C , 34-H ) :   0.9800
B( 13-C , 35-H ) :   0.9702 B( 14-C , 36-H ) :   0.9522 B( 14-C , 37-H ) :   0.9716
B( 14-C , 38-H ) :   0.9710 B( 15-N , 16-C ) :   1.1970 B( 15-N , 39-H ) :   0.8439
B( 16-C , 17-O ) :   1.8877 B( 16-C , 18-C ) :   0.8824 B( 18-C , 19-N ) :   1.6766
B( 18-C , 23-O ) :   1.1141 B( 19-N , 20-N ) :   1.1750 B( 20-N , 21-C ) :   1.6120
B( 21-C , 22-C ) :   0.8291 B( 21-C , 23-O ) :   1.0782 B( 22-C , 40-H ) :   0.9901
B( 22-C , 41-H ) :   0.9431 B( 22-C , 42-H ) :   0.9446

Dispersion correction           -0.019429144
FINAL SINGLE POINT ENERGY     -1269.356578993093

DIPOLE MOMENT
-------------
                                X             Y             Z
Electronic contribution:     -4.71271      -0.80001      -5.88065
Nuclear contribution   :      2.32073       2.37943       7.53213
                        -----------------------------------------
Total Dipole Moment    :     -2.39198       1.57942       1.65148
                        -----------------------------------------
Magnitude (a.u.)       :      3.30810
Magnitude (Debye)      :      8.40852

Rotational constants in cm-1:     0.013662     0.003768     0.003354
Rotational constants in MHz :   409.580703   112.974899   100.541815

                             ****ORCA TERMINATED NORMALLY****
TOTAL RUN TIME: 0 days 0 hours 2 minutes 12 seconds 420 msec
