   * xtb version 6.5.1 (579679a) compiled by 'ehlert@majestix' on 2022-07-11
          program call               : /lustre/hpc/kemi/ree/PhD/git/ReactivityQM/dep/xtb-6.5.1/bin/xtb --gfn 1 /lustre/hpc/kemi/ree/PhD/git/ReactivityQM/calculations/R02/reac01prodE12/conf02/R02_reac01prodE12_conf02_gfn1.xyz --opt --vfukui --chrg -1 --uhf 0 --alpb DMSO

   ID    Z sym.   atoms
    1    6 C      1, 3, 5, 6, 8, 9, 12-15, 17, 19, 22, 23
    2    8 O      2, 4, 7, 10, 18, 24
    3    7 N      11, 16, 20, 21, 25
    4    1 H      26-43

      * Solvation model:               ALPB
        Solvent                        DMSO
        Solvent mass                       7.8130E+01 g/mol
          :  Hamiltonian                  GFN1-xTB          :
 * total energy  :   -83.8496189 Eh     change       -0.4462208E-11 Eh
 * total energy  :   -83.8618004 Eh     change       -0.1218148E-01 Eh
 * total energy  :   -83.8670123 Eh     change       -0.5211856E-02 Eh
 * total energy  :   -83.8680414 Eh     change       -0.1029143E-02 Eh
 * total energy  :   -83.8686358 Eh     change       -0.5943790E-03 Eh
 * total energy  :   -83.8688880 Eh     change       -0.2522421E-03 Eh
 * total energy  :   -83.8690621 Eh     change       -0.1740402E-03 Eh
 * total energy  :   -83.8691665 Eh     change       -0.1044523E-03 Eh
 * total energy  :   -83.8692544 Eh     change       -0.8784973E-04 Eh
 * total energy  :   -83.8693450 Eh     change       -0.9065632E-04 Eh
 * total energy  :   -83.8710093 Eh     change       -0.4825381E-04 Eh
 * total energy  :   -83.8710453 Eh     change       -0.3601214E-04 Eh
 * total energy  :   -83.8710581 Eh     change       -0.1283348E-04 Eh
 * total energy  :   -83.8710704 Eh     change       -0.1222582E-04 Eh
 * total energy  :   -83.8710764 Eh     change       -0.5999849E-05 Eh
 * total energy  :   -83.8710886 Eh     change       -0.1225711E-04 Eh
 * total energy  :   -83.8710974 Eh     change       -0.8816759E-05 Eh
 * total energy  :   -83.8711026 Eh     change       -0.5194071E-05 Eh
 * total energy  :   -83.8711061 Eh     change       -0.3460969E-05 Eh
   *** GEOMETRY OPTIMIZATION CONVERGED AFTER 48 ITERATIONS ***

 final structure:
================
43
 xtb: 6.5.1 (579679a)
C            5.51620332767973        2.42628925121331       -0.98885638574303
O            4.27733624980484        1.80878319269590       -0.65559786855136
C            4.11998684080185        0.53535252090512       -1.06990090107152
O            5.00595616793203       -0.04065053115858       -1.70084180350371
C            2.85648995071860       -0.07225328097998       -0.69710961232242
C            2.54960218928385       -1.35545478532580       -1.05054463397229
O            3.36962382466826       -2.13522637597816       -1.76550704209578
C            1.15608410183507       -1.96524657234700       -0.69609196185489
C            1.35832155104107       -3.45988595881014       -0.31275630334606
O            0.21837984705839       -1.72111957379443       -1.55713832867416
N            0.86579029667495       -1.24986595156420        0.65633726128934
C            0.94764546705630        0.11141083268100        0.56028145166651
C           -0.22823039640765        0.90669399831471        1.10505119214534
C           -0.02972120896195        2.40345012541683        0.85178963818924
C           -0.44783250044775        0.63030569094107        2.59644852570794
N           -1.36870338800991        0.41140991690818        0.31682035770663
C           -2.62791178582101        0.83147763804695        0.47581171296040
O           -3.00998455035197        1.66469328028923        1.28736451438415
C           -3.55680069627052        0.15991881491497       -0.47866698467292
N           -3.23913212160908       -0.67368220000287       -1.42023434560527
N           -4.40002233839408       -1.02564806070672       -2.04470526484220
C           -5.35164811440259       -0.38295892638002       -1.44319755092925
C           -6.80048345114070       -0.42610103955507       -1.74208622272535
O           -4.88640591754095        0.38496417592969       -0.44648713861060
N            1.90950339682360        0.73019103955248       -0.02647931533792
H            5.65210034611831        2.45446944555693       -2.07378782296729
H            5.48254732437181        3.43958917990358       -0.59164316493256
H            6.34953520929342        1.87744242911229       -0.54104962650475
H            4.20503334879882       -1.65501975190181       -1.97330324398735
H            0.40512009614605       -3.86854013377562        0.01670994921640
H            1.69266762607553       -4.00659455397819       -1.19300119291582
H            2.09444942502127       -3.56270981386542        0.48231548543547
H           -0.01973096649483       -1.57724611646703        1.02151812473886
H           -0.87627077799635        2.97172659846877        1.23278326972336
H            0.07854754954839        2.59044086432370       -0.21634358015689
H            0.87765783396166        2.73371554344200        1.35558724311114
H           -0.64196175296688       -0.42752800410909        2.76483770503334
H           -1.29258816863143        1.20555391148693        2.97139135798914
H            0.44605534195112        0.91619250373014        3.14918934515772
H           -1.16292525404819       -0.28724088166741       -0.40049722121697
H           -6.98058901782056       -1.09124691926584       -2.58272591464148
H           -7.35062334202485       -0.78258159900999       -0.87163415847406
H           -7.16307056334986        0.57272907682234       -1.98321854479104

          :  Hamiltonian                  GFN1-xTB          :
         :: total energy             -83.871106085155 Eh    ::
         :: gradient norm              0.000339271115 Eh/a0 ::
         :: HOMO-LUMO gap              1.630859834054 eV    ::
         :: SCC energy               -84.627589554295 Eh    ::
         :: -> Gsolv                  -0.114409671403 Eh    ::
         :: repulsion energy           0.783024449306 Eh    ::

    * Orbital Energies and Occupations

         #    Occupation            Energy/Eh            Energy/eV
      -------------------------------------------------------------
         1        2.0000           -0.8524828             -23.1972
       ...           ...                  ...                  ...
        56        2.0000           -0.4705432             -12.8041
        57        2.0000           -0.4622354             -12.5781
        58        2.0000           -0.4584980             -12.4764
        59        2.0000           -0.4497819             -12.2392
        60        2.0000           -0.4476816             -12.1820
        61        2.0000           -0.4425741             -12.0431
        62        2.0000           -0.4361435             -11.8681
        63        2.0000           -0.4287038             -11.6656
        64        2.0000           -0.4205695             -11.4443
        65        2.0000           -0.3956318             -10.7657
        66        2.0000           -0.3773976             -10.2695
        67        2.0000           -0.3573264              -9.7233
        68        2.0000           -0.3541362              -9.6365 (HOMO)
        69                         -0.2942032              -8.0057 (LUMO)
        70                         -0.2689426              -7.3183
        71                         -0.2467876              -6.7154
        72                         -0.2293037              -6.2397
        73                         -0.1829108              -4.9773
        74                         -0.1400662              -3.8114
        75                         -0.1385582              -3.7704
        76                         -0.1273537              -3.4655
        77                         -0.1105286              -3.0076
        78                         -0.1054570              -2.8696
        79                         -0.0921219              -2.5068
       ...                                ...                  ...
       136                          0.7282495              19.8167
      -------------------------------------------------------------
                  HL-Gap            0.0599330 Eh            1.6309 eV

Wiberg/Mayer (AO) data.
largest (>0.10) Wiberg bond orders for each atom

     #   Z sym  total        # sym  WBO       # sym  WBO       # sym  WBO
 ---------------------------------------------------------------------------
     1   6 C    3.889 --    27 H    0.987    28 H    0.980    26 H    0.980
                             2 O    0.915
     2   8 O    2.173 --     3 C    1.072     1 C    0.915     4 O    0.108
     3   6 C    3.842 --     4 O    1.547     5 C    1.103     2 O    1.072
     4   8 O    1.899 --     3 C    1.547     2 O    0.108
     5   6 C    3.942 --     6 C    1.543     3 C    1.103    25 N    1.061
     6   6 C    3.862 --     5 C    1.543     7 O    1.116     8 C    0.897
     7   8 O    2.087 --     6 C    1.116    29 H    0.789
     8   6 C    3.923 --    10 O    1.233     9 C    0.946     6 C    0.897
                            11 N    0.774
     9   6 C    3.994 --    32 H    0.991    30 H    0.987    31 H    0.985
                             8 C    0.946
    10   8 O    1.571 --     8 C    1.233
    11   7 N    3.198 --    12 C    1.185    33 H    0.930     8 C    0.774
                            25 N    0.141
    12   6 C    3.953 --    25 N    1.642    11 N    1.185    13 C    0.966
    13   6 C    3.930 --    14 C    0.995    15 C    0.988    12 C    0.966
                            16 N    0.912
    14   6 C    3.994 --    13 C    0.995    36 H    0.985    35 H    0.985
                            34 H    0.984
    15   6 C    3.993 --    13 C    0.988    39 H    0.986    37 H    0.983
                            38 H    0.982
    16   7 N    3.382 --    17 C    1.298    13 C    0.912    40 H    0.877
                            18 O    0.186
    17   6 C    3.923 --    18 O    1.562    16 N    1.298    19 C    0.982
    18   8 O    1.883 --    17 C    1.562    16 N    0.186
    19   6 C    3.869 --    20 N    1.623    24 O    1.056    17 C    0.982
    20   7 N    3.012 --    19 C    1.623    21 N    1.192
    21   7 N    2.981 --    22 C    1.615    20 N    1.192
    22   6 C    3.875 --    21 N    1.615    24 O    1.081    23 C    1.030
    23   6 C    3.988 --    22 C    1.030    41 H    0.983    43 H    0.965
                            42 H    0.965
    24   8 O    2.321 --    22 C    1.081    19 C    1.056
    25   7 N    2.994 --    12 C    1.642     5 C    1.061    11 N    0.141
    26   1 H    1.012 --     1 C    0.980
    27   1 H    1.014 --     1 C    0.987
    28   1 H    1.012 --     1 C    0.980
    29   1 H    0.872 --     7 O    0.789
    30   1 H    1.013 --     9 C    0.987
    31   1 H    1.015 --     9 C    0.985
    32   1 H    1.012 --     9 C    0.991
    33   1 H    0.972 --    11 N    0.930
    34   1 H    1.012 --    14 C    0.984
    35   1 H    1.015 --    14 C    0.985
    36   1 H    1.013 --    14 C    0.985
    37   1 H    1.005 --    15 C    0.983
    38   1 H    1.012 --    15 C    0.982
    39   1 H    1.004 --    15 C    0.986
    40   1 H    0.977 --    16 N    0.877
    41   1 H    1.000 --    23 C    0.983
    42   1 H    0.998 --    23 C    0.965
    43   1 H    0.998 --    23 C    0.965
 ---------------------------------------------------------------------------

           -------------------------------------------------
          | TOTAL ENERGY              -83.871106085155 Eh   |
          | GRADIENT NORM               0.000339271115 Eh/α |
          | HOMO-LUMO GAP               1.630859834054 eV   |
           -------------------------------------------------

 * finished run on 2023/06/20 at 15:13:33.993
