   * xtb version 6.5.1 (579679a) compiled by 'ehlert@majestix' on 2022-07-11
          program call               : /lustre/hpc/kemi/ree/PhD/git/ReactivityQM/dep/xtb-6.5.1/bin/xtb --gfn 1 /lustre/hpc/kemi/ree/PhD/git/ReactivityQM/calculations/R03/reac01prodN02/conf09/R03_reac01prodN02_conf09_gfn1.xyz --opt --vfukui --chrg 1 --uhf 0 --alpb DMSO

   ID    Z sym.   atoms
    1    6 C      1-3, 5-7, 9, 10
    2    7 N      4
    3    9 F      8
    4    1 H      11-21

      * Solvation model:               ALPB
        Solvent                        DMSO
        Solvent mass                       7.8130E+01 g/mol
          :  Hamiltonian                  GFN1-xTB          :
 * total energy  :   -30.7592546 Eh     change       -0.2000178E-11 Eh
 * total energy  :   -30.7644870 Eh     change       -0.5232404E-02 Eh
 * total energy  :   -30.7666372 Eh     change       -0.2150192E-02 Eh
 * total energy  :   -30.7671312 Eh     change       -0.4940157E-03 Eh
 * total energy  :   -30.7681421 Eh     change       -0.1010927E-02 Eh
 * total energy  :   -30.7687814 Eh     change       -0.6392585E-03 Eh
 * total energy  :   -30.7696291 Eh     change       -0.8476948E-03 Eh
 * total energy  :   -30.7704189 Eh     change       -0.7898375E-03 Eh
 * total energy  :   -30.7698225 Eh     change        0.5963941E-03 Eh
 * total energy  :   -30.7713989 Eh     change       -0.1576369E-02 Eh
 * total energy  :   -30.7791339 Eh     change       -0.1855519E-03 Eh
 * total energy  :   -30.7794277 Eh     change       -0.2938369E-03 Eh
 * total energy  :   -30.7799245 Eh     change       -0.4967518E-03 Eh
 * total energy  :   -30.7803246 Eh     change       -0.4001032E-03 Eh
 * total energy  :   -30.7805643 Eh     change       -0.2396976E-03 Eh
 * total energy  :   -30.7806050 Eh     change       -0.4069580E-04 Eh
 * total energy  :   -30.7806391 Eh     change       -0.3409484E-04 Eh
 * total energy  :   -30.7806491 Eh     change       -0.1001207E-04 Eh
 * total energy  :   -30.7806525 Eh     change       -0.3455661E-05 Eh
   *** GEOMETRY OPTIMIZATION CONVERGED AFTER 40 ITERATIONS ***

 final structure:
================
21
 xtb: 6.5.1 (579679a)
C           -0.99493027702960       -1.77414506715992        1.29509784260875
C           -0.02420426293129       -0.83690230724662        0.63001949396949
C           -1.62214212255000        0.66501654563022       -0.52914257003850
N           -0.98336023943898        1.52623460595878       -1.24006570445850
C            0.44786390708321        0.29502532188538        1.31317720288400
C            1.42202168377733        1.10489261071410        0.75422113182382
C            1.93416002645096        0.75844167868194       -0.48648223223225
F            2.86655709421702        1.53768193765652       -1.03465398245498
C            1.51787463169324       -0.36915815493414       -1.17933213226964
C            0.54615232029957       -1.17160255705906       -0.60797187749353
H           -1.66161122782364       -1.23421925423598        1.96581108209573
H           -1.58719782980538       -2.31143033136274        0.55582326848312
H           -0.43929559149218       -2.50731171796782        1.88412132672107
H           -1.96860238443386        0.93691502890600        0.45647591326983
H           -1.97047397717449       -0.24967134501725       -0.98499628294669
H           -0.72926886136455        2.43050389210178       -0.87305182173530
H           -0.73012544422152        1.33529312614475       -2.19804441081305
H            0.03615715380201        0.54336522452269        2.28415551140617
H            1.78075085772517        1.98872806550104        1.26504040111436
H            1.95104816087817       -0.60776087603034       -2.14183046981855
H            0.20862638233932       -2.05989742668921       -1.12837369011495

          :  Hamiltonian                  GFN1-xTB          :
         :: total energy             -30.780652544124 Eh    ::
         :: gradient norm              0.000926645066 Eh/a0 ::
         :: HOMO-LUMO gap              2.180183435889 eV    ::
         :: SCC energy               -31.211790868052 Eh    ::
         :: -> Gsolv                  -0.098606373345 Eh    ::
         :: repulsion energy           0.442579802422 Eh    ::

    * Orbital Energies and Occupations

         #    Occupation            Energy/Eh            Energy/eV
      -------------------------------------------------------------
         1        2.0000           -0.8884791             -24.1767
       ...           ...                  ...                  ...
        15        2.0000           -0.5962885             -16.2258
        16        2.0000           -0.5842173             -15.8974
        17        2.0000           -0.5789467             -15.7539
        18        2.0000           -0.5621202             -15.2961
        19        2.0000           -0.5603823             -15.2488
        20        2.0000           -0.5554049             -15.1133
        21        2.0000           -0.5543540             -15.0847
        22        2.0000           -0.5249151             -14.2837
        23        2.0000           -0.5231032             -14.2344
        24        2.0000           -0.5135913             -13.9755
        25        2.0000           -0.4958565             -13.4929
        26        2.0000           -0.4774984             -12.9934
        27        2.0000           -0.4605834             -12.5331 (HOMO)
        28                         -0.3804631             -10.3529 (LUMO)
        29                         -0.2986823              -8.1276
        30                         -0.2899072              -7.8888
        31                         -0.1786829              -4.8622
        32                         -0.1727892              -4.7018
        33                         -0.1670658              -4.5461
        34                         -0.1528237              -4.1585
        35                         -0.1378366              -3.7507
        36                         -0.1195522              -3.2532
        37                         -0.1156609              -3.1473
        38                         -0.1131240              -3.0783
       ...                                ...                  ...
        62                          0.6159752              16.7615
      -------------------------------------------------------------
                  HL-Gap            0.0801203 Eh            2.1802 eV

Wiberg/Mayer (AO) data.
largest (>0.10) Wiberg bond orders for each atom

     #   Z sym  total        # sym  WBO       # sym  WBO       # sym  WBO
 ---------------------------------------------------------------------------
     1   6 C    3.991 --     2 C    1.025    11 H    0.980    12 H    0.980
                            13 H    0.961
     2   6 C    3.983 --    10 C    1.348     5 C    1.346     1 C    1.025
                             3 C    0.108
     3   6 C    3.870 --     4 N    1.702    14 H    0.967    15 H    0.967
                             2 C    0.108
     4   7 N    3.548 --     3 C    1.702    16 H    0.872    17 H    0.872
     5   6 C    3.991 --     6 C    1.464     2 C    1.346    18 H    0.968
     6   6 C    3.990 --     5 C    1.464     7 C    1.380    19 H    0.966
     7   6 C    3.867 --     6 C    1.380     9 C    1.374     8 F    0.949
     8   9 F    1.087 --     7 C    0.949
     9   6 C    3.990 --    10 C    1.470     7 C    1.374    20 H    0.966
    10   6 C    3.991 --     9 C    1.470     2 C    1.348    21 H    0.969
    11   1 H    0.998 --     1 C    0.980
    12   1 H    0.998 --     1 C    0.980
    13   1 H    0.998 --     1 C    0.961
    14   1 H    0.996 --     3 C    0.967
    15   1 H    0.995 --     3 C    0.967
    16   1 H    0.907 --     4 N    0.872
    17   1 H    0.907 --     4 N    0.872
    18   1 H    0.996 --     5 C    0.968
    19   1 H    0.994 --     6 C    0.966
    20   1 H    0.994 --     9 C    0.966
    21   1 H    0.996 --    10 C    0.969
 ---------------------------------------------------------------------------

           -------------------------------------------------
          | TOTAL ENERGY              -30.780652544124 Eh   |
          | GRADIENT NORM               0.000926645066 Eh/α |
          | HOMO-LUMO GAP               2.180183435889 eV   |
           -------------------------------------------------

 * finished run on 2023/06/20 at 15:14:11.413
