   * xtb version 6.5.1 (579679a) compiled by 'ehlert@majestix' on 2022-07-11
          program call               : /lustre/hpc/kemi/ree/PhD/git/ReactivityQM/dep/xtb-6.5.1/bin/xtb --gfn 1 /lustre/hpc/kemi/ree/PhD/git/ReactivityQM/calculations/R01/reac02prodN04/conf08/R01_reac02prodN04_conf08_gfn1.xyz --opt --vfukui --chrg 1 --uhf 0 --alpb DMSO

   ID    Z sym.   atoms
    1    6 C      1, 3, 5, 6, 8, 11-14, 17
    2    8 O      2, 4, 7, 9
    3    7 N      10, 15, 16
    4    1 H      18-33

      * Solvation model:               ALPB
        Solvent                        DMSO
        Solvent mass                       7.8130E+01 g/mol
          :  Hamiltonian                  GFN1-xTB          :
 * total energy  :   -57.8384239 Eh     change       -0.1408296E-10 Eh
 * total energy  :   -57.8553197 Eh     change       -0.1689576E-01 Eh
 * total energy  :   -57.8607140 Eh     change       -0.5394302E-02 Eh
 * total energy  :   -57.8615891 Eh     change       -0.8751751E-03 Eh
 * total energy  :   -57.8621062 Eh     change       -0.5170629E-03 Eh
 * total energy  :   -57.8623802 Eh     change       -0.2739559E-03 Eh
 * total energy  :   -57.8626028 Eh     change       -0.2226500E-03 Eh
 * total energy  :   -57.8627609 Eh     change       -0.1581034E-03 Eh
 * total energy  :   -57.8628855 Eh     change       -0.1246265E-03 Eh
 * total energy  :   -57.8629782 Eh     change       -0.9267623E-04 Eh
 * total energy  :   -57.8631379 Eh     change       -0.5210194E-05 Eh
 * total energy  :   -57.8631463 Eh     change       -0.8382634E-05 Eh
 * total energy  :   -57.8631512 Eh     change       -0.4936037E-05 Eh
 * total energy  :   -57.8631603 Eh     change       -0.9071043E-05 Eh
 * total energy  :   -57.8631666 Eh     change       -0.6290440E-05 Eh
 * total energy  :   -57.8631726 Eh     change       -0.6081757E-05 Eh
 * total energy  :   -57.8631797 Eh     change       -0.7012317E-05 Eh
 * total energy  :   -57.8631857 Eh     change       -0.6007156E-05 Eh
 * total energy  :   -57.8631895 Eh     change       -0.3837294E-05 Eh
   *** GEOMETRY OPTIMIZATION CONVERGED AFTER 26 ITERATIONS ***

 final structure:
================
33
 xtb: 6.5.1 (579679a)
C            4.35397479126947        0.87148158399148        0.79978044405648
O            2.96748711792979        0.53057939737975        0.60321534354888
C            2.63441355621340       -0.72874395034039        0.78840130055684
O            3.42972657749504       -1.59110190114117        1.10188391677269
C            1.21068546940211       -1.07084103126835        0.48861476336185
C            0.92020570461339       -2.37827205875862        0.18212700118003
O            1.77565616780443       -3.37397810987987        0.27014985115688
C           -0.41031213226500       -2.74714647272058       -0.33762639647298
O           -0.78863288280582       -3.85416056465316       -0.62707880083388
N           -1.21945442584355       -1.63255798866040       -0.50280661816931
C           -0.96832676940451       -0.37450662585174       -0.13814061223288
C           -2.13489764522379        0.57959354876063       -0.40576025042741
C           -2.95451696091247        0.74733799162657        0.88244093685880
C           -1.69759424744909        1.92744955453434       -0.99779080773320
N           -2.98570384171763       -0.11051472699672       -1.37377426697777
N            0.20292346588922       -0.09332499523314        0.40895478330946
C            0.45973437002847        1.20738082925320        1.03816829140890
H            4.66690377840374        0.56764032052062        1.80021661013186
H            4.41764888162354        1.95088041723572        0.68427904486232
H            4.96301133519550        0.36358495904855        0.04958248320036
H            2.65103932865373       -3.06359301385368        0.61641408342291
H           -2.14254044632535       -1.74547591315152       -0.94333558324628
H           -2.35768566683348        1.16573870093687        1.68937723150211
H           -3.78675828198049        1.42005483981846        0.68179252459406
H           -3.34501168734441       -0.21933665255774        1.19691906389931
H           -0.89307265282753        1.78588371221663       -1.71710951106872
H           -1.37648980796819        2.62804846926556       -0.23134337372615
H           -2.55266267277193        2.36412291129793       -1.51213980294524
H           -3.93610653047110        0.22007906655761       -1.28582524508057
H           -2.67038439251622        0.09506443064698       -2.31189604092039
H           -0.47861812072719        1.63907018350610        1.36394396073156
H            1.09133279786876        1.05282082394331        1.90831091642096
H            0.95402782299705        1.86674426452692        0.32813775885863

          :  Hamiltonian                  GFN1-xTB          :
         :: total energy             -57.863189499657 Eh    ::
         :: gradient norm              0.000559289286 Eh/a0 ::
         :: HOMO-LUMO gap              2.318967713500 eV    ::
         :: SCC energy               -58.439266378132 Eh    ::
         :: -> Gsolv                  -0.104688354717 Eh    ::
         :: repulsion energy           0.595790883887 Eh    ::

    * Orbital Energies and Occupations

         #    Occupation            Energy/Eh            Energy/eV
      -------------------------------------------------------------
         1        2.0000           -0.8862888             -24.1171
       ...           ...                  ...                  ...
        35        2.0000           -0.5632064             -15.3256
        36        2.0000           -0.5446420             -14.8205
        37        2.0000           -0.5390367             -14.6679
        38        2.0000           -0.5352932             -14.5661
        39        2.0000           -0.5303369             -14.4312
        40        2.0000           -0.5280907             -14.3701
        41        2.0000           -0.5249977             -14.2859
        42        2.0000           -0.5208652             -14.1735
        43        2.0000           -0.5202212             -14.1559
        44        2.0000           -0.5155428             -14.0286
        45        2.0000           -0.4934311             -13.4269
        46        2.0000           -0.4757921             -12.9470
        47        2.0000           -0.4488310             -12.2133 (HOMO)
        48                         -0.3636105              -9.8943 (LUMO)
        49                         -0.3480476              -9.4709
        50                         -0.2811503              -7.6505
        51                         -0.2152448              -5.8571
        52                         -0.1681384              -4.5753
        53                         -0.1502299              -4.0880
        54                         -0.1478902              -4.0243
        55                         -0.1407065              -3.8288
        56                         -0.1222526              -3.3267
        57                         -0.1126813              -3.0662
        58                         -0.1071796              -2.9165
       ...                                ...                  ...
       100                          0.7141336              19.4326
      -------------------------------------------------------------
                  HL-Gap            0.0852205 Eh            2.3190 eV

Wiberg/Mayer (AO) data.
largest (>0.10) Wiberg bond orders for each atom

     #   Z sym  total        # sym  WBO       # sym  WBO       # sym  WBO
 ---------------------------------------------------------------------------
     1   6 C    3.839 --    19 H    0.984    18 H    0.978    20 H    0.977
                             2 O    0.865
     2   8 O    2.235 --     3 C    1.156     1 C    0.865     4 O    0.135
     3   6 C    3.864 --     4 O    1.619     2 O    1.156     5 C    1.008
     4   8 O    1.974 --     3 C    1.619     2 O    0.135
     5   6 C    3.917 --     6 C    1.508    16 N    1.060     3 C    1.008
                             7 O    0.110
     6   6 C    3.925 --     5 C    1.508     7 O    1.180     8 C    1.020
     7   8 O    2.134 --     6 C    1.180    21 H    0.744     5 C    0.110
     8   6 C    3.901 --     9 O    1.676    10 N    1.079     6 C    1.020
     9   8 O    1.961 --     8 C    1.676    10 N    0.118
    10   7 N    3.495 --    11 C    1.299     8 C    1.079    22 H    0.821
                             9 O    0.118
    11   6 C    3.887 --    16 N    1.395    10 N    1.299    12 C    0.966
    12   6 C    3.952 --    15 N    0.993    14 C    0.983    13 C    0.972
                            11 C    0.966
    13   6 C    3.985 --    25 H    0.983    24 H    0.978    23 H    0.977
                            12 C    0.972
    14   6 C    3.987 --    26 H    0.984    12 C    0.983    28 H    0.978
                            27 H    0.978
    15   7 N    3.011 --    12 C    0.993    30 H    0.931    29 H    0.924
    16   7 N    3.570 --    11 C    1.395     5 C    1.060    17 C    0.908
    17   6 C    3.895 --    32 H    0.975    31 H    0.973    33 H    0.969
                            16 N    0.908
    18   1 H    1.002 --     1 C    0.978
    19   1 H    1.005 --     1 C    0.984
    20   1 H    1.001 --     1 C    0.977
    21   1 H    0.830 --     7 O    0.744
    22   1 H    0.930 --    10 N    0.821
    23   1 H    1.000 --    13 C    0.977
    24   1 H    0.994 --    13 C    0.978
    25   1 H    0.998 --    13 C    0.983
    26   1 H    0.997 --    14 C    0.984
    27   1 H    0.999 --    14 C    0.978
    28   1 H    0.997 --    14 C    0.978
    29   1 H    0.939 --    15 N    0.924
    30   1 H    0.942 --    15 N    0.931
    31   1 H    1.003 --    17 C    0.973
    32   1 H    0.998 --    17 C    0.975
    33   1 H    1.002 --    17 C    0.969
 ---------------------------------------------------------------------------

           -------------------------------------------------
          | TOTAL ENERGY              -57.863189499657 Eh   |
          | GRADIENT NORM               0.000559289286 Eh/α |
          | HOMO-LUMO GAP               2.318967713500 eV   |
           -------------------------------------------------

 * finished run on 2023/06/20 at 15:05:24.685
