   * xtb version 6.5.1 (579679a) compiled by 'ehlert@majestix' on 2022-07-11
          program call               : /lustre/hpc/kemi/ree/PhD/git/ReactivityQM/dep/xtb-6.5.1/bin/xtb --gfn 1 /lustre/hpc/kemi/ree/PhD/git/ReactivityQM/calculations/R02/reac01prodE05/conf12/R02_reac01prodE05_conf12_gfn1.xyz --opt --vfukui --chrg -1 --uhf 0 --alpb DMSO

   ID    Z sym.   atoms
    1    6 C      1, 3, 5, 6, 8, 11-14, 16, 18, 21, 22, 25
    2    8 O      2, 4, 7, 9, 17, 23
    3    7 N      10, 15, 19, 20, 24
    4    1 H      26-43

      * Solvation model:               ALPB
        Solvent                        DMSO
        Solvent mass                       7.8130E+01 g/mol
          :  Hamiltonian                  GFN1-xTB          :
 * total energy  :   -83.7993544 Eh     change       -0.4102958E-09 Eh
 * total energy  :   -83.8128456 Eh     change       -0.1349120E-01 Eh
 * total energy  :   -83.8204254 Eh     change       -0.7579751E-02 Eh
 * total energy  :   -83.8221729 Eh     change       -0.1747562E-02 Eh
 * total energy  :   -83.8237120 Eh     change       -0.1539085E-02 Eh
 * total energy  :   -83.8241568 Eh     change       -0.4447616E-03 Eh
 * total energy  :   -83.8244712 Eh     change       -0.3143775E-03 Eh
 * total energy  :   -83.8246909 Eh     change       -0.2197757E-03 Eh
 * total energy  :   -83.8248964 Eh     change       -0.2054615E-03 Eh
 * total energy  :   -83.8251157 Eh     change       -0.2193184E-03 Eh
 * total energy  :   -83.8265608 Eh     change       -0.7887702E-05 Eh
 * total energy  :   -83.8265801 Eh     change       -0.1933487E-04 Eh
 * total energy  :   -83.8265874 Eh     change       -0.7268975E-05 Eh
 * total energy  :   -83.8265997 Eh     change       -0.1237492E-04 Eh
 * total energy  :   -83.8266131 Eh     change       -0.1336336E-04 Eh
 * total energy  :   -83.8266222 Eh     change       -0.9057226E-05 Eh
 * total energy  :   -83.8266310 Eh     change       -0.8874936E-05 Eh
 * total energy  :   -83.8266367 Eh     change       -0.5698916E-05 Eh
 * total energy  :   -83.8266401 Eh     change       -0.3354956E-05 Eh
   *** GEOMETRY OPTIMIZATION CONVERGED AFTER 59 ITERATIONS ***

 final structure:
================
43
 xtb: 6.5.1 (579679a)
C           -5.26703246742939        2.30908228637291       -0.79902881393133
O           -4.13763144603729        1.58315951314966       -0.34125057770011
C           -4.12864693381904        0.22860420425450       -0.69925682279367
O           -5.07873554615448       -0.21557606663672       -1.39648481749419
C           -3.06071600471014       -0.53263636842392       -0.24395367649234
C           -2.89299232176722       -1.92318376879779       -0.66021872659097
O           -4.01931551750793       -2.62008320532104       -1.06173195965954
C           -1.66237643856182       -2.52540281112232       -0.66475905388575
O           -1.26625421118163       -3.68107874313767       -0.95880483217671
N           -0.59880171145282       -1.59354008452968       -0.21865508028102
C           -0.78409801546431       -0.49897325678515        0.50484268373898
C            0.46712430542339        0.04663548272671        1.20345825405346
C            0.51776175289725        1.57690228346177        1.32698575554990
C            0.57650495344115       -0.63971365996645        2.57299454065690
N            1.58240547100065       -0.35372222558424        0.33396837523559
C            2.90881268313124       -0.27426721979335        0.74375499584338
O            3.28342265672061       -0.26555566107462        1.91630705893573
C            3.79473689229408       -0.26880614516632       -0.40518977058237
N            3.42726676794683       -0.24746167317305       -1.67182942547378
N            4.57572627265205       -0.22777856183761       -2.41065455645259
C            5.56359301406645       -0.23508076808562       -1.57288629843508
C            7.01093138215421       -0.22859277614546       -1.89097133789123
O            5.15343197956769       -0.26085760819494       -0.28996169663770
N           -2.00133860019318        0.00841576432450        0.57692354769452
C           -2.40173797520436        0.96594686202270        1.60474884094723
H           -5.15479752715781        3.33341223582569       -0.44202053964696
H           -5.31992204577499        2.30836177284699       -1.89435017583312
H           -6.19675256859301        1.88464492391641       -0.40229499607841
H           -4.69901174875892       -1.93373011816710       -1.28199560661166
H            0.32800694573796       -1.99743397737065       -0.22956612387788
H           -0.06630652634208        1.93605865424127        2.16927125384940
H            1.55248964866619        1.87438940664806        1.49268132986754
H            0.16219597636362        2.04869786751204        0.41250195490806
H           -0.38035942070185       -0.59297053653048        3.08987115862917
H            1.32487203634164       -0.14529932270739        3.18751796172632
H            0.85563520681969       -1.68441356601304        2.44420818990509
H            1.45672418196820       -0.06278499280933       -0.62995311071755
H            7.14998229931295       -0.04636801433280       -2.95438047748176
H            7.45700587093337       -1.18957429067670       -1.63030805337892
H            7.51863009867894        0.54547749500459       -1.31562621075153
H           -2.29184311822878        1.98810200033838        1.24556988594087
H           -3.44727824405911        0.78584668268939        1.84791766948765
H           -1.81131100701698        0.82114498705240        2.50533328388703

          :  Hamiltonian                  GFN1-xTB          :
         :: total energy             -83.826640084520 Eh    ::
         :: gradient norm              0.000923721797 Eh/a0 ::
         :: HOMO-LUMO gap              0.077225581835 eV    ::
         :: SCC energy               -84.579406322193 Eh    ::
         :: -> Gsolv                  -0.116945532713 Eh    ::
         :: repulsion energy           0.780002694406 Eh    ::

    * Orbital Energies and Occupations

         #    Occupation            Energy/Eh            Energy/eV
      -------------------------------------------------------------
         1        2.0000           -0.8343719             -22.7044
       ...           ...                  ...                  ...
        56        2.0000           -0.4723678             -12.8538
        57        2.0000           -0.4644474             -12.6383
        58        2.0000           -0.4581162             -12.4660
        59        2.0000           -0.4475542             -12.1786
        60        2.0000           -0.4425330             -12.0419
        61        2.0000           -0.4377197             -11.9110
        62        2.0000           -0.4350928             -11.8395
        63        2.0000           -0.4289659             -11.6728
        64        2.0000           -0.4232571             -11.5174
        65        2.0000           -0.4165511             -11.3349
        66        2.0000           -0.3972104             -10.8086
        67        2.0000           -0.3771083             -10.2616
        68        1.6332           -0.2971653              -8.0863 (HOMO)
        69        0.3668           -0.2943274              -8.0091 (LUMO)
        70                         -0.2706434              -7.3646
        71                         -0.2353739              -6.4049
        72                         -0.1782228              -4.8497
        73                         -0.1742358              -4.7412
        74                         -0.1375408              -3.7427
        75                         -0.1341110              -3.6493
        76                         -0.1232693              -3.3543
        77                         -0.1154559              -3.1417
        78                         -0.1140777              -3.1042
        79                         -0.1069005              -2.9089
       ...                                ...                  ...
       136                          0.7308552              19.8876
      -------------------------------------------------------------
                  HL-Gap            0.0028380 Eh            0.0772 eV

Wiberg/Mayer (AO) data.
largest (>0.10) Wiberg bond orders for each atom

     #   Z sym  total        # sym  WBO       # sym  WBO       # sym  WBO
 ---------------------------------------------------------------------------
     1   6 C    3.906 --    26 H    0.987    27 H    0.981    28 H    0.981
                             2 O    0.935
     2   8 O    2.070 --     3 C    0.941     1 C    0.935
     3   6 C    3.823 --     4 O    1.384     5 C    1.383     2 O    0.941
     4   8 O    1.754 --     3 C    1.384     5 C    0.121
     5   6 C    3.696 --     3 C    1.383     6 C    1.090    24 N    0.933
                             4 O    0.121
     6   6 C    3.755 --     8 C    1.431     5 C    1.090     7 O    1.008
                             9 O    0.136
     7   8 O    1.936 --     6 C    1.008    29 H    0.795
     8   6 C    3.811 --     6 C    1.431     9 O    1.393    10 N    0.849
     9   8 O    1.662 --     8 C    1.393     6 C    0.136
    10   7 N    3.394 --    11 C    1.348    30 H    0.892     8 C    0.849
                            24 N    0.145
    11   6 C    3.930 --    24 N    1.401    10 N    1.348    12 C    0.968
    12   6 C    3.944 --    13 C    0.988    14 C    0.982    11 C    0.968
                            15 N    0.941
    13   6 C    3.990 --    12 C    0.988    33 H    0.985    32 H    0.981
                            31 H    0.981
    14   6 C    3.989 --    36 H    0.984    12 C    0.982    34 H    0.981
                            35 H    0.977
    15   7 N    3.199 --    16 C    1.114    12 C    0.941    37 H    0.908
                            17 O    0.128
    16   6 C    3.793 --    17 O    1.533    15 N    1.114    18 C    1.076
    17   8 O    1.792 --    16 C    1.533    15 N    0.128
    18   6 C    3.766 --    19 N    1.489    16 C    1.076    23 O    1.017
    19   7 N    2.852 --    18 C    1.489    20 N    1.191
    20   7 N    2.978 --    21 C    1.618    19 N    1.191
    21   6 C    3.840 --    20 N    1.618    23 O    1.068    22 C    1.028
    22   6 C    3.990 --    21 C    1.028    38 H    0.984    40 H    0.971
                            39 H    0.964
    23   8 O    2.250 --    21 C    1.068    18 C    1.017
    24   7 N    3.499 --    11 C    1.401    25 C    0.937     5 C    0.933
                            10 N    0.145
    25   6 C    3.940 --    42 H    0.979    43 H    0.979    41 H    0.977
                            24 N    0.937
    26   1 H    1.017 --     1 C    0.987
    27   1 H    1.018 --     1 C    0.981
    28   1 H    1.017 --     1 C    0.981
    29   1 H    0.891 --     7 O    0.795
    30   1 H    0.958 --    10 N    0.892
    31   1 H    1.004 --    13 C    0.981
    32   1 H    1.002 --    13 C    0.981
    33   1 H    1.001 --    13 C    0.985
    34   1 H    1.005 --    14 C    0.981
    35   1 H    1.016 --    14 C    0.977
    36   1 H    1.005 --    14 C    0.984
    37   1 H    0.967 --    15 N    0.908
    38   1 H    1.001 --    22 C    0.984
    39   1 H    0.998 --    22 C    0.964
    40   1 H    0.998 --    22 C    0.971
    41   1 H    1.018 --    25 C    0.977
    42   1 H    1.014 --    25 C    0.979
    43   1 H    1.008 --    25 C    0.979
 ---------------------------------------------------------------------------

           -------------------------------------------------
          | TOTAL ENERGY              -83.826640084520 Eh   |
          | GRADIENT NORM               0.000923721797 Eh/α |
          | HOMO-LUMO GAP               0.077225581835 eV   |
           -------------------------------------------------

 * finished run on 2023/06/20 at 14:58:27.445
