   * xtb version 6.5.1 (579679a) compiled by 'ehlert@majestix' on 2022-07-11
          program call               : /lustre/hpc/kemi/ree/PhD/git/ReactivityQM/dep/xtb-6.5.1/bin/xtb --gfn 1 /lustre/hpc/kemi/ree/PhD/git/ReactivityQM/calculations/RaltegravirCLI/reac02prodE02/conf15/RaltegravirCLI_reac02prodE02_conf15_gfn1.xyz --opt --vfukui --chrg -1 --uhf 0 --alpb DMSO

   ID    Z sym.   atoms
    1    6 C      1, 3, 5, 7, 8, 11-15, 17, 18, 20-24
    2    7 N      2, 10, 19, 25
    3    8 O      4, 6, 9
    4    9 F      16
    5    1 H      26-47

      * Solvation model:               ALPB
        Solvent                        DMSO
        Solvent mass                       7.8130E+01 g/mol
          :  Hamiltonian                  GFN1-xTB          :
 * total energy  :   -80.2044909 Eh     change       -0.5655920E-11 Eh
 * total energy  :   -80.2125539 Eh     change       -0.8063093E-02 Eh
 * total energy  :   -80.2147355 Eh     change       -0.2181560E-02 Eh
 * total energy  :   -80.2151995 Eh     change       -0.4639444E-03 Eh
 * total energy  :   -80.2156263 Eh     change       -0.4268402E-03 Eh
 * total energy  :   -80.2158573 Eh     change       -0.2310220E-03 Eh
 * total energy  :   -80.2160891 Eh     change       -0.2317906E-03 Eh
 * total energy  :   -80.2162948 Eh     change       -0.2056959E-03 Eh
 * total energy  :   -80.2164316 Eh     change       -0.1368246E-03 Eh
 * total energy  :   -80.2165148 Eh     change       -0.8320511E-04 Eh
 * total energy  :   -80.2189372 Eh     change       -0.1576468E-05 Eh
 * total energy  :   -80.2189424 Eh     change       -0.5167003E-05 Eh
 * total energy  :   -80.2189498 Eh     change       -0.7429296E-05 Eh
 * total energy  :   -80.2189572 Eh     change       -0.7337103E-05 Eh
 * total energy  :   -80.2189658 Eh     change       -0.8600392E-05 Eh
 * total energy  :   -80.2189790 Eh     change       -0.1322782E-04 Eh
 * total energy  :   -80.2189930 Eh     change       -0.1405788E-04 Eh
 * total energy  :   -80.2190058 Eh     change       -0.1273586E-04 Eh
 * total energy  :   -80.2190106 Eh     change       -0.4844478E-05 Eh
   *** GEOMETRY OPTIMIZATION CONVERGED AFTER 44 ITERATIONS ***

 final structure:
================
47
 xtb: 6.5.1 (579679a)
C           -3.26637020009420        0.16614887456666       -2.90558650269700
N           -2.23378684848475        0.19088813312778       -1.87283787803082
C           -0.93684106453006        0.40743911614410       -2.32050441732451
O           -0.71790758991264        0.89465648205092       -3.45558392435623
C            0.10486100020467        0.02164253206787       -1.44231800963003
O            1.41800369709052        0.28544078457864       -1.88637343006705
C           -0.16701578535341       -0.73030766104453       -0.30345622973788
C            0.91774486519642       -1.35927215475416        0.52681280762109
O            0.80241301605648       -1.56239177772086        1.73462274011846
N            2.02388912383277       -1.75862454754784       -0.15169830291798
C            3.20152855160491       -2.22590032403452        0.56416646717826
C            4.08831431212672       -1.05826785194039        0.94490842615033
C            3.76405365129582       -0.26546851672682        2.04485278931369
C            4.54848194091912        0.82687253769821        2.38525629869250
C            5.65635908441613        1.10643112543935        1.60570607831533
F            6.42427125091059        2.16349270908182        1.93000880778809
C            6.01096566292997        0.34080040648696        0.51088353922069
C            5.21206243874372       -0.74720049364820        0.18390546723534
N           -1.39090333938737       -0.96042963019983        0.13401808701883
C           -2.52045074892063       -0.33199611910919       -0.51986901900478
C           -3.60359273444527       -1.43157145790103       -0.57939562484162
C           -2.98665427236543        0.84306651147291        0.43222688976089
C           -4.28158066880298        1.53084042006865       -0.01326852392875
C           -1.88327111418828        1.91069568504552        0.54459733534622
N           -3.22952949791296        0.23541462478116        1.74236616697911
H           -2.97378365435564        0.85550539740017       -3.70048107810552
H           -3.37911462360048       -0.83563666020666       -3.33726533013176
H           -4.22909096909789        0.48704946763070       -2.51116126211191
H            1.31491447092366        0.68635080446135       -2.76654306302915
H            2.17514081232379       -1.44440507438966       -1.09866486378117
H            3.74396440796497       -2.92231569726266       -0.08031595025141
H            2.86818790201847       -2.75779075692631        1.46182467559903
H            2.89059596357981       -0.50587590307503        2.64159953822622
H            4.31192954907980        1.44898223194088        3.23867670635524
H            6.88972623272764        0.58934167537297       -0.06893683655011
H            5.47558899116831       -1.36108584798693       -0.66958819667904
H           -3.23418151976989       -2.26682831635503       -1.17375882927153
H           -3.78692143418363       -1.78197968790306        0.43565186882294
H           -4.54438607910882       -1.08612878431139       -1.00086979858513
H           -4.56190143701764        2.28534138989299        0.72334207814697
H           -4.14686742575568        2.03188938583766       -0.97087320431883
H           -5.10258413316208        0.81940123157646       -0.09127548347093
H           -2.19635928198101        2.69430247069308        1.23454604467311
H           -1.68991811091552        2.36189729097608       -0.42897808613321
H           -0.96089358496717        1.46897852125396        0.92104765192377
H           -3.45243917335554        0.95823851005631        2.41312968759387
H           -2.36665363344741       -0.21763105665262        2.04336269287635

          :  Hamiltonian                  GFN1-xTB          :
         :: total energy             -80.219010625943 Eh    ::
         :: gradient norm              0.000544307552 Eh/a0 ::
         :: HOMO-LUMO gap              1.208169584590 eV    ::
         :: SCC energy               -81.073500881149 Eh    ::
         :: -> Gsolv                  -0.098916014473 Eh    ::
         :: repulsion energy           0.886749104893 Eh    ::

    * Orbital Energies and Occupations

         #    Occupation            Energy/Eh            Energy/eV
      -------------------------------------------------------------
         1        2.0000           -0.8568163             -23.3152
       ...           ...                  ...                  ...
        56        2.0000           -0.4613758             -12.5547
        57        2.0000           -0.4535342             -12.3413
        58        2.0000           -0.4444715             -12.0947
        59        2.0000           -0.4426986             -12.0464
        60        2.0000           -0.4310700             -11.7300
        61        2.0000           -0.4197203             -11.4212
        62        2.0000           -0.4165155             -11.3340
        63        2.0000           -0.4066755             -11.0662
        64        2.0000           -0.3893936             -10.5959
        65        2.0000           -0.3845758             -10.4648
        66        2.0000           -0.3772723             -10.2661
        67        2.0000           -0.3608039              -9.8180
        68        2.0000           -0.3090373              -8.4093 (HOMO)
        69                         -0.2646379              -7.2012 (LUMO)
        70                         -0.2583135              -7.0291
        71                         -0.2450098              -6.6671
        72                         -0.1819324              -4.9506
        73                         -0.1366034              -3.7172
        74                         -0.1178754              -3.2076
        75                         -0.1100760              -2.9953
        76                         -0.1053416              -2.8665
        77                         -0.1040256              -2.8307
        78                         -0.0962917              -2.6202
        79                         -0.0945776              -2.5736
       ...                                ...                  ...
       144                          0.7221208              19.6499
      -------------------------------------------------------------
                  HL-Gap            0.0443994 Eh            1.2082 eV

Wiberg/Mayer (AO) data.
largest (>0.10) Wiberg bond orders for each atom

     #   Z sym  total        # sym  WBO       # sym  WBO       # sym  WBO
 ---------------------------------------------------------------------------
     1   6 C    3.966 --    28 H    0.984    27 H    0.982    26 H    0.979
                             2 N    0.961
     2   7 N    3.260 --     3 C    1.112     1 C    0.961    20 C    0.915
                             4 O    0.108
     3   6 C    3.922 --     4 O    1.429     5 C    1.214     2 N    1.112
     4   8 O    1.783 --     3 C    1.429     2 N    0.108
     5   6 C    3.842 --     7 C    1.334     3 C    1.214     6 O    0.949
                            19 N    0.163
     6   8 O    1.941 --     5 C    0.949    29 H    0.843
     7   6 C    3.974 --    19 N    1.449     5 C    1.334     8 C    0.981
     8   6 C    3.877 --     9 O    1.571    10 N    1.234     7 C    0.981
     9   8 O    1.862 --     8 C    1.571    10 N    0.152
    10   7 N    3.312 --     8 C    1.234    11 C    0.952    30 H    0.892
                             9 O    0.152
    11   6 C    3.961 --    12 C    0.994    31 H    0.979    32 H    0.971
                            10 N    0.952
    12   6 C    3.988 --    18 C    1.422    13 C    1.414    11 C    0.994
    13   6 C    3.992 --    14 C    1.447    12 C    1.414    33 H    0.969
                            17 C    0.111
    14   6 C    3.992 --    13 C    1.447    15 C    1.399    34 H    0.970
                            18 C    0.110
    15   6 C    3.858 --    17 C    1.405    14 C    1.399    16 F    0.918
    16   9 F    1.044 --    15 C    0.918
    17   6 C    3.992 --    18 C    1.438    15 C    1.405    35 H    0.970
                            13 C    0.111
    18   6 C    3.994 --    17 C    1.438    12 C    1.422    36 H    0.972
                            14 C    0.110
    19   7 N    2.938 --     7 C    1.449    20 C    1.007     5 C    0.163
    20   6 C    3.940 --    19 N    1.007    21 C    0.987    22 C    0.931
                             2 N    0.915
    21   6 C    3.996 --    20 C    0.987    37 H    0.985    38 H    0.983
                            39 H    0.982
    22   6 C    3.961 --    23 C    1.000    24 C    0.991    25 N    0.983
                            20 C    0.931
    23   6 C    3.996 --    22 C    1.000    40 H    0.983    41 H    0.983
                            42 H    0.982
    24   6 C    3.996 --    22 C    0.991    43 H    0.987    44 H    0.984
                            45 H    0.983
    25   7 N    2.969 --    22 C    0.983    46 H    0.954    47 H    0.940
    26   1 H    1.023 --     1 C    0.979
    27   1 H    1.008 --     1 C    0.982
    28   1 H    1.016 --     1 C    0.984
    29   1 H    0.889 --     6 O    0.843
    30   1 H    0.959 --    10 N    0.892
    31   1 H    1.007 --    11 C    0.979
    32   1 H    1.015 --    11 C    0.971
    33   1 H    1.014 --    13 C    0.969
    34   1 H    0.999 --    14 C    0.970
    35   1 H    0.999 --    17 C    0.970
    36   1 H    1.000 --    18 C    0.972
    37   1 H    1.015 --    21 C    0.985
    38   1 H    1.028 --    21 C    0.983
    39   1 H    1.008 --    21 C    0.982
    40   1 H    1.005 --    23 C    0.983
    41   1 H    1.007 --    23 C    0.983
    42   1 H    1.011 --    23 C    0.982
    43   1 H    1.008 --    24 C    0.987
    44   1 H    1.012 --    24 C    0.984
    45   1 H    1.014 --    24 C    0.983
    46   1 H    0.970 --    25 N    0.954
    47   1 H    0.990 --    25 N    0.940
 ---------------------------------------------------------------------------

           -------------------------------------------------
          | TOTAL ENERGY              -80.219010625943 Eh   |
          | GRADIENT NORM               0.000544307552 Eh/α |
          | HOMO-LUMO GAP               1.208169584590 eV   |
           -------------------------------------------------

 * finished run on 2023/06/20 at 14:56:38.835
