   * xtb version 6.5.1 (579679a) compiled by 'ehlert@majestix' on 2022-07-11
          program call               : /lustre/hpc/kemi/ree/PhD/git/ReactivityQM/dep/xtb-6.5.1/bin/xtb --gfn 1 /lustre/hpc/kemi/ree/PhD/git/ReactivityQM/calculations/R01/reac02prodE07/conf17/R01_reac02prodE07_conf17_gfn1.xyz --opt --vfukui --chrg -1 --uhf 0 --alpb DMSO

   ID    Z sym.   atoms
    1    6 C      1, 3, 5, 6, 8, 10, 12-15
    2    8 O      2, 4, 7, 9
    3    7 N      11, 16, 17
    4    1 H      18-33

      * Solvation model:               ALPB
        Solvent                        DMSO
        Solvent mass                       7.8130E+01 g/mol
          :  Hamiltonian                  GFN1-xTB          :
 * total energy  :   -58.5053238 Eh     change       -0.3158362E-10 Eh
 * total energy  :   -58.5218312 Eh     change       -0.1650736E-01 Eh
 * total energy  :   -58.5264578 Eh     change       -0.4626640E-02 Eh
 * total energy  :   -58.5272129 Eh     change       -0.7551105E-03 Eh
 * total energy  :   -58.5277180 Eh     change       -0.5051249E-03 Eh
 * total energy  :   -58.5278830 Eh     change       -0.1650027E-03 Eh
 * total energy  :   -58.5280201 Eh     change       -0.1370305E-03 Eh
 * total energy  :   -58.5282014 Eh     change       -0.1813181E-03 Eh
 * total energy  :   -58.5285089 Eh     change       -0.3075299E-03 Eh
 * total energy  :   -58.5288003 Eh     change       -0.2913669E-03 Eh
 * total energy  :   -58.5309285 Eh     change       -0.3517512E-04 Eh
 * total energy  :   -58.5309519 Eh     change       -0.2332569E-04 Eh
 * total energy  :   -58.5309870 Eh     change       -0.3507920E-04 Eh
 * total energy  :   -58.5310199 Eh     change       -0.3296558E-04 Eh
 * total energy  :   -58.5310363 Eh     change       -0.1637860E-04 Eh
 * total energy  :   -58.5310402 Eh     change       -0.3867043E-05 Eh
 * total energy  :   -58.5310505 Eh     change       -0.1031710E-04 Eh
 * total energy  :   -58.5310578 Eh     change       -0.7360919E-05 Eh
 * total energy  :   -58.5310621 Eh     change       -0.4243355E-05 Eh
   *** GEOMETRY OPTIMIZATION CONVERGED AFTER 54 ITERATIONS ***

 final structure:
================
33
 xtb: 6.5.1 (579679a)
C            3.64700367094893       -2.70067088284538        1.24458819422357
O            2.43016965663099       -2.07308443519429        0.89777844892836
C            2.56163938213375       -0.77370068603834        0.37888473645456
O            3.73145315400270       -0.27959820264689        0.28033265830379
C            1.39134211605301       -0.13487400284723        0.03289685674292
C            1.42405704706292        1.20583307416952       -0.55670857706258
O            2.64642611201648        1.74680738177766       -0.85085769205790
C            0.27299555129133        1.84111047417411       -0.83245582239040
O            0.12324062846716        3.08159863759803       -1.44125091206391
C            0.69101008216056        4.18627172604199       -0.74969212629689
N           -0.97479945115071        1.25441954908075       -0.41827175950338
C           -0.92556077883868       -0.12623231963168       -0.14632223761415
C           -2.28969940837007       -0.78697285867244       -0.05730215879394
C           -2.14686859906745       -2.31343546120333       -0.11812234698705
C           -2.95583415985404       -0.36206969122108        1.25936555283044
N           -3.11546142456177       -0.29317629578137       -1.16533231024646
N            0.13399862281657       -0.77722824278325        0.12019859798145
H            3.40360939690233       -3.69926184478383        1.61310844359512
H            4.17568865172837       -2.14666189060909        2.03136009846525
H            4.31448248831537       -2.79068612756933        0.37766593126222
H            3.31490022268838        1.08296926659788       -0.46862735828618
H            0.31051870425969        4.25382190120154        0.27800188763340
H            1.78633564876761        4.11675540746068       -0.71918272776528
H            0.40445543348132        5.08663819424193       -1.29700792795969
H           -1.75764338246419        1.51260417272481       -1.01027892930964
H           -1.51134488476007       -2.65976663400069        0.69778587093846
H           -3.12353414230629       -2.78784228874742       -0.03738128216795
H           -1.68922671395003       -2.60798932673389       -1.06253606910140
H           -2.35361015207607       -0.68795151215232        2.10783844823560
H           -3.94734943173421       -0.80573211660198        1.34318772651071
H           -3.05288331418377        0.72337800218689        1.29145913072446
H           -2.83828976846243       -0.75000954694884       -2.02469379084975
H           -4.08122295794342       -0.53526442024372       -0.99843055437100

          :  Hamiltonian                  GFN1-xTB          :
         :: total energy             -58.531062085165 Eh    ::
         :: gradient norm              0.000441139036 Eh/a0 ::
         :: HOMO-LUMO gap              2.198537720700 eV    ::
         :: SCC energy               -59.064619393693 Eh    ::
         :: -> Gsolv                  -0.104923160173 Eh    ::
         :: repulsion energy           0.551455849441 Eh    ::

    * Orbital Energies and Occupations

         #    Occupation            Energy/Eh            Energy/eV
      -------------------------------------------------------------
         1        2.0000           -0.7655698             -20.8322
       ...           ...                  ...                  ...
        36        2.0000           -0.4725835             -12.8597
        37        2.0000           -0.4696923             -12.7810
        38        2.0000           -0.4627305             -12.5915
        39        2.0000           -0.4578675             -12.4592
        40        2.0000           -0.4500496             -12.2465
        41        2.0000           -0.4335164             -11.7966
        42        2.0000           -0.4324643             -11.7680
        43        2.0000           -0.4134312             -11.2500
        44        2.0000           -0.3990247             -10.8580
        45        2.0000           -0.3917792             -10.6609
        46        2.0000           -0.3770895             -10.2611
        47        2.0000           -0.3696448             -10.0585
        48        2.0000           -0.2928782              -7.9696 (HOMO)
        49                         -0.2120834              -5.7711 (LUMO)
        50                         -0.1813705              -4.9353
        51                         -0.1154338              -3.1411
        52                         -0.1095938              -2.9822
        53                         -0.1080543              -2.9403
        54                         -0.1047949              -2.8516
        55                         -0.0878052              -2.3893
        56                         -0.0849846              -2.3125
        57                         -0.0624801              -1.7002
        58                         -0.0574672              -1.5638
        59                         -0.0514087              -1.3989
       ...                                ...                  ...
       100                          0.7104238              19.3316
      -------------------------------------------------------------
                  HL-Gap            0.0807948 Eh            2.1985 eV

Wiberg/Mayer (AO) data.
largest (>0.10) Wiberg bond orders for each atom

     #   Z sym  total        # sym  WBO       # sym  WBO       # sym  WBO
 ---------------------------------------------------------------------------
     1   6 C    3.919 --    18 H    0.987    19 H    0.981    20 H    0.980
                             2 O    0.951
     2   8 O    2.062 --     1 C    0.951     3 C    0.935
     3   6 C    3.873 --     5 C    1.435     4 O    1.331     2 O    0.935
     4   8 O    1.793 --     3 C    1.331    21 H    0.133     5 C    0.123
     5   6 C    3.861 --     3 C    1.435     6 C    1.069    17 N    1.051
                             4 O    0.123
     6   6 C    3.914 --     8 C    1.649     5 C    1.069     7 O    1.037
     7   8 O    1.975 --     6 C    1.037    21 H    0.742
     8   6 C    3.821 --     6 C    1.649    11 N    0.962     9 O    0.951
     9   8 O    2.022 --     8 C    0.951    10 C    0.934
    10   6 C    3.917 --    24 H    0.986    22 H    0.983    23 H    0.981
                             9 O    0.934
    11   7 N    3.199 --    12 C    1.050     8 C    0.962    25 H    0.913
                            17 N    0.113
    12   6 C    3.946 --    17 N    1.728    11 N    1.050    13 C    0.975
    13   6 C    3.964 --    14 C    0.992    15 C    0.987    16 N    0.975
                            12 C    0.975
    14   6 C    3.996 --    13 C    0.992    27 H    0.988    28 H    0.985
                            26 H    0.983
    15   6 C    3.994 --    29 H    0.987    13 C    0.987    31 H    0.986
                            30 H    0.986
    16   7 N    2.972 --    13 C    0.975    33 H    0.948    32 H    0.948
    17   7 N    3.025 --    12 C    1.728     5 C    1.051    11 N    0.113
    18   1 H    1.020 --     1 C    0.987
    19   1 H    1.021 --     1 C    0.981
    20   1 H    1.021 --     1 C    0.980
    21   1 H    0.889 --     7 O    0.742     4 O    0.133
    22   1 H    1.014 --    10 C    0.983
    23   1 H    1.025 --    10 C    0.981
    24   1 H    1.019 --    10 C    0.986
    25   1 H    0.984 --    11 N    0.913
    26   1 H    1.018 --    14 C    0.983
    27   1 H    1.006 --    14 C    0.988
    28   1 H    1.011 --    14 C    0.985
    29   1 H    1.007 --    15 C    0.987
    30   1 H    1.003 --    15 C    0.986
    31   1 H    1.011 --    15 C    0.986
    32   1 H    0.964 --    16 N    0.948
    33   1 H    0.963 --    16 N    0.948
 ---------------------------------------------------------------------------

           -------------------------------------------------
          | TOTAL ENERGY              -58.531062085165 Eh   |
          | GRADIENT NORM               0.000441139036 Eh/α |
          | HOMO-LUMO GAP               2.198537720700 eV   |
           -------------------------------------------------

 * finished run on 2023/06/20 at 15:02:00.123
