   * xtb version 6.5.1 (579679a) compiled by 'ehlert@majestix' on 2022-07-11
          program call               : /lustre/hpc/kemi/ree/PhD/git/ReactivityQM/dep/xtb-6.5.1/bin/xtb --gfn 1 /lustre/hpc/kemi/ree/PhD/git/ReactivityQM/calculations/R02methylcation/reac01/conf12/R02methylcation_reac01_conf12_gfn1.xyz --opt --vfukui --chrg -1 --uhf 0 --alpb DMSO

   ID    Z sym.   atoms
    1    6 C      1, 3, 5, 7-10, 12, 14, 17, 18, 21, 23
    2    8 O      2, 4, 13, 19, 22, 24
    3    7 N      6, 11, 15, 16, 20
    4    1 H      25-38

      * Solvation model:               ALPB
        Solvent                        DMSO
        Solvent mass                       7.8130E+01 g/mol
          :  Hamiltonian                  GFN1-xTB          :
 * total energy  :   -79.6045105 Eh     change       -0.4459366E-10 Eh
 * total energy  :   -79.6157089 Eh     change       -0.1119836E-01 Eh
 * total energy  :   -79.6196608 Eh     change       -0.3951880E-02 Eh
 * total energy  :   -79.6206242 Eh     change       -0.9634154E-03 Eh
 * total energy  :   -79.6216299 Eh     change       -0.1005714E-02 Eh
 * total energy  :   -79.6223515 Eh     change       -0.7216396E-03 Eh
 * total energy  :   -79.6230032 Eh     change       -0.6517095E-03 Eh
 * total energy  :   -79.6234568 Eh     change       -0.4535555E-03 Eh
 * total energy  :   -79.6236913 Eh     change       -0.2345264E-03 Eh
 * total energy  :   -79.6238135 Eh     change       -0.1221281E-03 Eh
 * total energy  :   -79.6267325 Eh     change       -0.1232483E-04 Eh
 * total energy  :   -79.6267441 Eh     change       -0.1160957E-04 Eh
 * total energy  :   -79.6267547 Eh     change       -0.1063361E-04 Eh
 * total energy  :   -79.6267640 Eh     change       -0.9285947E-05 Eh
 * total energy  :   -79.6267720 Eh     change       -0.8011448E-05 Eh
 * total energy  :   -79.6267790 Eh     change       -0.6950892E-05 Eh
 * total energy  :   -79.6267849 Eh     change       -0.5892513E-05 Eh
 * total energy  :   -79.6267902 Eh     change       -0.5289542E-05 Eh
 * total energy  :   -79.6267950 Eh     change       -0.4888284E-05 Eh
   *** GEOMETRY OPTIMIZATION CONVERGED AFTER 89 ITERATIONS ***

 final structure:
================
38
 xtb: 6.5.1 (579679a)
C           -5.87762017365459        0.45068121818875       -1.10828298317676
O           -4.54186783640775        0.31266397258060       -0.64719715951768
C           -4.33709121825482        0.61988976647035        0.67228084310808
O           -5.26777339163691        1.00503118033587        1.36364881859356
C           -2.95879039375133        0.42004368886577        1.08362831207590
N           -2.10051775124824       -0.01520136077449        0.08851569813616
C           -0.87112498769988       -0.24776603372485        0.35425447488799
C            0.07170636182579       -0.77209722907160       -0.70979224713623
C            0.23388832611455       -2.28602920923362       -0.53882219739224
C           -0.46363184120618       -0.43845612314293       -2.10470175945182
N            1.39697515638738       -0.16883475640525       -0.51674494452047
C            1.59635628217458        1.16367159887199       -0.50759797225033
O            0.72289880979519        2.00748861658366       -0.62559656892266
C            3.02235270140245        1.53023471760524       -0.29941216356294
N            3.52655066940676        2.72132532147158       -0.20607615314290
N            4.86435381469099        2.56669016266710        0.01094183487516
C            5.09268661643126        1.29131273594486        0.03769790882704
C            6.38593778138209        0.60451832377136        0.24396336933733
O            3.96970443807568        0.57862126646323       -0.15106304195990
N           -0.35129348323812       -0.10044506180124        1.62378710005314
C           -1.07870170423760        0.34033749119827        2.69834145334569
O           -0.53883943176068        0.45396297951780        3.79677772158716
C           -2.53465481092449        0.64689154233832        2.42065491245768
O           -3.24587840486098        1.05699137417688        3.35568528463120
H           -6.22141623756622        1.48550180612644       -1.00684155227981
H           -6.55229254623697       -0.20170474358001       -0.54408241981264
H           -5.88406207770415        0.16293346580983       -2.15873916766217
H           -0.73317244128252       -2.77349572718321       -0.65499701228962
H            0.62634249246694       -2.51265995248825        0.45104686993825
H            0.91873427416391       -2.67849803118679       -1.28782640595527
H            0.21492747113401       -0.81873516812049       -2.86511427509688
H           -0.56845146581099        0.63966567262103       -2.22189665313224
H           -1.44183975609992       -0.90096813936630       -2.23040038014092
H            2.19258509532420       -0.78026733880439       -0.48381387357764
H            6.61481687130427       -0.02203291819940       -0.61750046566249
H            7.17444833968614        1.34034604286335        0.38028899498212
H            6.32962438827819       -0.03929921049561        1.12138298126905
H            0.61413106353208       -0.33426294089122        1.78359981853536

          :  Hamiltonian                  GFN1-xTB          :
         :: total energy             -79.626795040718 Eh    ::
         :: gradient norm              0.000157205267 Eh/a0 ::
         :: HOMO-LUMO gap              1.620986020190 eV    ::
         :: SCC energy               -80.355170956356 Eh    ::
         :: -> Gsolv                  -0.144355986963 Eh    ::
         :: repulsion energy           0.751671734654 Eh    ::

    * Orbital Energies and Occupations

         #    Occupation            Energy/Eh            Energy/eV
      -------------------------------------------------------------
         1        2.0000           -0.8608987             -23.4262
       ...           ...                  ...                  ...
        52        2.0000           -0.4818307             -13.1113
        53        2.0000           -0.4751850             -12.9304
        54        2.0000           -0.4642825             -12.6338
        55        2.0000           -0.4595054             -12.5038
        56        2.0000           -0.4547660             -12.3748
        57        2.0000           -0.4540852             -12.3563
        58        2.0000           -0.4468767             -12.1601
        59        2.0000           -0.4430040             -12.0548
        60        2.0000           -0.4375091             -11.9052
        61        2.0000           -0.4352879             -11.8448
        62        2.0000           -0.4142074             -11.2712
        63        2.0000           -0.3761520             -10.2356
        64        2.0000           -0.3638449              -9.9007 (HOMO)
        65                         -0.3042748              -8.2797 (LUMO)
        66                         -0.2687429              -7.3129
        67                         -0.2526368              -6.8746
        68                         -0.2364804              -6.4350
        69                         -0.1950718              -5.3082
        70                         -0.1921169              -5.2278
        71                         -0.1395402              -3.7971
        72                         -0.1244103              -3.3854
        73                         -0.1219922              -3.3196
        74                         -0.1138809              -3.0989
        75                         -0.1070646              -2.9134
       ...                                ...                  ...
       124                          0.7664580              20.8564
      -------------------------------------------------------------
                  HL-Gap            0.0595701 Eh            1.6210 eV

Wiberg/Mayer (AO) data.
largest (>0.10) Wiberg bond orders for each atom

     #   Z sym  total        # sym  WBO       # sym  WBO       # sym  WBO
 ---------------------------------------------------------------------------
     1   6 C    3.900 --    27 H    0.987    26 H    0.980    25 H    0.980
                             2 O    0.928
     2   8 O    2.135 --     3 C    1.023     1 C    0.928     4 O    0.108
     3   6 C    3.849 --     4 O    1.590     5 C    1.122     2 O    1.023
     4   8 O    1.867 --     3 C    1.590     2 O    0.108
     5   6 C    3.916 --    23 C    1.268     6 N    1.150     3 C    1.122
                            24 O    0.130
     6   7 N    3.028 --     7 C    1.638     5 C    1.150
     7   6 C    3.933 --     6 N    1.638    20 N    1.093     8 C    0.973
     8   6 C    3.932 --    10 C    0.992     9 C    0.988     7 C    0.973
                            11 N    0.917
     9   6 C    3.990 --     8 C    0.988    29 H    0.984    28 H    0.984
                            30 H    0.984
    10   6 C    3.991 --     8 C    0.992    31 H    0.987    33 H    0.984
                            32 H    0.981
    11   7 N    3.355 --    12 C    1.264     8 C    0.917    34 H    0.895
                            13 O    0.179
    12   6 C    3.919 --    13 O    1.583    11 N    1.264    14 C    0.988
    13   8 O    1.887 --    12 C    1.583    11 N    0.179
    14   6 C    3.870 --    15 N    1.625    19 O    1.048    12 C    0.988
    15   7 N    2.997 --    14 C    1.625    16 N    1.195
    16   7 N    2.981 --    17 C    1.614    15 N    1.195
    17   6 C    3.870 --    16 N    1.614    19 O    1.072    18 C    1.031
    18   6 C    3.987 --    17 C    1.031    36 H    0.983    35 H    0.963
                            37 H    0.963
    19   8 O    2.316 --    17 C    1.072    14 C    1.048
    20   7 N    3.428 --    21 C    1.163     7 C    1.093    38 H    0.898
                            22 O    0.135
    21   6 C    3.878 --    22 O    1.576    20 N    1.163    23 C    0.967
    22   8 O    1.854 --    21 C    1.576    20 N    0.135
    23   6 C    3.943 --    24 O    1.523     5 C    1.268    21 C    0.967
    24   8 O    1.826 --    23 C    1.523     5 C    0.130
    25   1 H    1.014 --     1 C    0.980
    26   1 H    1.014 --     1 C    0.980
    27   1 H    1.016 --     1 C    0.987
    28   1 H    1.003 --     9 C    0.984
    29   1 H    1.000 --     9 C    0.984
    30   1 H    0.998 --     9 C    0.984
    31   1 H    1.003 --    10 C    0.987
    32   1 H    1.014 --    10 C    0.981
    33   1 H    1.014 --    10 C    0.984
    34   1 H    0.937 --    11 N    0.895
    35   1 H    0.997 --    18 C    0.963
    36   1 H    0.999 --    18 C    0.983
    37   1 H    0.997 --    18 C    0.963
    38   1 H    0.949 --    20 N    0.898
 ---------------------------------------------------------------------------

           -------------------------------------------------
          | TOTAL ENERGY              -79.626795040718 Eh   |
          | GRADIENT NORM               0.000157205267 Eh/α |
          | HOMO-LUMO GAP               1.620986020190 eV   |
           -------------------------------------------------

 * finished run on 2023/06/21 at 17:03:53.208
