   * xtb version 6.5.1 (579679a) compiled by 'ehlert@majestix' on 2022-07-11
          program call               : /lustre/hpc/kemi/ree/PhD/git/ReactivityQM/dep/xtb-6.5.1/bin/xtb --gfn 1 /lustre/hpc/kemi/ree/PhD/git/ReactivityQM/calculations/R02methylcation/reac01prodE07/conf07/R02methylcation_reac01prodE07_conf07_gfn1.xyz --opt --vfukui --chrg -2 --uhf 0 --alpb DMSO

   ID    Z sym.   atoms
    1    6 C      1, 3, 5, 7-10, 12, 14, 15, 18, 19, 22, 24
    2    8 O      2, 4, 13, 20, 23, 25
    3    7 N      6, 11, 16, 17, 21
    4    1 H      26-42

      * Solvation model:               ALPB
        Solvent                        DMSO
        Solvent mass                       7.8130E+01 g/mol
          :  Hamiltonian                  GFN1-xTB          :
 * total energy  :   -83.5828424 Eh     change       -0.8100187E-12 Eh
 * total energy  :   -83.5981012 Eh     change       -0.1525884E-01 Eh
 * total energy  :   -83.6052459 Eh     change       -0.7144642E-02 Eh
 * total energy  :   -83.6065616 Eh     change       -0.1315773E-02 Eh
 * total energy  :   -83.6072641 Eh     change       -0.7025017E-03 Eh
 * total energy  :   -83.6075038 Eh     change       -0.2396954E-03 Eh
 * total energy  :   -83.6077157 Eh     change       -0.2119033E-03 Eh
 * total energy  :   -83.6078923 Eh     change       -0.1765680E-03 Eh
 * total energy  :   -83.6080837 Eh     change       -0.1913687E-03 Eh
 * total energy  :   -83.6082929 Eh     change       -0.2092027E-03 Eh
 * total energy  :   -83.6167726 Eh     change       -0.3931666E-04 Eh
 * total energy  :   -83.6167976 Eh     change       -0.2504839E-04 Eh
 * total energy  :   -83.6168191 Eh     change       -0.2145407E-04 Eh
 * total energy  :   -83.6168311 Eh     change       -0.1196928E-04 Eh
 * total energy  :   -83.6168469 Eh     change       -0.1586787E-04 Eh
 * total energy  :   -83.6168593 Eh     change       -0.1235106E-04 Eh
 * total energy  :   -83.6168741 Eh     change       -0.1478736E-04 Eh
 * total energy  :   -83.6168849 Eh     change       -0.1083207E-04 Eh
 * total energy  :   -83.6168898 Eh     change       -0.4943288E-05 Eh
   *** GEOMETRY OPTIMIZATION CONVERGED AFTER 57 ITERATIONS ***

 final structure:
================
42
 xtb: 6.5.1 (579679a)
C           -6.85408093116944        1.60770308101696        0.22087585290716
O           -5.87458439134645        0.69737911300036       -0.25115244049931
C           -4.62268446484732        0.85914490117085        0.26060417533168
O           -4.39981378380103        1.75396272174112        1.07146707472776
C           -3.63640835484440       -0.08764827977126       -0.22803894604720
N           -2.37904221739445        0.11885937284610        0.31903568589754
C           -1.39854766492480       -0.64206321061141       -0.00170488890444
C           -0.02486047158969       -0.48057172073376        0.61785255644633
C            0.20272946141669        0.98581254057163        1.01794507471554
C            0.04321751153229       -1.38859758620457        1.85500065767272
N            0.96080088424814       -0.94160415259412       -0.38136076804870
C            2.34560962018336       -0.79051367557898        0.01741405246416
O            2.95741834205948       -1.99748748901114        0.45845443919473
C            3.75164109177480       -1.86415027851481        1.61882437423213
C            3.05224738698289        0.23797805095865       -0.54755417542131
N            2.49847300118042        1.31703748801641       -1.15626517981918
N            3.55005200980358        2.16174483419272       -1.45747266644713
C            4.63352302148485        1.61268305270866       -1.04182096882302
C            6.01787490033865        2.14912515214965       -1.14245158589022
O            4.42743584245868        0.38710499976402       -0.44608861191403
N           -1.55243772603185       -1.68830695103926       -0.88728784400704
C           -2.72626260262184       -2.00081205552957       -1.50841454137986
O           -2.77484314392304       -2.94685715630448       -2.29814276125861
C           -3.90846447821037       -1.12640980400097       -1.15552336902925
O           -5.01106621758305       -1.37293958148999       -1.68783697057778
H           -6.58567892453800        2.63801663814646       -0.03526266259472
H           -7.79578119007602        1.34442968419388       -0.25927947627921
H           -6.96276842951847        1.53454316026484        1.30788014206630
H            0.29663785595948        1.60714002898054        0.12571805498614
H            1.11947562418604        1.07346255933089        1.60012073669693
H           -0.63645461440535        1.34190083820788        1.61606008836355
H            1.00573158621469       -1.27423617894176        2.35139025022132
H           -0.74622499640147       -1.12513004692284        2.55842867937654
H           -0.07686964262101       -2.43065117529463        1.55874896781970
H            0.82874136648210       -0.36017110339494       -1.21454166920146
H            3.98449043870825       -2.86991768465629        1.97906486619442
H            4.69312592240683       -1.33943616585479        1.40364696261719
H            3.22479020533264       -1.31395887891039        2.41222330757498
H            6.42371355346014        2.37467955454134       -0.15431260211682
H            6.00743777206963        3.06246381902402       -1.73467973325826
H            6.67830975528604        1.42255512360288       -1.61780658835651
H           -0.73660290769378       -2.24626153912368       -1.10587254962398

          :  Hamiltonian                  GFN1-xTB          :
         :: total energy             -83.616889837038 Eh    ::
         :: gradient norm              0.000777526723 Eh/a0 ::
         :: HOMO-LUMO gap              0.494804158873 eV    ::
         :: SCC energy               -84.348390478366 Eh    ::
         :: -> Gsolv                  -0.260114830767 Eh    ::
         :: repulsion energy           0.757456388510 Eh    ::

    * Orbital Energies and Occupations

         #    Occupation            Energy/Eh            Energy/eV
      -------------------------------------------------------------
         1        2.0000           -0.7914528             -21.5365
       ...           ...                  ...                  ...
        56        2.0000           -0.4430799             -12.0568
        57        2.0000           -0.4281898             -11.6516
        58        2.0000           -0.4251152             -11.5680
        59        2.0000           -0.4199137             -11.4264
        60        2.0000           -0.4147314             -11.2854
        61        2.0000           -0.4013593             -10.9215
        62        2.0000           -0.3919072             -10.6643
        63        2.0000           -0.3825794             -10.4105
        64        2.0000           -0.3720784             -10.1248
        65        2.0000           -0.3664651              -9.9720
        66        2.0000           -0.3642998              -9.9131
        67        2.0000           -0.3534230              -9.6171
        68        1.9999           -0.2784076              -7.5759 (HOMO)
        69        0.0001           -0.2602239              -7.0811 (LUMO)
        70                         -0.2216589              -6.0316
        71                         -0.1872069              -5.0942
        72                         -0.1807178              -4.9176
        73                         -0.1389210              -3.7802
        74                         -0.1190502              -3.2395
        75                         -0.1127328              -3.0676
        76                         -0.1055546              -2.8723
        77                         -0.0978811              -2.6635
        78                         -0.0938965              -2.5551
        79                         -0.0883002              -2.4028
       ...                                ...                  ...
       134                          0.7563347              20.5809
      -------------------------------------------------------------
                  HL-Gap            0.0181837 Eh            0.4948 eV

Wiberg/Mayer (AO) data.
largest (>0.10) Wiberg bond orders for each atom

     #   Z sym  total        # sym  WBO       # sym  WBO       # sym  WBO
 ---------------------------------------------------------------------------
     1   6 C    3.903 --    27 H    0.987    26 H    0.980    28 H    0.980
                             2 O    0.930
     2   8 O    2.153 --     3 C    1.036     1 C    0.930     4 O    0.107
     3   6 C    3.848 --     4 O    1.566     5 C    1.127     2 O    1.036
     4   8 O    1.844 --     3 C    1.566     2 O    0.107
     5   6 C    3.919 --    24 C    1.279     6 N    1.144     3 C    1.127
                            25 O    0.130
     6   7 N    3.022 --     7 C    1.632     5 C    1.144
     7   6 C    3.926 --     6 N    1.632    21 N    1.096     8 C    0.979
     8   6 C    3.971 --     9 C    0.988    10 C    0.982     7 C    0.979
                            11 N    0.960
     9   6 C    3.996 --     8 C    0.988    30 H    0.986    31 H    0.984
                            29 H    0.982
    10   6 C    3.994 --    33 H    0.988    34 H    0.986     8 C    0.982
                            32 H    0.978
    11   7 N    3.033 --    12 C    0.961     8 C    0.960    35 H    0.943
    12   6 C    3.683 --    15 C    1.476    11 N    0.961    13 O    0.906
                            16 N    0.149
    13   8 O    1.998 --    14 C    0.960    12 C    0.906
    14   6 C    3.933 --    36 H    0.985    37 H    0.980    38 H    0.976
                            13 O    0.960
    15   6 C    3.866 --    12 C    1.476    16 N    1.280    20 O    0.963
    16   7 N    2.833 --    15 C    1.280    17 N    1.147    12 C    0.149
                            18 C    0.117
    17   7 N    2.988 --    18 C    1.679    16 N    1.147
    18   6 C    3.884 --    17 N    1.679    19 C    1.018    20 O    0.991
                            16 N    0.117
    19   6 C    3.996 --    18 C    1.018    40 H    0.987    41 H    0.977
                            39 H    0.974
    20   8 O    2.183 --    18 C    0.991    15 C    0.963
    21   7 N    3.440 --    22 C    1.181     7 C    1.096    42 H    0.890
                            23 O    0.136
    22   6 C    3.884 --    23 O    1.556    21 N    1.181    24 C    0.973
    23   8 O    1.837 --    22 C    1.556    21 N    0.136
    24   6 C    3.944 --    25 O    1.503     5 C    1.279    22 C    0.973
    25   8 O    1.808 --    24 C    1.503     5 C    0.130
    26   1 H    1.015 --     1 C    0.980
    27   1 H    1.016 --     1 C    0.987
    28   1 H    1.015 --     1 C    0.980
    29   1 H    1.030 --     9 C    0.982
    30   1 H    1.016 --     9 C    0.986
    31   1 H    1.019 --     9 C    0.984
    32   1 H    1.013 --    10 C    0.978
    33   1 H    1.008 --    10 C    0.988
    34   1 H    1.011 --    10 C    0.986
    35   1 H    0.993 --    11 N    0.943
    36   1 H    1.022 --    14 C    0.985
    37   1 H    1.029 --    14 C    0.980
    38   1 H    1.030 --    14 C    0.976
    39   1 H    1.007 --    19 C    0.974
    40   1 H    1.008 --    19 C    0.987
    41   1 H    1.007 --    19 C    0.977
    42   1 H    0.969 --    21 N    0.890
 ---------------------------------------------------------------------------

           -------------------------------------------------
          | TOTAL ENERGY              -83.616889837038 Eh   |
          | GRADIENT NORM               0.000777526723 Eh/α |
          | HOMO-LUMO GAP               0.494804158873 eV   |
           -------------------------------------------------

 * finished run on 2023/06/21 at 17:16:19.137
