   * xtb version 6.5.1 (579679a) compiled by 'ehlert@majestix' on 2022-07-11
          program call               : /lustre/hpc/kemi/ree/PhD/git/ReactivityQM/dep/xtb-6.5.1/bin/xtb --gfn 1 /lustre/hpc/kemi/ree/PhD/git/ReactivityQM/calculations/R02oxygendeprot/reac01prodN04/conf02/R02oxygendeprot_reac01prodN04_conf02_gfn1.xyz --opt --vfukui --chrg 0 --uhf 0 --alpb DMSO

   ID    Z sym.   atoms
    1    6 C      1, 3, 5, 6, 8-11, 13, 15, 18, 19, 22, 24
    2    8 O      2, 4, 14, 20, 23, 25
    3    7 N      7, 12, 16, 17, 21
    4    1 H      26-42

      * Solvation model:               ALPB
        Solvent                        DMSO
        Solvent mass                       7.8130E+01 g/mol
          :  Hamiltonian                  GFN1-xTB          :
 * total energy  :   -82.9718753 Eh     change       -0.1099920E-10 Eh
 * total energy  :   -82.9879100 Eh     change       -0.1603466E-01 Eh
 * total energy  :   -82.9934923 Eh     change       -0.5582308E-02 Eh
 * total energy  :   -82.9950317 Eh     change       -0.1539440E-02 Eh
 * total energy  :   -82.9961251 Eh     change       -0.1093363E-02 Eh
 * total energy  :   -82.9968515 Eh     change       -0.7264336E-03 Eh
 * total energy  :   -82.9974731 Eh     change       -0.6215755E-03 Eh
 * total energy  :   -82.9979706 Eh     change       -0.4974556E-03 Eh
 * total energy  :   -82.9982815 Eh     change       -0.3109565E-03 Eh
 * total energy  :   -82.9984629 Eh     change       -0.1813709E-03 Eh
 * total energy  :   -83.0005902 Eh     change       -0.1125506E-04 Eh
 * total energy  :   -83.0006019 Eh     change       -0.1173742E-04 Eh
 * total energy  :   -83.0006124 Eh     change       -0.1046826E-04 Eh
 * total energy  :   -83.0006242 Eh     change       -0.1185444E-04 Eh
 * total energy  :   -83.0006426 Eh     change       -0.1839404E-04 Eh
 * total energy  :   -83.0006669 Eh     change       -0.2428982E-04 Eh
 * total energy  :   -83.0006846 Eh     change       -0.1770568E-04 Eh
 * total energy  :   -83.0006935 Eh     change       -0.8874618E-05 Eh
 * total energy  :   -83.0006971 Eh     change       -0.3629495E-05 Eh
   *** GEOMETRY OPTIMIZATION CONVERGED AFTER 53 ITERATIONS ***

 final structure:
================
42
 xtb: 6.5.1 (579679a)
C           -6.18922521517692       -0.05026716350147        1.08842243265624
O           -4.87107006886364        0.48779406654275        1.20529041185827
C           -3.91111805262047        0.02436570295800        0.43129860447727
O           -4.31046949982971       -0.94070508750757       -0.38034521204057
C           -3.49387819813614       -1.60224825554345       -1.34442166436826
C           -2.63150025000840        0.57722544186343        0.53356374459609
N           -1.63533139882816        0.04162186929429       -0.28029515568892
C           -0.44815090998884        0.51361736321708       -0.24407388737099
C            0.63849752070444       -0.02726475645843       -1.15001821098421
C            0.80869427194633        0.92273003117459       -2.33968356708943
C            0.30750273505369       -1.44380807794388       -1.62533058124136
N            1.90037298045219       -0.03756410373325       -0.40683592252749
C            2.02292145285983       -0.69699968056597        0.76693092005714
O            1.10032315400852       -1.22246379664874        1.36653179204576
C            3.41103239273858       -0.68476613196388        1.28891416753929
N            3.85013467023005       -1.19189065833509        2.39833894974414
N            5.18476286553797       -0.92191085122024        2.45322274105532
C            5.47841628228494       -0.26670792080045        1.37360045330430
C            6.79652632635551        0.25807975389458        0.95657771312008
O            4.40051160159821       -0.08263165700850        0.59398412448544
N           -0.08878810588058        1.57366282989688        0.55633369185723
C           -0.93729905223660        2.20167364815061        1.42580248705611
O           -0.55713198287569        3.13143129844438        2.11473307876106
C           -2.35843308464354        1.65842570384933        1.45244221881236
O           -3.17096557377574        2.16083264776595        2.22132520397596
H           -6.57513798622201        0.11055175524971        0.07993162892743
H           -6.79923360269732        0.48303293779216        1.81560789030050
H           -6.18461266368411       -1.11959311359144        1.30935428188505
H           -2.68128827247300       -2.14249960790847       -0.85633131801605
H           -4.15353326236158       -2.30234770177586       -1.85708824862508
H           -3.08113672251028       -0.88659301699903       -2.05674096677515
H            1.58385557502458        0.54907873389730       -3.00578879124800
H           -0.12810417717494        0.99039197390744       -2.89034624328010
H            1.08825857225184        1.91557141523100       -1.99143117813026
H            1.14863408895271       -1.84802304297235       -2.18462554485580
H            0.09896397664027       -2.08856329444617       -0.77231216224977
H           -0.56744280652952       -1.41486517868926       -2.27137344685660
H            2.72788743860341        0.27820951821277       -0.88215013151126
H            7.54277156755421        0.02613626589711        1.71274715200713
H            6.73799210491226        1.33725700210973        0.81685667967809
H            7.08779810157350       -0.18686498492443        0.00546034790359
H            0.85799020722959        1.91688912319391        0.50346251676297

          :  Hamiltonian                  GFN1-xTB          :
         :: total energy             -83.000697131421 Eh    ::
         :: gradient norm              0.000329435021 Eh/a0 ::
         :: HOMO-LUMO gap              2.367196827553 eV    ::
         :: SCC energy               -83.781328924877 Eh    ::
         :: -> Gsolv                  -0.073813053470 Eh    ::
         :: repulsion energy           0.807065937744 Eh    ::

    * Orbital Energies and Occupations

         #    Occupation            Energy/Eh            Energy/eV
      -------------------------------------------------------------
         1        2.0000           -0.8649020             -23.5352
       ...           ...                  ...                  ...
        55        2.0000           -0.5062766             -13.7765
        56        2.0000           -0.5046153             -13.7313
        57        2.0000           -0.4991340             -13.5821
        58        2.0000           -0.4929478             -13.4138
        59        2.0000           -0.4799311             -13.0596
        60        2.0000           -0.4757190             -12.9450
        61        2.0000           -0.4672370             -12.7142
        62        2.0000           -0.4613184             -12.5531
        63        2.0000           -0.4531592             -12.3311
        64        2.0000           -0.4516786             -12.2908
        65        2.0000           -0.4447433             -12.1021
        66        2.0000           -0.4183491             -11.3839
        67        2.0000           -0.4120285             -11.2119 (HOMO)
        68                         -0.3250357              -8.8447 (LUMO)
        69                         -0.3110521              -8.4642
        70                         -0.2703415              -7.3564
        71                         -0.2560245              -6.9668
        72                         -0.2454941              -6.6802
        73                         -0.1983711              -5.3980
        74                         -0.1534205              -4.1748
        75                         -0.1513395              -4.1182
        76                         -0.1425676              -3.8795
        77                         -0.1408907              -3.8338
        78                         -0.1318106              -3.5867
       ...                                ...                  ...
       134                          0.7557611              20.5653
      -------------------------------------------------------------
                  HL-Gap            0.0869929 Eh            2.3672 eV

Wiberg/Mayer (AO) data.
largest (>0.10) Wiberg bond orders for each atom

     #   Z sym  total        # sym  WBO       # sym  WBO       # sym  WBO
 ---------------------------------------------------------------------------
     1   6 C    3.863 --    27 H    0.984    28 H    0.978    26 H    0.978
                             2 O    0.890
     2   8 O    2.237 --     3 C    1.150     1 C    0.890
     3   6 C    3.833 --     6 C    1.338     2 O    1.150     4 O    1.129
     4   8 O    2.222 --     3 C    1.129     5 C    0.883
     5   6 C    3.854 --    30 H    0.981    31 H    0.976    29 H    0.976
                             4 O    0.883
     6   6 C    3.924 --     3 C    1.338    24 C    1.164     7 N    1.106
     7   7 N    3.044 --     8 C    1.654     6 C    1.106
     8   6 C    3.931 --     7 N    1.654    21 N    1.106     9 C    0.976
     9   6 C    3.937 --    11 C    0.990    10 C    0.984     8 C    0.976
                            12 N    0.925
    10   6 C    3.988 --     9 C    0.984    34 H    0.984    33 H    0.984
                            32 H    0.982
    11   6 C    3.989 --     9 C    0.990    35 H    0.985    37 H    0.983
                            36 H    0.981
    12   7 N    3.341 --    13 C    1.247     9 C    0.925    38 H    0.891
                            14 O    0.175
    13   6 C    3.917 --    14 O    1.590    12 N    1.247    15 C    0.994
    14   8 O    1.892 --    13 C    1.590    12 N    0.175
    15   6 C    3.873 --    16 N    1.622    20 O    1.047    13 C    0.994
    16   7 N    3.000 --    15 C    1.622    17 N    1.199
    17   7 N    2.981 --    18 C    1.610    16 N    1.199
    18   6 C    3.868 --    17 N    1.610    20 O    1.073    19 C    1.032
    19   6 C    3.986 --    18 C    1.032    39 H    0.983    40 H    0.963
                            41 H    0.962
    20   8 O    2.317 --    18 C    1.073    15 C    1.047
    21   7 N    3.440 --    22 C    1.166     8 C    1.106    42 H    0.886
                            23 O    0.139
    22   6 C    3.884 --    23 O    1.631    21 N    1.166    24 C    0.940
    23   8 O    1.909 --    22 C    1.631    21 N    0.139
    24   6 C    3.919 --    25 O    1.631     6 C    1.164    22 C    0.940
    25   8 O    1.916 --    24 C    1.631
    26   1 H    1.005 --     1 C    0.978
    27   1 H    1.009 --     1 C    0.984
    28   1 H    1.006 --     1 C    0.978
    29   1 H    1.020 --     5 C    0.976
    30   1 H    1.008 --     5 C    0.981
    31   1 H    1.020 --     5 C    0.976
    32   1 H    0.996 --    10 C    0.982
    33   1 H    1.001 --    10 C    0.984
    34   1 H    0.998 --    10 C    0.984
    35   1 H    1.001 --    11 C    0.985
    36   1 H    1.010 --    11 C    0.981
    37   1 H    1.006 --    11 C    0.983
    38   1 H    0.932 --    12 N    0.891
    39   1 H    0.998 --    19 C    0.983
    40   1 H    0.996 --    19 C    0.963
    41   1 H    0.996 --    19 C    0.962
    42   1 H    0.937 --    21 N    0.886
 ---------------------------------------------------------------------------

           -------------------------------------------------
          | TOTAL ENERGY              -83.000697131421 Eh   |
          | GRADIENT NORM               0.000329435021 Eh/α |
          | HOMO-LUMO GAP               2.367196827553 eV   |
           -------------------------------------------------

 * finished run on 2023/06/21 at 17:20:14.662
