   * xtb version 6.5.1 (579679a) compiled by 'ehlert@majestix' on 2022-07-11
          program call               : /lustre/hpc/kemi/ree/PhD/git/ReactivityQM/dep/xtb-6.5.1/bin/xtb --gfn 1 /lustre/hpc/kemi/ree/PhD/git/ReactivityQM/calculations/R03/reac02prodE07/conf18/R03_reac02prodE07_conf18_gfn1.xyz --opt --vfukui --chrg -1 --uhf 0 --alpb DMSO

   ID    Z sym.   atoms
    1    6 C      1, 3, 5, 7-10, 12, 14, 15, 18, 19, 22, 23, 25
    2    8 O      2, 4, 13, 20, 24, 26
    3    7 N      6, 11, 16, 17, 21
    4    1 H      27-46

      * Solvation model:               ALPB
        Solvent                        DMSO
        Solvent mass                       7.8130E+01 g/mol
          :  Hamiltonian                  GFN1-xTB          :
 * total energy  :   -86.9943290 Eh     change       -0.9596022E-09 Eh
 * total energy  :   -87.0077568 Eh     change       -0.1342781E-01 Eh
 * total energy  :   -87.0134575 Eh     change       -0.5700688E-02 Eh
 * total energy  :   -87.0146201 Eh     change       -0.1162581E-02 Eh
 * total energy  :   -87.0153142 Eh     change       -0.6941817E-03 Eh
 * total energy  :   -87.0157110 Eh     change       -0.3967582E-03 Eh
 * total energy  :   -87.0161770 Eh     change       -0.4659725E-03 Eh
 * total energy  :   -87.0166079 Eh     change       -0.4309656E-03 Eh
 * total energy  :   -87.0169350 Eh     change       -0.3270585E-03 Eh
 * total energy  :   -87.0171384 Eh     change       -0.2033915E-03 Eh
 * total energy  :   -87.0210944 Eh     change       -0.1590965E-04 Eh
 * total energy  :   -87.0211109 Eh     change       -0.1652738E-04 Eh
 * total energy  :   -87.0211263 Eh     change       -0.1537685E-04 Eh
 * total energy  :   -87.0211412 Eh     change       -0.1492087E-04 Eh
 * total energy  :   -87.0211562 Eh     change       -0.1498975E-04 Eh
 * total energy  :   -87.0211728 Eh     change       -0.1656208E-04 Eh
 * total energy  :   -87.0211898 Eh     change       -0.1696322E-04 Eh
 * total energy  :   -87.0211980 Eh     change       -0.8286217E-05 Eh
 * total energy  :   -87.0212020 Eh     change       -0.3922290E-05 Eh
   *** GEOMETRY OPTIMIZATION CONVERGED AFTER 69 ITERATIONS ***

 final structure:
================
46
 xtb: 6.5.1 (579679a)
C            5.90168533720580        1.67367324092904       -1.29888016468979
O            4.92289203999297        0.63554057067699       -1.26966646251885
C            3.89113959575197        0.82956465684783       -0.39486335298276
O            3.83810222086605        1.83113099836965        0.30340586666279
C            2.90978938090313       -0.24930821453569       -0.39057579858513
N            1.87336702356507       -0.04711586019039        0.48681114124150
C            0.91992820647986       -0.90973246693466        0.62489195666211
C           -0.10359393187602       -0.58727637754709        1.70520169847980
C            0.24571587413739       -1.38888685482391        2.96940644068537
C           -0.03881545597569        0.91290223332282        2.04388834632495
N           -1.47143910188826       -0.95526789503157        1.29638593849384
C           -2.04098544043387       -0.15915028192798        0.25871099396358
O           -1.41538326289671       -0.28191384456367       -0.97798503483917
C           -1.28279253124595        0.90704484927800       -1.74055850226408
C           -3.23929589374205        0.45853383485581        0.49489526366996
N           -3.84922200845084        0.51779848909937        1.70155094508530
N           -4.99377983409940        1.25389653079734        1.50877844943948
C           -5.03851872642880        1.60259779330715        0.27067340759195
C           -6.08529582386510        2.41211506243128       -0.40419435602956
O           -3.96976546338560        1.14554478459955       -0.45535306217552
N            0.89723541377665       -2.08626206128692       -0.08746740184311
C           -0.18536388791573       -3.06335482633493        0.00601220568517
C            1.88847747544587       -2.38692273173376       -1.03816045281677
O            1.82208589489437       -3.43421352937966       -1.69297895622525
C            2.93697078339662       -1.41122519690642       -1.15647668530767
O            3.90448721596214       -1.72487521289574       -2.06093240761349
H            6.36920960323638        1.78381520407597       -0.31635071289217
H            5.44072664585257        2.62325266305411       -1.58490698239750
H            6.64827315432272        1.38580225525196       -2.03605398675470
H            0.18193949201113       -2.46078518185353        2.79219703158677
H           -0.44423552130249       -1.13019262491053        3.77140803818605
H            1.25908705400807       -1.14867371818363        3.28869385514338
H           -0.20915593200033        1.51233321629555        1.15016518326232
H            0.93879140122993        1.16513305219835        2.45148536995097
H           -0.80494451286263        1.15160190683222        2.78065149436285
H           -2.08346154657085       -0.88331810278937        2.10935781367754
H           -0.86215048841178        1.72195983389829       -1.13857818140224
H           -2.24759946909381        1.23117748189567       -2.14656392965401
H           -0.60617116198324        0.68505514378756       -2.56832110708720
H           -6.85991102906205        2.67122168963502        0.31424380549092
H           -5.65672085824597        3.32756754234407       -0.81385988300894
H           -6.53139457116573        1.85255138202763       -1.22728276662526
H           -1.00119075272671       -2.77924662458414       -0.66133055069307
H            0.20107393682498       -4.03858349636141       -0.29235912179842
H           -0.56165658156311       -3.12468363530067        1.02217965886920
H            4.59186703731920       -1.04082467772544       -2.09783504430476

          :  Hamiltonian                  GFN1-xTB          :
         :: total energy             -87.021201971375 Eh    ::
         :: gradient norm              0.000515909573 Eh/a0 ::
         :: HOMO-LUMO gap              0.087932761105 eV    ::
         :: SCC energy               -87.804581679960 Eh    ::
         :: -> Gsolv                  -0.108143467005 Eh    ::
         :: repulsion energy           0.813934108144 Eh    ::

    * Orbital Energies and Occupations

         #    Occupation            Energy/Eh            Energy/eV
      -------------------------------------------------------------
         1        2.0000           -0.8134312             -22.1346
       ...           ...                  ...                  ...
        59        2.0000           -0.4719230             -12.8417
        60        2.0000           -0.4594159             -12.5013
        61        2.0000           -0.4530685             -12.3286
        62        2.0000           -0.4417903             -12.0217
        63        2.0000           -0.4395839             -11.9617
        64        2.0000           -0.4271508             -11.6234
        65        2.0000           -0.4183114             -11.3828
        66        2.0000           -0.4172306             -11.3534
        67        2.0000           -0.4130545             -11.2398
        68        2.0000           -0.3959149             -10.7734
        69        2.0000           -0.3948337             -10.7440
        70        2.0000           -0.3932731             -10.7015
        71        1.6913           -0.3012151              -8.1965 (HOMO)
        72        0.3087           -0.2979836              -8.1085 (LUMO)
        73                         -0.2484343              -6.7602
        74                         -0.2093999              -5.6981
        75                         -0.2038912              -5.5482
        76                         -0.1581238              -4.3028
        77                         -0.1259881              -3.4283
        78                         -0.1259233              -3.4265
        79                         -0.1223733              -3.3299
        80                         -0.1211042              -3.2954
        81                         -0.1178701              -3.2074
        82                         -0.1102124              -2.9990
       ...                                ...                  ...
       144                          0.7107249              19.3398
      -------------------------------------------------------------
                  HL-Gap            0.0032315 Eh            0.0879 eV

Wiberg/Mayer (AO) data.
largest (>0.10) Wiberg bond orders for each atom

     #   Z sym  total        # sym  WBO       # sym  WBO       # sym  WBO
 ---------------------------------------------------------------------------
     1   6 C    3.883 --    29 H    0.987    27 H    0.981    28 H    0.981
                             2 O    0.907
     2   8 O    2.143 --     3 C    1.021     1 C    0.907     4 O    0.108
     3   6 C    3.761 --     4 O    1.589     5 C    1.085     2 O    1.021
     4   8 O    1.820 --     3 C    1.589     2 O    0.108
     5   6 C    3.873 --    25 C    1.371     6 N    1.171     3 C    1.085
     6   7 N    3.014 --     7 C    1.574     5 C    1.171
     7   6 C    3.911 --     6 N    1.574    21 N    1.153     8 C    0.981
     8   6 C    3.956 --    10 C    0.990     9 C    0.983     7 C    0.981
                            11 N    0.945
     9   6 C    3.993 --    32 H    0.985    31 H    0.983     8 C    0.983
                            30 H    0.980
    10   6 C    3.993 --     8 C    0.990    35 H    0.986    34 H    0.984
                            33 H    0.980
    11   7 N    3.054 --    12 C    1.005     8 C    0.945    36 H    0.929
    12   6 C    3.605 --    15 C    1.432    11 N    1.005    13 O    0.956
    13   8 O    2.032 --    12 C    0.956    14 C    0.935
    14   6 C    3.909 --    39 H    0.985    38 H    0.980    37 H    0.980
                            13 O    0.935
    15   6 C    3.856 --    12 C    1.432    16 N    1.293    20 O    0.971
    16   7 N    2.707 --    15 C    1.293    17 N    1.165
    17   7 N    2.983 --    18 C    1.659    16 N    1.165
    18   6 C    3.825 --    17 N    1.659    19 C    1.022    20 O    1.006
    19   6 C    3.994 --    18 C    1.022    40 H    0.986    42 H    0.973
                            41 H    0.972
    20   8 O    2.185 --    18 C    1.006    15 C    0.971
    21   7 N    3.418 --     7 C    1.153    23 C    1.071    22 C    0.940
                            24 O    0.115
    22   6 C    3.936 --    44 H    0.979    45 H    0.978    43 H    0.976
                            21 N    0.940
    23   6 C    3.869 --    24 O    1.510    25 C    1.153    21 N    1.071
    24   8 O    1.801 --    23 C    1.510    21 N    0.115
    25   6 C    3.781 --     5 C    1.371    23 C    1.153    26 O    1.051
    26   8 O    2.008 --    25 C    1.051    46 H    0.818
    27   1 H    1.011 --     1 C    0.981
    28   1 H    1.010 --     1 C    0.981
    29   1 H    1.012 --     1 C    0.987
    30   1 H    1.006 --     9 C    0.980
    31   1 H    1.001 --     9 C    0.983
    32   1 H    1.005 --     9 C    0.985
    33   1 H    1.015 --    10 C    0.980
    34   1 H    1.017 --    10 C    0.984
    35   1 H    1.005 --    10 C    0.986
    36   1 H    0.983 --    11 N    0.929
    37   1 H    1.014 --    14 C    0.980
    38   1 H    1.023 --    14 C    0.980
    39   1 H    1.018 --    14 C    0.985
    40   1 H    1.005 --    19 C    0.986
    41   1 H    1.002 --    19 C    0.972
    42   1 H    1.002 --    19 C    0.973
    43   1 H    1.019 --    22 C    0.976
    44   1 H    1.016 --    22 C    0.979
    45   1 H    1.026 --    22 C    0.978
    46   1 H    0.872 --    26 O    0.818
 ---------------------------------------------------------------------------

           -------------------------------------------------
          | TOTAL ENERGY              -87.021201971375 Eh   |
          | GRADIENT NORM               0.000515909573 Eh/α |
          | HOMO-LUMO GAP               0.087932761105 eV   |
           -------------------------------------------------

 * finished run on 2023/06/20 at 15:22:52.590
