   * xtb version 6.5.1 (579679a) compiled by 'ehlert@majestix' on 2022-07-11
          program call               : /lustre/hpc/kemi/ree/PhD/git/ReactivityQM/dep/xtb-6.5.1/bin/xtb --gfn 1 /lustre/hpc/kemi/ree/PhD/git/ReactivityQM/calculations/R02methylcation/reac01prodE09/conf09/R02methylcation_reac01prodE09_conf09_gfn1.xyz --opt --vfukui --chrg -2 --uhf 0 --alpb DMSO

   ID    Z sym.   atoms
    1    6 C      1, 3, 5, 7-10, 12, 14, 16, 17, 20, 22, 24
    2    8 O      2, 4, 13, 15, 23, 25
    3    7 N      6, 11, 18, 19, 21
    4    1 H      26-42

      * Solvation model:               ALPB
        Solvent                        DMSO
        Solvent mass                       7.8130E+01 g/mol
          :  Hamiltonian                  GFN1-xTB          :
 * total energy  :   -83.5863544 Eh     change       -0.3360867E-10 Eh
 * total energy  :   -83.6024885 Eh     change       -0.1613404E-01 Eh
 * total energy  :   -83.6097970 Eh     change       -0.7308526E-02 Eh
 * total energy  :   -83.6125788 Eh     change       -0.2781783E-02 Eh
 * total energy  :   -83.6163123 Eh     change       -0.3733457E-02 Eh
 * total energy  :   -83.6186813 Eh     change       -0.2369082E-02 Eh
 * total energy  :   -83.6213675 Eh     change       -0.2686168E-02 Eh
 * total energy  :   -83.6230835 Eh     change       -0.1716031E-02 Eh
 * total energy  :   -83.6244086 Eh     change       -0.1325049E-02 Eh
 * total energy  :   -83.6253038 Eh     change       -0.8952272E-03 Eh
 * total energy  :   -83.6329480 Eh     change       -0.3124832E-04 Eh
 * total energy  :   -83.6329794 Eh     change       -0.3134397E-04 Eh
 * total energy  :   -83.6330022 Eh     change       -0.2284047E-04 Eh
 * total energy  :   -83.6330202 Eh     change       -0.1801495E-04 Eh
 * total energy  :   -83.6330368 Eh     change       -0.1654183E-04 Eh
 * total energy  :   -83.6330446 Eh     change       -0.7840879E-05 Eh
 * total energy  :   -83.6330578 Eh     change       -0.1317548E-04 Eh
 * total energy  :   -83.6330645 Eh     change       -0.6719603E-05 Eh
 * total energy  :   -83.6330686 Eh     change       -0.4066323E-05 Eh
   *** GEOMETRY OPTIMIZATION CONVERGED AFTER 71 ITERATIONS ***

 final structure:
================
42
 xtb: 6.5.1 (579679a)
C            6.85654151655606       -1.03535264289234       -1.15708495958517
O            5.73004432045760       -0.98921406109134       -0.29698192018013
C            4.63665207130536       -0.34270229824188       -0.78890670516014
O            4.66875336673286        0.15530133620470       -1.91068148314485
C            3.49576791592615       -0.30455470477957        0.10802785879995
N            2.41407188728290        0.37627405033622       -0.43029979653307
C            1.33005386132684        0.50892922982477        0.23998987947560
C            0.15705098186564        1.31698478740197       -0.29012826744779
C            0.31555079519795        2.74285612369349        0.26900946588239
C            0.20046521353766        1.33052597397144       -1.82707173058113
N           -1.06002476044435        0.69158257590215        0.22966499898851
C           -2.34018911218872        1.19828354961369       -0.25831372691486
O           -2.44719783589098        2.39704458196654       -0.63479814952069
C           -3.36083396727327        0.30244507836751       -0.00518155985018
O           -4.64334519345152        0.44593574510029       -0.63476567498372
C           -4.99391338631626       -0.79543507188075       -0.97129111668484
C           -6.26476920001326       -0.99058684147712       -1.72692534154775
N           -4.21449059021520       -1.74761605329062       -0.62044669272853
N           -3.12983968939119       -1.13787140413717        0.12822978566361
C           -3.30097334492713       -1.59598907371260        1.52112752964196
N            1.19952261967838       -0.00342687207689        1.51443376671439
C            2.17652237017218       -0.70016764363238        2.16507228245439
O            1.97467134077307       -1.12918585379094        3.30265825954359
C            3.47122922673041       -0.88089545655396        1.40432796242942
O            4.40244107922410       -1.50476671334338        1.95411317397570
H            6.61599092694733       -1.56073599477907       -2.08729657396392
H            7.64358573444269       -1.57082556622831       -0.62721159414732
H            7.20074262436983       -0.02568221251916       -1.40432614514205
H           -0.44324235173340        3.40685101927741       -0.14104356734335
H            0.21870119795835        2.72530161576529        1.35436789222769
H            1.30119095404255        3.13000743007243        0.00898142356323
H           -0.58675103751569        1.97113845469119       -2.22200496675708
H            0.06632624188678        0.32038702001606       -2.21492684765712
H            1.16760733286506        1.70610087084704       -2.16241425148710
H           -1.03075331134876       -0.31423613113241        0.05814712077995
H           -6.23054281111551       -0.44893326772730       -2.67210646913544
H           -6.41982750183861       -2.04906372968879       -1.92113644761931
H           -7.10215267522348       -0.60432091244058       -1.14673750009646
H           -4.28026077749738       -1.31123375468900        1.91817736618002
H           -2.51690602200590       -1.13821272596573        2.12185978638479
H           -3.19967774625349       -2.68066570843597        1.54718819229125
H            0.32220973536106        0.13572425145705        1.99863574321701

          :  Hamiltonian                  GFN1-xTB          :
         :: total energy             -83.633068583305 Eh    ::
         :: gradient norm              0.000686512571 Eh/a0 ::
         :: HOMO-LUMO gap              0.928373518682 eV    ::
         :: SCC energy               -84.371906200847 Eh    ::
         :: -> Gsolv                  -0.258972040471 Eh    ::
         :: repulsion energy           0.764668146397 Eh    ::

    * Orbital Energies and Occupations

         #    Occupation            Energy/Eh            Energy/eV
      -------------------------------------------------------------
         1        2.0000           -0.7912027             -21.5297
       ...           ...                  ...                  ...
        56        2.0000           -0.4484899             -12.2040
        57        2.0000           -0.4433540             -12.0643
        58        2.0000           -0.4281585             -11.6508
        59        2.0000           -0.4252846             -11.5726
        60        2.0000           -0.4150448             -11.2939
        61        2.0000           -0.4060925             -11.0503
        62        2.0000           -0.4011648             -10.9162
        63        2.0000           -0.3841746             -10.4539
        64        2.0000           -0.3781557             -10.2901
        65        2.0000           -0.3680584             -10.0154
        66        2.0000           -0.3632452              -9.8844
        67        2.0000           -0.3534284              -9.6173
        68        2.0000           -0.2942599              -8.0072 (HOMO)
        69                         -0.2601428              -7.0788 (LUMO)
        70                         -0.2217897              -6.0352
        71                         -0.2030977              -5.5266
        72                         -0.1871221              -5.0919
        73                         -0.1419996              -3.8640
        74                         -0.1197648              -3.2590
        75                         -0.1187574              -3.2316
        76                         -0.0984824              -2.6798
        77                         -0.0943981              -2.5687
        78                         -0.0918153              -2.4984
        79                         -0.0902955              -2.4571
       ...                                ...                  ...
       134                          0.7579600              20.6251
      -------------------------------------------------------------
                  HL-Gap            0.0341171 Eh            0.9284 eV

Wiberg/Mayer (AO) data.
largest (>0.10) Wiberg bond orders for each atom

     #   Z sym  total        # sym  WBO       # sym  WBO       # sym  WBO
 ---------------------------------------------------------------------------
     1   6 C    3.903 --    27 H    0.987    26 H    0.980    28 H    0.980
                             2 O    0.930
     2   8 O    2.153 --     3 C    1.036     1 C    0.930     4 O    0.107
     3   6 C    3.849 --     4 O    1.567     5 C    1.127     2 O    1.036
     4   8 O    1.844 --     3 C    1.567     2 O    0.107
     5   6 C    3.918 --    24 C    1.279     6 N    1.143     3 C    1.127
                            25 O    0.130
     6   7 N    3.022 --     7 C    1.636     5 C    1.143
     7   6 C    3.926 --     6 N    1.636    21 N    1.095     8 C    0.975
     8   6 C    3.966 --    10 C    0.988     9 C    0.980     7 C    0.975
                            11 N    0.967
     9   6 C    3.993 --    31 H    0.989    30 H    0.987     8 C    0.980
                            29 H    0.977
    10   6 C    3.996 --     8 C    0.988    33 H    0.987    34 H    0.985
                            32 H    0.983
    11   7 N    3.082 --     8 C    0.967    12 C    0.951    35 H    0.934
    12   6 C    3.919 --    14 C    1.464    13 O    1.388    11 N    0.951
    13   8 O    1.740 --    12 C    1.388    14 C    0.166
    14   6 C    3.604 --    12 C    1.464    19 N    0.951    15 O    0.866
                            13 O    0.166
    15   8 O    2.186 --    16 C    1.104    14 C    0.866    18 N    0.139
    16   6 C    3.910 --    18 N    1.704    15 O    1.104    17 C    1.012
    17   6 C    3.995 --    16 C    1.012    37 H    0.987    36 H    0.974
                            38 H    0.973
    18   7 N    2.940 --    16 C    1.704    19 N    0.975    15 O    0.139
    19   7 N    3.065 --    18 N    0.975    20 C    0.970    14 C    0.951
    20   6 C    3.983 --    41 H    0.988    40 H    0.988    39 H    0.984
                            19 N    0.970
    21   7 N    3.440 --    22 C    1.178     7 C    1.095    42 H    0.894
                            23 O    0.136
    22   6 C    3.883 --    23 O    1.560    21 N    1.178    24 C    0.972
    23   8 O    1.841 --    22 C    1.560    21 N    0.136
    24   6 C    3.944 --    25 O    1.505     5 C    1.279    22 C    0.972
    25   8 O    1.810 --    24 C    1.505     5 C    0.130
    26   1 H    1.015 --     1 C    0.980
    27   1 H    1.016 --     1 C    0.987
    28   1 H    1.015 --     1 C    0.980
    29   1 H    1.030 --     9 C    0.977
    30   1 H    1.011 --     9 C    0.987
    31   1 H    1.009 --     9 C    0.989
    32   1 H    1.021 --    10 C    0.983
    33   1 H    1.009 --    10 C    0.987
    34   1 H    1.019 --    10 C    0.985
    35   1 H    0.988 --    11 N    0.934
    36   1 H    1.005 --    17 C    0.974
    37   1 H    1.006 --    17 C    0.987
    38   1 H    1.004 --    17 C    0.973
    39   1 H    1.020 --    20 C    0.984
    40   1 H    1.029 --    20 C    0.988
    41   1 H    1.024 --    20 C    0.988
    42   1 H    0.966 --    21 N    0.894
 ---------------------------------------------------------------------------

           -------------------------------------------------
          | TOTAL ENERGY              -83.633068583305 Eh   |
          | GRADIENT NORM               0.000686512571 Eh/α |
          | HOMO-LUMO GAP               0.928373518682 eV   |
           -------------------------------------------------

 * finished run on 2023/06/21 at 17:18:53.755
