   * xtb version 6.5.1 (579679a) compiled by 'ehlert@majestix' on 2022-07-11
          program call               : /lustre/hpc/kemi/ree/PhD/git/ReactivityQM/dep/xtb-6.5.1/bin/xtb --gfn 1 /lustre/hpc/kemi/ree/PhD/git/ReactivityQM/calculations/R02oxygendeprot/reac01prodN12/conf04/R02oxygendeprot_reac01prodN12_conf04_gfn1.xyz --opt --vfukui --chrg 0 --uhf 0 --alpb DMSO

   ID    Z sym.   atoms
    1    6 C      1, 3, 5, 7-10, 12, 14, 15, 18, 19, 22, 24
    2    8 O      2, 4, 13, 20, 23, 25
    3    7 N      6, 11, 16, 17, 21
    4    1 H      26-42

      * Solvation model:               ALPB
        Solvent                        DMSO
        Solvent mass                       7.8130E+01 g/mol
          :  Hamiltonian                  GFN1-xTB          :
 * total energy  :   -82.9295435 Eh     change       -0.6299246E-09 Eh
 * total energy  :   -82.9396802 Eh     change       -0.1013676E-01 Eh
 * total energy  :   -82.9434686 Eh     change       -0.3788358E-02 Eh
 * total energy  :   -82.9442819 Eh     change       -0.8133061E-03 Eh
 * total energy  :   -82.9449211 Eh     change       -0.6391726E-03 Eh
 * total energy  :   -82.9453741 Eh     change       -0.4530387E-03 Eh
 * total energy  :   -82.9458270 Eh     change       -0.4528741E-03 Eh
 * total energy  :   -82.9463266 Eh     change       -0.4996058E-03 Eh
 * total energy  :   -82.9468438 Eh     change       -0.5172270E-03 Eh
 * total energy  :   -82.9473333 Eh     change       -0.4894736E-03 Eh
 * total energy  :   -82.9546064 Eh     change       -0.6739004E-04 Eh
 * total energy  :   -82.9546391 Eh     change       -0.3271743E-04 Eh
 * total energy  :   -82.9546678 Eh     change       -0.2861836E-04 Eh
 * total energy  :   -82.9546809 Eh     change       -0.1318108E-04 Eh
 * total energy  :   -82.9546919 Eh     change       -0.1096222E-04 Eh
 * total energy  :   -82.9547013 Eh     change       -0.9370875E-05 Eh
 * total energy  :   -82.9547066 Eh     change       -0.5335256E-05 Eh
 * total energy  :   -82.9547125 Eh     change       -0.5932736E-05 Eh
 * total energy  :   -82.9547160 Eh     change       -0.3437110E-05 Eh
   *** GEOMETRY OPTIMIZATION CONVERGED AFTER 67 ITERATIONS ***

 final structure:
================
42
 xtb: 6.5.1 (579679a)
C           -5.86258071526392        0.99509397335058        1.26876031194970
O           -4.59003484234236        0.64894543136702        0.72485133324316
C           -4.36486326900854        1.03667378303892       -0.54603667040180
O           -5.19219785839807        1.65080310443403       -1.18583905312549
C           -3.02990787291209        0.62285550159077       -1.02425250559532
N           -2.27045043810574       -0.06196120909078       -0.13296630829841
C           -1.09030457135785       -0.48265276833976       -0.46242382357438
C           -0.25332429407580       -1.26899410663684        0.51323920117785
C           -0.18422724292967       -2.73687031792019        0.08281491224569
C           -0.80282465245427       -1.13025499662375        1.93292189528646
N            1.12546036418612       -0.73893107233304        0.45903991311497
C            1.33960270525462        0.56837692136996        0.56217504960776
O            0.49134866019028        1.42771998716436        0.61116055506443
C            2.86445901963490        0.97775426411651        0.59187048496780
C            3.14330471217807        1.65108727244623        1.93477108021390
N            3.09326454332305        1.81977829214453       -0.53069649057670
N            3.94331732562677        1.24164445209066       -1.31788256889671
C            4.30691071470218        0.08383365543533       -0.76903579679177
C            5.27401483937464       -0.87243620332070       -1.32387406014151
O            3.70209026761048       -0.13790093688118        0.37906194863401
N           -0.56984730369999       -0.29027393938147       -1.70960074348343
C           -1.20353451518345        0.41610187045164       -2.71102065251614
O           -0.65504945342933        0.57755416982337       -3.78722587042775
C           -2.58088602616439        0.93744862045070       -2.35235843442466
O           -3.21938828489383        1.57483578102400       -3.19078112116705
H           -5.86922728095768        0.64189651099943        2.29768637397096
H           -6.66237537077893        0.51204534156271        0.70071050858604
H           -6.00743656873445        2.07855114028928        1.24235198833893
H            0.24521793178502       -2.81991299347429       -0.91377567255260
H            0.43372070206227       -3.29693463879776        0.78128437199468
H           -1.18612544575293       -3.16352295132054        0.07614407606203
H           -0.16182326201278       -1.66407538698170        2.63028379800472
H           -0.84762280894538       -0.07933521132556        2.21551266195914
H           -1.80719332350963       -1.54915842789985        1.97170814668071
H            1.88694568908238       -1.39055752853182        0.52370932968936
H            3.00203981239635        0.92734062512219        2.73356396365330
H            2.45301013641573        2.48289840205626        2.05985423697955
H            4.16941579857403        2.01061690188244        1.94645903198747
H            6.27133838992125       -0.62513272475036       -0.95302197140195
H            5.03623118188819       -1.88208417628557       -0.99831167218588
H            5.28804779016511       -0.80843051193212       -2.40979048630949
H            0.34148381655046       -0.66246990037727       -1.92104127152369

          :  Hamiltonian                  GFN1-xTB          :
         :: total energy             -82.954715981572 Eh    ::
         :: gradient norm              0.000841714773 Eh/a0 ::
         :: HOMO-LUMO gap              0.133665342228 eV    ::
         :: SCC energy               -83.726347160623 Eh    ::
         :: -> Gsolv                  -0.094572471493 Eh    ::
         :: repulsion energy           0.798763113780 Eh    ::

    * Orbital Energies and Occupations

         #    Occupation            Energy/Eh            Energy/eV
      -------------------------------------------------------------
         1        2.0000           -0.8893170             -24.1995
       ...           ...                  ...                  ...
        55        2.0000           -0.5157577             -14.0345
        56        2.0000           -0.5086702             -13.8416
        57        2.0000           -0.5054595             -13.7543
        58        2.0000           -0.4948312             -13.4650
        59        2.0000           -0.4886218             -13.2961
        60        2.0000           -0.4872880             -13.2598
        61        2.0000           -0.4789834             -13.0338
        62        2.0000           -0.4771262             -12.9833
        63        2.0000           -0.4717189             -12.8361
        64        2.0000           -0.4682238             -12.7410
        65        2.0000           -0.4526848             -12.3182
        66        2.0000           -0.4141980             -11.2709
        67        1.8598           -0.4002586             -10.8916 (HOMO)
        68        0.1402           -0.3953465             -10.7579 (LUMO)
        69                         -0.3024788              -8.2309
        70                         -0.2901550              -7.8955
        71                         -0.2785730              -7.5804
        72                         -0.2754677              -7.4959
        73                         -0.2278055              -6.1989
        74                         -0.1572946              -4.2802
        75                         -0.1478673              -4.0237
        76                         -0.1429031              -3.8886
        77                         -0.1400118              -3.8099
        78                         -0.1332097              -3.6248
       ...                                ...                  ...
       134                          0.7526881              20.4817
      -------------------------------------------------------------
                  HL-Gap            0.0049121 Eh            0.1337 eV

Wiberg/Mayer (AO) data.
largest (>0.10) Wiberg bond orders for each atom

     #   Z sym  total        # sym  WBO       # sym  WBO       # sym  WBO
 ---------------------------------------------------------------------------
     1   6 C    3.881 --    26 H    0.986    27 H    0.980    28 H    0.980
                             2 O    0.908
     2   8 O    2.168 --     3 C    1.077     1 C    0.908     4 O    0.126
     3   6 C    3.840 --     4 O    1.637     2 O    1.077     5 C    1.043
     4   8 O    1.882 --     3 C    1.637     2 O    0.126
     5   6 C    3.758 --     6 N    1.268    24 C    1.183     3 C    1.043
     6   7 N    2.992 --     7 C    1.510     5 C    1.268
     7   6 C    3.865 --     6 N    1.510    21 N    1.155     8 C    0.987
     8   6 C    3.922 --    10 C    0.992     7 C    0.987     9 C    0.980
                            11 N    0.895
     9   6 C    3.978 --    29 H    0.983    31 H    0.982    30 H    0.981
                             8 C    0.980
    10   6 C    3.988 --     8 C    0.992    32 H    0.985    34 H    0.982
                            33 H    0.982
    11   7 N    3.358 --    12 C    1.319     8 C    0.895    35 H    0.884
                            13 O    0.173
    12   6 C    3.886 --    13 O    1.633    11 N    1.319    14 C    0.811
    13   8 O    1.979 --    12 C    1.633    11 N    0.173
    14   6 C    3.851 --    16 N    1.063    15 C    0.935    20 O    0.907
                            12 C    0.811
    15   6 C    3.938 --    36 H    0.981    38 H    0.979    37 H    0.979
                            14 C    0.935
    16   7 N    2.757 --    17 N    1.468    14 C    1.063
    17   7 N    2.970 --    16 N    1.468    18 C    1.352
    18   6 C    3.695 --    17 N    1.352    20 O    1.161    19 C    1.054
    19   6 C    3.972 --    18 C    1.054    41 H    0.968    40 H    0.967
                            39 H    0.930
    20   8 O    2.244 --    18 C    1.161    14 C    0.907
    21   7 N    3.441 --     7 C    1.155    22 C    1.126    42 H    0.890
                            23 O    0.121
    22   6 C    3.857 --    23 O    1.631    21 N    1.126    24 C    0.952
    23   8 O    1.885 --    22 C    1.631    21 N    0.121
    24   6 C    3.883 --    25 O    1.597     5 C    1.183    22 C    0.952
    25   8 O    1.794 --    24 C    1.597
    26   1 H    1.013 --     1 C    0.986
    27   1 H    1.008 --     1 C    0.980
    28   1 H    1.009 --     1 C    0.980
    29   1 H    0.998 --     9 C    0.983
    30   1 H    0.995 --     9 C    0.981
    31   1 H    0.998 --     9 C    0.982
    32   1 H    1.000 --    10 C    0.985
    33   1 H    1.007 --    10 C    0.982
    34   1 H    1.007 --    10 C    0.982
    35   1 H    0.928 --    11 N    0.884
    36   1 H    0.995 --    15 C    0.981
    37   1 H    0.999 --    15 C    0.979
    38   1 H    0.994 --    15 C    0.979
    39   1 H    0.975 --    19 C    0.930
    40   1 H    0.988 --    19 C    0.967
    41   1 H    0.990 --    19 C    0.968
    42   1 H    0.939 --    21 N    0.890
 ---------------------------------------------------------------------------

           -------------------------------------------------
          | TOTAL ENERGY              -82.954715981572 Eh   |
          | GRADIENT NORM               0.000841714773 Eh/α |
          | HOMO-LUMO GAP               0.133665342228 eV   |
           -------------------------------------------------

 * finished run on 2023/06/21 at 17:27:30.518
