   * xtb version 6.5.1 (579679a) compiled by 'ehlert@majestix' on 2022-07-11
          program call               : /lustre/hpc/kemi/ree/PhD/git/ReactivityQM/dep/xtb-6.5.1/bin/xtb --gfn 1 /lustre/hpc/kemi/ree/PhD/git/ReactivityQM/calculations/RaltegravirCLI/reac01prodN01/conf07/RaltegravirCLI_reac01prodN01_conf07_gfn1.xyz --opt --vfukui --chrg 1 --uhf 0 --alpb DMSO

   ID    Z sym.   atoms
    1    6 C      1, 2, 5, 6, 10
    2    7 N      3, 4
    3    8 O      7, 9
    4   17 Cl     8
    5    1 H      11-16

      * Solvation model:               ALPB
        Solvent                        DMSO
        Solvent mass                       7.8130E+01 g/mol
          :  Hamiltonian                  GFN1-xTB          :
 * total energy  :   -33.3495595 Eh     change       -0.6501466E-11 Eh
 * total energy  :   -33.3636773 Eh     change       -0.1411778E-01 Eh
 * total energy  :   -33.3697909 Eh     change       -0.6113562E-02 Eh
 * total energy  :   -33.3715491 Eh     change       -0.1758246E-02 Eh
 * total energy  :   -33.3725401 Eh     change       -0.9910261E-03 Eh
 * total energy  :   -33.3730339 Eh     change       -0.4937938E-03 Eh
 * total energy  :   -33.3732756 Eh     change       -0.2416844E-03 Eh
 * total energy  :   -33.3734393 Eh     change       -0.1636644E-03 Eh
 * total energy  :   -33.3735419 Eh     change       -0.1026126E-03 Eh
 * total energy  :   -33.3736376 Eh     change       -0.9566848E-04 Eh
 * total energy  :   -33.3743439 Eh     change       -0.5042818E-04 Eh
 * total energy  :   -33.3743992 Eh     change       -0.5527685E-04 Eh
 * total energy  :   -33.3744723 Eh     change       -0.7310915E-04 Eh
 * total energy  :   -33.3745105 Eh     change       -0.3826576E-04 Eh
 * total energy  :   -33.3745448 Eh     change       -0.3424027E-04 Eh
 * total energy  :   -33.3745539 Eh     change       -0.9076158E-05 Eh
 * total energy  :   -33.3745631 Eh     change       -0.9237227E-05 Eh
 * total energy  :   -33.3745657 Eh     change       -0.2562663E-05 Eh
 * total energy  :   -33.3745677 Eh     change       -0.2024781E-05 Eh
   *** GEOMETRY OPTIMIZATION CONVERGED AFTER 32 ITERATIONS ***

 final structure:
================
16
 xtb: 6.5.1 (579679a)
C            2.36330543610481       -0.18861413317969        0.08437721749282
C            1.00982586745857       -0.74382308185282       -0.04731271579866
N            0.64863603833408       -1.96224501073580       -0.21426654589423
N           -0.70759496267649       -2.01945900558067       -0.28302117024100
C           -1.18199621694179       -0.83572397308453       -0.15905157236134
C           -2.58875868510358       -0.36514728993423       -0.16210382355663
O           -2.88118315234846        0.78730488306179       -0.03744879204276
Cl          -3.71245406435362       -1.62455336093028       -0.35613544378900
O           -0.12371821491465        0.06883390674018        0.00104968005123
C           -0.22036055346519        1.52141074155101        0.17671232931514
H            2.47228553697719        0.32562959434358        1.04001142057490
H            3.08209477222021       -1.00449491283127        0.02496154887252
H            2.55959921818804        0.52972102556346       -0.71264917822885
H            0.79600053998094        1.88844395908806        0.27657912186188
H           -0.80541145844179        1.70014785803776        1.07649663931825
H           -0.71027110101847        1.92256779974330       -0.70819971557444

          :  Hamiltonian                  GFN1-xTB          :
         :: total energy             -33.374567687404 Eh    ::
         :: gradient norm              0.000467731218 Eh/a0 ::
         :: HOMO-LUMO gap              3.146726672079 eV    ::
         :: SCC energy               -33.663727512641 Eh    ::
         :: -> Gsolv                  -0.092313886047 Eh    ::
         :: repulsion energy           0.296977187914 Eh    ::

    * Orbital Energies and Occupations

         #    Occupation            Energy/Eh            Energy/eV
      -------------------------------------------------------------
         1        2.0000           -0.9860129             -26.8308
       ...           ...                  ...                  ...
        15        2.0000           -0.6278570             -17.0849
        16        2.0000           -0.6100662             -16.6007
        17        2.0000           -0.6091213             -16.5750
        18        2.0000           -0.5954032             -16.2017
        19        2.0000           -0.5887269             -16.0201
        20        2.0000           -0.5742489             -15.6261
        21        2.0000           -0.5663818             -15.4120
        22        2.0000           -0.5528325             -15.0433
        23        2.0000           -0.5291256             -14.3982
        24        2.0000           -0.5273213             -14.3491
        25        2.0000           -0.5182638             -14.1027
        26        2.0000           -0.5180905             -14.0980
        27        2.0000           -0.5092939             -13.8586 (HOMO)
        28                         -0.3936538             -10.7119 (LUMO)
        29                         -0.3273442              -8.9075
        30                         -0.2837002              -7.7199
        31                         -0.2439782              -6.6390
        32                         -0.1955352              -5.3208
        33                         -0.1793739              -4.8810
        34                         -0.1317275              -3.5845
        35                         -0.1221181              -3.3230
        36                         -0.1194966              -3.2517
        37                         -0.1116670              -3.0386
        38                         -0.1111053              -3.0233
       ...                                ...                  ...
        57                          0.7015964              19.0914
      -------------------------------------------------------------
                  HL-Gap            0.1156401 Eh            3.1467 eV

Wiberg/Mayer (AO) data.
largest (>0.10) Wiberg bond orders for each atom

     #   Z sym  total        # sym  WBO       # sym  WBO       # sym  WBO
 ---------------------------------------------------------------------------
     1   6 C    3.965 --     2 C    1.047    12 H    0.968    11 H    0.946
                            13 H    0.946
     2   6 C    3.800 --     3 N    1.668     1 C    1.047     9 O    0.888
     3   7 N    3.024 --     2 C    1.668     4 N    1.172
     4   7 N    3.041 --     5 C    1.686     3 N    1.172
     5   6 C    3.814 --     4 N    1.686     6 C    1.005     9 O    0.879
     6   6 C    3.905 --     7 O    1.758     8 Cl   1.095     5 C    1.005
     7   8 O    2.057 --     6 C    1.758     8 Cl   0.170
     8  17 Cl   1.329 --     6 C    1.095     7 O    0.170
     9   8 O    2.658 --     2 C    0.888     5 C    0.879    10 C    0.740
    10   6 C    3.714 --    14 H    0.973    16 H    0.966    15 H    0.966
                             9 O    0.740
    11   1 H    0.986 --     1 C    0.946
    12   1 H    0.987 --     1 C    0.968
    13   1 H    0.986 --     1 C    0.946
    14   1 H    0.988 --    10 C    0.973
    15   1 H    0.994 --    10 C    0.966
    16   1 H    0.994 --    10 C    0.966
 ---------------------------------------------------------------------------

           -------------------------------------------------
          | TOTAL ENERGY              -33.374567687404 Eh   |
          | GRADIENT NORM               0.000467731218 Eh/α |
          | HOMO-LUMO GAP               3.146726672079 eV   |
           -------------------------------------------------

 * finished run on 2023/06/20 at 14:54:04.840
