   * xtb version 6.5.1 (579679a) compiled by 'ehlert@majestix' on 2022-07-11
          program call               : /lustre/hpc/kemi/ree/PhD/git/ReactivityQM/dep/xtb-6.5.1/bin/xtb --gfn 1 /lustre/hpc/kemi/ree/PhD/git/ReactivityQM/calculations/R01/reac01prodE05/conf08/R01_reac01prodE05_conf08_gfn1.xyz --opt --vfukui --chrg -1 --uhf 0 --alpb DMSO

   ID    Z sym.   atoms
    1    6 C      1, 3, 5, 8-10
    2    8 O      2, 4, 11
    3    7 N      6, 7
    4    1 H      12-20

      * Solvation model:               ALPB
        Solvent                        DMSO
        Solvent mass                       7.8130E+01 g/mol
          :  Hamiltonian                  GFN1-xTB          :
 * total energy  :   -38.2552092 Eh     change       -0.3261391E-11 Eh
 * total energy  :   -38.2715140 Eh     change       -0.1630476E-01 Eh
 * total energy  :   -38.2766541 Eh     change       -0.5140125E-02 Eh
 * total energy  :   -38.2772412 Eh     change       -0.5871348E-03 Eh
 * total energy  :   -38.2776782 Eh     change       -0.4369921E-03 Eh
 * total energy  :   -38.2778274 Eh     change       -0.1491362E-03 Eh
 * total energy  :   -38.2779036 Eh     change       -0.7619671E-04 Eh
 * total energy  :   -38.2779440 Eh     change       -0.4039580E-04 Eh
 * total energy  :   -38.2779643 Eh     change       -0.2036230E-04 Eh
 * total energy  :   -38.2779817 Eh     change       -0.1732568E-04 Eh
 * total energy  :   -38.2779882 Eh     change       -0.6553823E-05 Eh
 * total energy  :   -38.2779905 Eh     change       -0.2328496E-05 Eh
   *** GEOMETRY OPTIMIZATION CONVERGED AFTER 12 ITERATIONS ***

 final structure:
================
20
 xtb: 6.5.1 (579679a)
C            4.14452596010207       -0.02411113655681        0.15307448677372
O            2.78553200920383        0.30574383968414        0.00825485637249
C            1.88562118098897       -0.79094400187147        0.31227654941919
O            2.39341510271343       -1.90546716006594        0.67497952148710
C            0.57660570378776       -0.47336947638971        0.16103199635749
N           -0.55102709316802       -1.31498541140485        0.37834477615945
N           -1.57726613221491       -0.52353739989709        0.10281082007780
C           -2.91371455520350       -1.05746717623226        0.20993916291377
C           -1.25989048747199        0.69778845626928       -0.26955293978928
C           -2.17752708623471        1.81256512729615       -0.61814298781974
O            0.10236614397747        0.85329090336536       -0.26363477575167
H            4.72893539569271        0.86688417802129       -0.09238625961227
H            4.38633756821490       -0.33125140171481        1.18197936712901
H            4.44466500851975       -0.83935783063114       -0.52281051911594
H           -2.85097502574082       -2.03053626882300        0.69235920908102
H           -3.53412006528652       -0.38708262644771        0.80264467372104
H           -3.35155516307633       -1.16675317451822       -0.78236749190140
H           -2.90841915314300        1.50021043480135       -1.36602271762256
H           -2.72882690019507        2.16860983854278        0.25633162606987
H           -1.59467941146613        2.63976928657259       -1.01911035394914

          :  Hamiltonian                  GFN1-xTB          :
         :: total energy             -38.277990536836 Eh    ::
         :: gradient norm              0.000437655428 Eh/a0 ::
         :: HOMO-LUMO gap              0.974151029748 eV    ::
         :: SCC energy               -38.591358278254 Eh    ::
         :: -> Gsolv                  -0.121754837193 Eh    ::
         :: repulsion energy           0.321508090694 Eh    ::

    * Orbital Energies and Occupations

         #    Occupation            Energy/Eh            Energy/eV
      -------------------------------------------------------------
         1        2.0000           -0.8003188             -21.7778
       ...           ...                  ...                  ...
        19        2.0000           -0.5143385             -13.9959
        20        2.0000           -0.5113058             -13.9133
        21        2.0000           -0.5036227             -13.7043
        22        2.0000           -0.4850380             -13.1986
        23        2.0000           -0.4659335             -12.6787
        24        2.0000           -0.4595602             -12.5053
        25        2.0000           -0.4554309             -12.3929
        26        2.0000           -0.4371125             -11.8944
        27        2.0000           -0.4068973             -11.0722
        28        2.0000           -0.4027785             -10.9602
        29        2.0000           -0.3697810             -10.0623
        30        2.0000           -0.3653491              -9.9417
        31        2.0000           -0.2579423              -7.0190 (HOMO)
        32                         -0.2221429              -6.0448 (LUMO)
        33                         -0.1398160              -3.8046
        34                         -0.1242990              -3.3823
        35                         -0.0997284              -2.7137
        36                         -0.0987340              -2.6867
        37                         -0.0817662              -2.2250
        38                         -0.0699532              -1.9035
        39                         -0.0527391              -1.4351
        40                         -0.0484163              -1.3175
        41                         -0.0382072              -1.0397
        42                         -0.0350819              -0.9546
       ...                                ...                  ...
        62                          0.7106725              19.3384
      -------------------------------------------------------------
                  HL-Gap            0.0357994 Eh            0.9742 eV

Wiberg/Mayer (AO) data.
largest (>0.10) Wiberg bond orders for each atom

     #   Z sym  total        # sym  WBO       # sym  WBO       # sym  WBO
 ---------------------------------------------------------------------------
     1   6 C    3.932 --    12 H    0.986    14 H    0.980    13 H    0.979
                             2 O    0.970
     2   8 O    2.001 --     1 C    0.970     3 C    0.857
     3   6 C    3.877 --     5 C    1.545     4 O    1.308     2 O    0.857
     4   8 O    1.639 --     3 C    1.308     5 C    0.168
     5   6 C    3.711 --     3 C    1.545     6 N    1.059    11 O    0.836
                             4 O    0.168
     6   7 N    2.758 --     7 N    1.185     5 C    1.059     9 C    0.329
     7   7 N    3.635 --     9 C    1.374     6 N    1.185     8 C    0.952
     8   6 C    3.956 --    15 H    0.985    16 H    0.983    17 H    0.980
                             7 N    0.952
     9   6 C    3.867 --     7 N    1.374    11 O    1.028    10 C    1.024
                             6 N    0.329
    10   6 C    3.994 --     9 C    1.024    20 H    0.983    18 H    0.976
                            19 H    0.970
    11   8 O    2.086 --     9 C    1.028     5 C    0.836
    12   1 H    1.023 --     1 C    0.986
    13   1 H    1.028 --     1 C    0.979
    14   1 H    1.027 --     1 C    0.980
    15   1 H    1.014 --     8 C    0.985
    16   1 H    1.003 --     8 C    0.983
    17   1 H    1.003 --     8 C    0.980
    18   1 H    1.004 --    10 C    0.976
    19   1 H    1.004 --    10 C    0.970
    20   1 H    1.003 --    10 C    0.983
 ---------------------------------------------------------------------------

           -------------------------------------------------
          | TOTAL ENERGY              -38.277990536836 Eh   |
          | GRADIENT NORM               0.000437655428 Eh/α |
          | HOMO-LUMO GAP               0.974151029748 eV   |
           -------------------------------------------------

 * finished run on 2023/06/20 at 14:53:59.193
