   * xtb version 6.5.1 (579679a) compiled by 'ehlert@majestix' on 2022-07-11
          program call               : /lustre/hpc/kemi/ree/PhD/git/ReactivityQM/dep/xtb-6.5.1/bin/xtb --gfn 1 /lustre/hpc/kemi/ree/PhD/git/ReactivityQM/calculations/R02methylcation/reac01prodN09/conf02/R02methylcation_reac01prodN09_conf02_gfn1.xyz --opt --vfukui --chrg 0 --uhf 0 --alpb DMSO

   ID    Z sym.   atoms
    1    6 C      1, 3, 4, 6, 8-11, 13, 15, 18, 19, 22, 24
    2    8 O      2, 5, 14, 20, 23, 25
    3    7 N      7, 12, 16, 17, 21
    4    1 H      26-42

      * Solvation model:               ALPB
        Solvent                        DMSO
        Solvent mass                       7.8130E+01 g/mol
          :  Hamiltonian                  GFN1-xTB          :
 * total energy  :   -82.8674081 Eh     change       -0.6024123E-09 Eh
 * total energy  :   -82.8814349 Eh     change       -0.1402686E-01 Eh
 * total energy  :   -82.8933356 Eh     change       -0.1190064E-01 Eh
 * total energy  :   -82.8984294 Eh     change       -0.5093792E-02 Eh
 * total energy  :   -82.9058657 Eh     change       -0.7436316E-02 Eh
 * total energy  :   -82.9173108 Eh     change       -0.1144515E-01 Eh
 * total energy  :   -82.9365240 Eh     change       -0.1921314E-01 Eh
 * total energy  :   -82.8568032 Eh     change        0.7972080E-01 Eh
 * total energy  :   -82.9475411 Eh     change       -0.9073791E-01 Eh
 * total energy  :   -82.9511767 Eh     change       -0.3635609E-02 Eh
 * total energy  :   -82.9729375 Eh     change       -0.1379002E-04 Eh
 * total energy  :   -82.9729487 Eh     change       -0.1122293E-04 Eh
 * total energy  :   -82.9729586 Eh     change       -0.9881489E-05 Eh
 * total energy  :   -82.9729685 Eh     change       -0.9903857E-05 Eh
 * total energy  :   -82.9729797 Eh     change       -0.1120381E-04 Eh
 * total energy  :   -82.9729911 Eh     change       -0.1138222E-04 Eh
 * total energy  :   -82.9730003 Eh     change       -0.9187632E-05 Eh
 * total energy  :   -82.9730065 Eh     change       -0.6256998E-05 Eh
 * total energy  :   -82.9730110 Eh     change       -0.4432327E-05 Eh
   *** GEOMETRY OPTIMIZATION CONVERGED AFTER 80 ITERATIONS ***

 final structure:
================
42
 xtb: 6.5.1 (579679a)
C           -5.39112678240405        2.08567141322506        0.35850593167536
O           -4.05564662361431        2.15002301783175       -0.15745978491685
C           -3.49934391816625        1.01706104096816       -0.66756453832889
C           -3.00303296751522        1.17886809332326       -2.08410287847974
O           -4.01850615670149       -0.19892312094132       -0.28867666946624
C           -2.73657482049536        0.05401147223153        0.26136982695613
N           -1.69753308218724       -0.66655655569591       -0.36546943552532
C           -0.58869074278669       -0.84797762965417        0.23033557731775
C            0.50702452316581       -1.65321659110909       -0.43490053932105
C            0.28863606199678       -1.70739563236179       -1.94911543112246
C            0.47696483446786       -3.05960960284660        0.18493062299735
N            1.78363270832855       -0.99438495193740       -0.13812826485223
C            2.97706125433791       -1.51181289612591       -0.51603435706967
O            3.14463816080028       -2.60601875374191       -1.02401731813076
C            4.10973371432165       -0.60197681157964       -0.21579319072489
N            5.37145766760804       -0.81243836871428       -0.42801505209090
N            6.03448752982714        0.29295250686701        0.01189865264589
C            5.13719116990852        1.11150017829191        0.46616467872244
C            5.34747486803856        2.44921903606062        1.06070721774555
O            3.89754980058706        0.60613569779881        0.35093837297206
N           -0.34113398657858       -0.41917225915452        1.52136951201613
C           -1.26642266433234        0.17805281042379        2.33339166814505
O           -1.00535634697088        0.50787045722826        3.46821638621346
C           -2.65261540755294        0.35596651309157        1.70882529225034
O           -3.57641902844846        0.75735992639036        2.37793202574560
H           -5.56169772058182        3.02914689919074        0.87543377248145
H           -6.10562796356706        1.97674942919388       -0.46320477810389
H           -5.50524041867595        1.25311948977726        1.05615633573970
H           -2.32549786097601        2.02791050245575       -2.13662549875401
H           -2.49266196043900        0.27616840283741       -2.40833317026211
H           -3.85888821084932        1.36887549239248       -2.72999488111054
H            1.06647110651708       -2.31048631348313       -2.41381070327712
H            0.31760880901856       -0.70140528879002       -2.36371018657617
H           -0.68340351943191       -2.14934532905242       -2.16113981037132
H            1.19142038099321       -3.70908180773160       -0.31652030783304
H            0.72456095179268       -3.00449038310825        1.24338410447356
H           -0.52216362475710       -3.47878094338613        0.07390229118869
H            1.75947557364776       -0.02267907548663        0.12238287946619
H            4.76990494588088        3.19429207937983        0.51453884722177
H            6.40387546489702        2.70445307709990        1.02442322023242
H            5.00625465930942        2.45227339325441        2.09595413205168
H            0.57215862158080       -0.57192761442232        1.92185644806229

          :  Hamiltonian                  GFN1-xTB          :
         :: total energy             -82.973010971223 Eh    ::
         :: gradient norm              0.000223229808 Eh/a0 ::
         :: HOMO-LUMO gap              2.465111100447 eV    ::
         :: SCC energy               -83.739446540121 Eh    ::
         :: -> Gsolv                  -0.057861276288 Eh    ::
         :: repulsion energy           0.792267980399 Eh    ::

    * Orbital Energies and Occupations

         #    Occupation            Energy/Eh            Energy/eV
      -------------------------------------------------------------
         1        2.0000           -0.8663040             -23.5733
       ...           ...                  ...                  ...
        55        2.0000           -0.5062258             -13.7751
        56        2.0000           -0.5057419             -13.7619
        57        2.0000           -0.5037358             -13.7074
        58        2.0000           -0.5020178             -13.6606
        59        2.0000           -0.4810869             -13.0910
        60        2.0000           -0.4776404             -12.9973
        61        2.0000           -0.4720523             -12.8452
        62        2.0000           -0.4654013             -12.6642
        63        2.0000           -0.4622740             -12.5791
        64        2.0000           -0.4529116             -12.3244
        65        2.0000           -0.4517425             -12.2925
        66        2.0000           -0.4459685             -12.1354
        67        2.0000           -0.4399858             -11.9726 (HOMO)
        68                         -0.3493946              -9.5075 (LUMO)
        69                         -0.3130311              -8.5180
        70                         -0.2897086              -7.8834
        71                         -0.2572816              -7.0010
        72                         -0.2331447              -6.3442
        73                         -0.2006749              -5.4606
        74                         -0.1419319              -3.8622
        75                         -0.1416627              -3.8548
        76                         -0.1320756              -3.5940
        77                         -0.1274409              -3.4678
        78                         -0.1248876              -3.3984
       ...                                ...                  ...
       134                          0.7586027              20.6426
      -------------------------------------------------------------
                  HL-Gap            0.0905912 Eh            2.4651 eV

Wiberg/Mayer (AO) data.
largest (>0.10) Wiberg bond orders for each atom

     #   Z sym  total        # sym  WBO       # sym  WBO       # sym  WBO
 ---------------------------------------------------------------------------
     1   6 C    3.871 --    26 H    0.985    27 H    0.983    28 H    0.979
                             2 O    0.891
     2   8 O    2.073 --     3 C    1.020     1 C    0.891
     3   6 C    3.831 --     2 O    1.020     4 C    0.986     5 O    0.940
                             6 C    0.746
     4   6 C    3.985 --     3 C    0.986    30 H    0.980    29 H    0.979
                            31 H    0.969
     5   8 O    1.985 --     3 C    0.940     6 C    0.863
     6   6 C    3.848 --     7 N    1.031    24 C    1.027     5 O    0.863
                             3 C    0.746
     7   7 N    3.032 --     8 C    1.708     6 C    1.031
     8   6 C    3.927 --     7 N    1.708    21 N    1.091     9 C    0.980
     9   6 C    3.934 --    10 C    0.990     8 C    0.980    11 C    0.974
                            12 N    0.925
    10   6 C    3.988 --     9 C    0.990    33 H    0.985    34 H    0.983
                            32 H    0.982
    11   6 C    3.985 --    37 H    0.985    36 H    0.985    35 H    0.976
                             9 C    0.974
    12   7 N    3.329 --    13 C    1.238     9 C    0.925    38 H    0.893
                            14 O    0.172
    13   6 C    3.914 --    14 O    1.597    12 N    1.238    15 C    0.994
    14   8 O    1.912 --    13 C    1.597    12 N    0.172
    15   6 C    3.873 --    16 N    1.622    20 O    1.046    13 C    0.994
    16   7 N    3.001 --    15 C    1.622    17 N    1.200
    17   7 N    2.982 --    18 C    1.610    16 N    1.200
    18   6 C    3.868 --    17 N    1.610    20 O    1.072    19 C    1.032
    19   6 C    3.986 --    18 C    1.032    40 H    0.982    39 H    0.964
                            41 H    0.961
    20   8 O    2.316 --    18 C    1.072    15 C    1.046
    21   7 N    3.429 --    22 C    1.167     8 C    1.091    42 H    0.879
                            23 O    0.143
    22   6 C    3.890 --    23 O    1.673    21 N    1.167    24 C    0.917
    23   8 O    1.955 --    22 C    1.673    21 N    0.143
    24   6 C    3.885 --    25 O    1.753     6 C    1.027    22 C    0.917
    25   8 O    2.011 --    24 C    1.753
    26   1 H    1.012 --     1 C    0.985
    27   1 H    1.006 --     1 C    0.983
    28   1 H    1.025 --     1 C    0.979
    29   1 H    1.000 --     4 C    0.979
    30   1 H    1.014 --     4 C    0.980
    31   1 H    0.998 --     4 C    0.969
    32   1 H    1.006 --    10 C    0.982
    33   1 H    1.003 --    10 C    0.985
    34   1 H    1.008 --    10 C    0.983
    35   1 H    1.010 --    11 C    0.976
    36   1 H    1.000 --    11 C    0.985
    37   1 H    1.001 --    11 C    0.985
    38   1 H    0.936 --    12 N    0.893
    39   1 H    0.996 --    19 C    0.964
    40   1 H    0.998 --    19 C    0.982
    41   1 H    0.996 --    19 C    0.961
    42   1 H    0.925 --    21 N    0.879
 ---------------------------------------------------------------------------

           -------------------------------------------------
          | TOTAL ENERGY              -82.973010971223 Eh   |
          | GRADIENT NORM               0.000223229808 Eh/α |
          | HOMO-LUMO GAP               2.465111100447 eV   |
           -------------------------------------------------

 * finished run on 2023/06/21 at 17:41:05.589
