   * xtb version 6.5.1 (579679a) compiled by 'ehlert@majestix' on 2022-07-11
          program call               : /lustre/hpc/kemi/ree/PhD/git/ReactivityQM/dep/xtb-6.5.1/bin/xtb --gfn 1 /lustre/hpc/kemi/ree/PhD/git/ReactivityQM/calculations/R02oxygendeprot/reac01prodE08/conf10/R02oxygendeprot_reac01prodE08_conf10_gfn1.xyz --opt --vfukui --chrg -2 --uhf 0 --alpb DMSO

   ID    Z sym.   atoms
    1    6 C      1, 3, 5, 7-10, 12, 14, 15, 18, 19, 22, 24
    2    8 O      2, 4, 13, 20, 23, 25
    3    7 N      6, 11, 16, 17, 21
    4    1 H      26-42

      * Solvation model:               ALPB
        Solvent                        DMSO
        Solvent mass                       7.8130E+01 g/mol
          :  Hamiltonian                  GFN1-xTB          :
 * total energy  :   -83.6202184 Eh     change       -0.2440203E-08 Eh
 * total energy  :   -83.6352833 Eh     change       -0.1506489E-01 Eh
 * total energy  :   -83.6415171 Eh     change       -0.6233802E-02 Eh
 * total energy  :   -83.6429396 Eh     change       -0.1422505E-02 Eh
 * total energy  :   -83.6439349 Eh     change       -0.9953753E-03 Eh
 * total energy  :   -83.6443886 Eh     change       -0.4536979E-03 Eh
 * total energy  :   -83.6447043 Eh     change       -0.3156548E-03 Eh
 * total energy  :   -83.6449937 Eh     change       -0.2893896E-03 Eh
 * total energy  :   -83.6455186 Eh     change       -0.5248982E-03 Eh
 * total energy  :   -83.6463851 Eh     change       -0.8665333E-03 Eh
 * total energy  :   -83.6720418 Eh     change       -0.8544576E-05 Eh
 * total energy  :   -83.6720515 Eh     change       -0.9640817E-05 Eh
 * total energy  :   -83.6720627 Eh     change       -0.1124548E-04 Eh
 * total energy  :   -83.6720741 Eh     change       -0.1136195E-04 Eh
 * total energy  :   -83.6720838 Eh     change       -0.9753905E-05 Eh
 * total energy  :   -83.6720916 Eh     change       -0.7772779E-05 Eh
 * total energy  :   -83.6720978 Eh     change       -0.6159009E-05 Eh
 * total energy  :   -83.6721031 Eh     change       -0.5288901E-05 Eh
 * total energy  :   -83.6721066 Eh     change       -0.3551344E-05 Eh
   *** GEOMETRY OPTIMIZATION CONVERGED AFTER 68 ITERATIONS ***

 final structure:
================
42
 xtb: 6.5.1 (579679a)
C            6.05809291674235        1.44183598924210       -2.42757198539037
O            4.90206251034470        1.75871820292683       -1.67178890498222
C            4.10848042481446        0.70094553142226       -1.33196652212151
O            4.40883581136082       -0.43238330773690       -1.70126541870451
C            2.95054204818969        1.04063854361818       -0.52893178132273
N            2.19994886025730       -0.06900149828192       -0.16926108571459
C            1.15540725236291        0.05271514023004        0.56935641597226
C            0.36468517445562       -1.18003791622484        0.98961065742573
C            1.01481792027266       -2.41345236202221        0.33956088662556
C            0.43972454420108       -1.33850989109146        2.52171073995875
N           -1.01156942658444       -1.14509300478724        0.48957706991400
C           -1.89756624697497       -0.36761655590709        1.03549217161478
O           -1.80136659967420        0.48209712204507        1.96017319570791
C           -3.32775362745885       -0.57105880634265        0.41436757568471
C           -4.39215038117164       -0.56606376027378        1.51192706204342
N           -3.41304923331865       -1.81348207457549       -0.37490191857856
N           -3.68937324526164       -1.42137208782095       -1.71775109029522
C           -3.81813513858215       -0.15628536537862       -1.71707356261717
C           -4.17036220052080        0.67279413698918       -2.90169432627689
O           -3.62860722686100        0.46969276235227       -0.53599220796908
N            0.74025331760999        1.28487792668467        1.02260640342083
C            1.36886776697801        2.45805321340822        0.73616694717468
O            0.92985695126187        3.52551942989673        1.17625825902242
C            2.60783862187241        2.35577674804333       -0.12435769069231
O            3.22594561272494        3.40418419334169       -0.41176949445862
H            6.58168709556332        2.37724698979014       -2.62288235075052
H            5.78925338198488        0.96632523282229       -3.37681878833955
H            6.71451231338885        0.76392758184398       -1.87165845287337
H            2.05794849945734       -2.50776371734477        0.64195190610858
H            0.47359567814667       -3.30913273036230        0.64080989237790
H            0.97009087613459       -2.32673363706791       -0.74649413172241
H            1.47367269710030       -1.51167182032902        2.82241265000039
H           -0.16169918363702       -2.19250918225085        2.83214842831995
H            0.07353583840513       -0.45071493036294        3.03433233221875
H           -2.48019544251147       -2.25589332229237       -0.39277467943627
H           -5.38640650195678       -0.60325561447046        1.07044289709960
H           -4.29383528204789        0.33742517423603        2.11244748344257
H           -4.25177746589392       -1.43726915629706        2.14889905987022
H           -3.39024642668095        1.40923560995018       -3.09495821992908
H           -5.10078200563237        1.20844152382452       -2.71553477165145
H           -4.29209814859380        0.03458111718237       -3.77325225616008
H           -0.10268133025453        1.32426857136878        1.59670360599286

          :  Hamiltonian                  GFN1-xTB          :
         :: total energy             -83.672106603135 Eh    ::
         :: gradient norm              0.000186512433 Eh/a0 ::
         :: HOMO-LUMO gap              2.478082244034 eV    ::
         :: SCC energy               -84.409749131038 Eh    ::
         :: -> Gsolv                  -0.265481915402 Eh    ::
         :: repulsion energy           0.763965603891 Eh    ::

    * Orbital Energies and Occupations

         #    Occupation            Energy/Eh            Energy/eV
      -------------------------------------------------------------
         1        2.0000           -0.7905751             -21.5126
       ...           ...                  ...                  ...
        56        2.0000           -0.4449059             -12.1065
        57        2.0000           -0.4419336             -12.0256
        58        2.0000           -0.4336995             -11.8016
        59        2.0000           -0.4239795             -11.5371
        60        2.0000           -0.4224938             -11.4966
        61        2.0000           -0.4136013             -11.2547
        62        2.0000           -0.3935058             -10.7078
        63        2.0000           -0.3929386             -10.6924
        64        2.0000           -0.3645326              -9.9194
        65        2.0000           -0.3584713              -9.7545
        66        2.0000           -0.3508280              -9.5465
        67        2.0000           -0.3483152              -9.4781
        68        2.0000           -0.3431324              -9.3371 (HOMO)
        69                         -0.2520646              -6.8590 (LUMO)
        70                         -0.2152957              -5.8585
        71                         -0.2113887              -5.7522
        72                         -0.1790409              -4.8719
        73                         -0.1680143              -4.5719
        74                         -0.1261824              -3.4336
        75                         -0.1167069              -3.1758
        76                         -0.0965048              -2.6260
        77                         -0.0911527              -2.4804
        78                         -0.0884491              -2.4068
        79                         -0.0848628              -2.3092
       ...                                ...                  ...
       134                          0.7619577              20.7339
      -------------------------------------------------------------
                  HL-Gap            0.0910678 Eh            2.4781 eV

Wiberg/Mayer (AO) data.
largest (>0.10) Wiberg bond orders for each atom

     #   Z sym  total        # sym  WBO       # sym  WBO       # sym  WBO
 ---------------------------------------------------------------------------
     1   6 C    3.905 --    26 H    0.987    28 H    0.980    27 H    0.980
                             2 O    0.933
     2   8 O    2.148 --     3 C    1.029     1 C    0.933     4 O    0.104
     3   6 C    3.847 --     4 O    1.560     5 C    1.135     2 O    1.029
     4   8 O    1.839 --     3 C    1.560     2 O    0.104
     5   6 C    3.920 --    24 C    1.280     6 N    1.142     3 C    1.135
                            25 O    0.128
     6   7 N    3.019 --     7 C    1.625     5 C    1.142
     7   6 C    3.925 --     6 N    1.625    21 N    1.109     8 C    0.968
     8   6 C    3.973 --     9 C    0.996    10 C    0.977    11 N    0.970
                             7 C    0.968
     9   6 C    3.997 --     8 C    0.996    30 H    0.988    29 H    0.987
                            31 H    0.985
    10   6 C    3.994 --    32 H    0.988    33 H    0.986    34 H    0.980
                             8 C    0.977
    11   7 N    2.930 --    12 C    1.558     8 C    0.970    13 O    0.211
    12   6 C    3.936 --    11 N    1.558    13 O    1.403    14 C    0.889
    13   8 O    1.807 --    12 C    1.403    11 N    0.211
    14   6 C    3.840 --    15 C    0.992    16 N    0.960    12 C    0.889
                            20 O    0.881
    15   6 C    3.996 --    14 C    0.992    36 H    0.987    38 H    0.986
                            37 H    0.983
    16   7 N    3.032 --    17 N    1.006    14 C    0.960    35 H    0.908
    17   7 N    2.969 --    18 C    1.747    16 N    1.006    20 O    0.124
    18   6 C    3.904 --    17 N    1.747    20 O    1.050    19 C    1.017
    19   6 C    3.994 --    18 C    1.017    41 H    0.986    39 H    0.972
                            40 H    0.971
    20   8 O    2.143 --    18 C    1.050    14 C    0.881    17 N    0.124
    21   7 N    3.451 --    22 C    1.196     7 C    1.109    42 H    0.859
                            23 O    0.138
    22   6 C    3.889 --    23 O    1.547    21 N    1.196    24 C    0.974
    23   8 O    1.828 --    22 C    1.547    21 N    0.138
    24   6 C    3.944 --    25 O    1.498     5 C    1.280    22 C    0.974
    25   8 O    1.801 --    24 C    1.498     5 C    0.128
    26   1 H    1.017 --     1 C    0.987
    27   1 H    1.016 --     1 C    0.980
    28   1 H    1.016 --     1 C    0.980
    29   1 H    1.017 --     9 C    0.987
    30   1 H    1.014 --     9 C    0.988
    31   1 H    1.022 --     9 C    0.985
    32   1 H    1.008 --    10 C    0.988
    33   1 H    1.007 --    10 C    0.986
    34   1 H    1.022 --    10 C    0.980
    35   1 H    1.013 --    16 N    0.908
    36   1 H    1.011 --    15 C    0.987
    37   1 H    1.019 --    15 C    0.983
    38   1 H    1.011 --    15 C    0.986
    39   1 H    1.002 --    19 C    0.972
    40   1 H    1.003 --    19 C    0.971
    41   1 H    1.005 --    19 C    0.986
    42   1 H    0.958 --    21 N    0.859
 ---------------------------------------------------------------------------

           -------------------------------------------------
          | TOTAL ENERGY              -83.672106603135 Eh   |
          | GRADIENT NORM               0.000186512433 Eh/α |
          | HOMO-LUMO GAP               2.478082244034 eV   |
           -------------------------------------------------

 * finished run on 2023/06/21 at 17:10:20.894
