   * xtb version 6.5.1 (579679a) compiled by 'ehlert@majestix' on 2022-07-11
          program call               : /lustre/hpc/kemi/ree/PhD/git/ReactivityQM/dep/xtb-6.5.1/bin/xtb --gfn 1 /lustre/hpc/kemi/ree/PhD/git/ReactivityQM/calculations/R02/reac01prodE03/conf16/R02_reac01prodE03_conf16_gfn1.xyz --opt --vfukui --chrg -1 --uhf 0 --alpb DMSO

   ID    Z sym.   atoms
    1    6 C      1, 3, 5, 6, 8-11, 13, 15, 18, 19, 22, 24
    2    8 O      2, 4, 14, 20, 23, 25
    3    7 N      7, 12, 16, 17, 21
    4    1 H      26-43

      * Solvation model:               ALPB
        Solvent                        DMSO
        Solvent mass                       7.8130E+01 g/mol
          :  Hamiltonian                  GFN1-xTB          :
 * total energy  :   -83.8142113 Eh     change       -0.4067147E-10 Eh
 * total energy  :   -83.8291801 Eh     change       -0.1496877E-01 Eh
 * total energy  :   -83.8354379 Eh     change       -0.6257857E-02 Eh
 * total energy  :   -83.8371239 Eh     change       -0.1685950E-02 Eh
 * total energy  :   -83.8383770 Eh     change       -0.1253141E-02 Eh
 * total energy  :   -83.8391894 Eh     change       -0.8124041E-03 Eh
 * total energy  :   -83.8399575 Eh     change       -0.7681079E-03 Eh
 * total energy  :   -83.8405889 Eh     change       -0.6313524E-03 Eh
 * total energy  :   -83.8410033 Eh     change       -0.4144418E-03 Eh
 * total energy  :   -83.8412604 Eh     change       -0.2570903E-03 Eh
 * total energy  :   -83.8470832 Eh     change       -0.2019695E-04 Eh
 * total energy  :   -83.8471319 Eh     change       -0.4870355E-04 Eh
 * total energy  :   -83.8471616 Eh     change       -0.2975836E-04 Eh
 * total energy  :   -83.8471997 Eh     change       -0.3804013E-04 Eh
 * total energy  :   -83.8472151 Eh     change       -0.1544902E-04 Eh
 * total energy  :   -83.8472289 Eh     change       -0.1379560E-04 Eh
 * total energy  :   -83.8472369 Eh     change       -0.7946045E-05 Eh
 * total energy  :   -83.8472436 Eh     change       -0.6718246E-05 Eh
 * total energy  :   -83.8472478 Eh     change       -0.4167659E-05 Eh
   *** GEOMETRY OPTIMIZATION CONVERGED AFTER 52 ITERATIONS ***

 final structure:
================
43
 xtb: 6.5.1 (579679a)
C           -3.73321478948465       -0.84924116274244       -2.24546061097046
O           -4.08277139875850       -0.65005903686994       -0.87849188491952
C           -3.71841754972830        0.58157787965246       -0.33725495934746
O           -4.71950178713209        1.55866934125318       -0.40866083285709
C           -5.91868830660536        1.23313788178969        0.28687164380092
C           -2.46669498394850        0.82599268408149        0.15671725932954
N           -1.55642063339605       -0.24245521524865        0.03727441886845
C           -0.36865406427238       -0.10652714011040        0.50363278687441
C            0.59758964906824       -1.28069722703746        0.43017778700835
C            0.64072695196714       -1.96631777735275        1.79945994195613
C            0.16276570781010       -2.26939127626014       -0.65495796119023
N            1.94868964046582       -0.78408133726732        0.14792231077203
C            2.24372410037772       -0.06716348348251       -0.95955982167799
O            1.42785206765896        0.31109945889228       -1.78957002410124
C            3.68340306870531        0.25835774259376       -1.06973619557021
N            4.26564226539362        0.97423375639092       -1.98747489847978
N            5.59279886817046        1.01520655101585       -1.67107492123373
C            5.74033789893449        0.32580105315259       -0.58461108585330
C            6.99206796958850        0.06858526976754        0.16123522623819
O            4.57404770874693       -0.18144170230701       -0.14741235278951
N            0.07814967370129        1.00803986377268        1.12642779061046
C           -0.72542173063251        2.18487327728681        1.28106015660712
O           -0.18926689137185        3.16537738865190        1.85085981600446
C           -2.00746012520196        2.04378188628724        0.76423164019021
O           -2.86971731345342        3.14693063413670        0.88506900121642
H           -4.15022837805337       -0.05967258489345       -2.88266314849044
H           -2.64229011064348       -0.87400977273381       -2.36681871613972
H           -4.14957786426296       -1.81237378436304       -2.54701005539149
H           -6.63471412529515        2.03118213730676        0.08717220438856
H           -5.74152852406536        1.16456391259743        1.36779738011677
H           -6.32965477610176        0.28180299290766       -0.06956600149604
H            1.33022137642767       -2.80825299093667        1.77962504738928
H           -0.35227661590909       -2.33159533828181        2.05842965992494
H            0.96688546013552       -1.26157232117378        2.56294911147569
H            0.12164933027625       -1.77295335620385       -1.62400086451089
H           -0.82968654945445       -2.64917207899772       -0.41557530184905
H            0.86384086691627       -3.09997291322396       -0.70641869773486
H            2.70314086511873       -1.13298351045665        0.71140210392776
H            7.81897586777980        0.58386759192585       -0.32148434100401
H            6.89265352786419        0.41744790942261        1.18875896290860
H            7.19695100669001       -1.00131002086876        0.18885406054116
H            1.00920930783768        1.03809001496678        1.50438113823317
H           -3.66513766186244        2.98262680295902        0.35413122721845

          :  Hamiltonian                  GFN1-xTB          :
         :: total energy             -83.847247761236 Eh    ::
         :: gradient norm              0.000555663849 Eh/a0 ::
         :: HOMO-LUMO gap              0.163879810160 eV    ::
         :: SCC energy               -84.607291954762 Eh    ::
         :: -> Gsolv                  -0.133864920363 Eh    ::
         :: repulsion energy           0.786566518740 Eh    ::

    * Orbital Energies and Occupations

         #    Occupation            Energy/Eh            Energy/eV
      -------------------------------------------------------------
         1        2.0000           -0.8525346             -23.1986
       ...           ...                  ...                  ...
        56        2.0000           -0.4697757             -12.7832
        57        2.0000           -0.4660879             -12.6829
        58        2.0000           -0.4511524             -12.2765
        59        2.0000           -0.4470750             -12.1655
        60        2.0000           -0.4411888             -12.0054
        61        2.0000           -0.4393067             -11.9541
        62        2.0000           -0.4373334             -11.9004
        63        2.0000           -0.4309049             -11.7255
        64        2.0000           -0.4231504             -11.5145
        65        2.0000           -0.3919048             -10.6643
        66        2.0000           -0.3880235             -10.5587
        67        2.0000           -0.3709824             -10.0949
        68        1.9193           -0.3035815              -8.2609 (HOMO)
        69        0.0807           -0.2975591              -8.0970 (LUMO)
        70                         -0.2464771              -6.7070
        71                         -0.2255450              -6.1374
        72                         -0.1922184              -5.2305
        73                         -0.1836007              -4.9960
        74                         -0.1374268              -3.7396
        75                         -0.1199829              -3.2649
        76                         -0.1185038              -3.2247
        77                         -0.1154774              -3.1423
        78                         -0.1062847              -2.8922
        79                         -0.0903881              -2.4596
       ...                                ...                  ...
       136                          0.7304155              19.8756
      -------------------------------------------------------------
                  HL-Gap            0.0060225 Eh            0.1639 eV

Wiberg/Mayer (AO) data.
largest (>0.10) Wiberg bond orders for each atom

     #   Z sym  total        # sym  WBO       # sym  WBO       # sym  WBO
 ---------------------------------------------------------------------------
     1   6 C    3.914 --    28 H    0.986    26 H    0.983    27 H    0.982
                             2 O    0.931
     2   8 O    2.012 --     3 C    0.946     1 C    0.931
     3   6 C    3.712 --     6 C    1.520     2 O    0.946     4 O    0.932
     4   8 O    2.045 --     3 C    0.932     5 C    0.931
     5   6 C    3.910 --    29 H    0.986    30 H    0.983    31 H    0.983
                             4 O    0.931
     6   6 C    3.953 --     3 C    1.520    24 C    1.174     7 N    1.072
     7   7 N    3.000 --     8 C    1.623     6 C    1.072    21 N    0.132
     8   6 C    3.947 --     7 N    1.623    21 N    1.196     9 C    0.965
     9   6 C    3.932 --    11 C    0.992    10 C    0.989     8 C    0.965
                            12 N    0.920
    10   6 C    3.993 --     9 C    0.989    34 H    0.985    33 H    0.984
                            32 H    0.984
    11   6 C    3.992 --     9 C    0.992    37 H    0.987    36 H    0.984
                            35 H    0.981
    12   7 N    3.331 --    13 C    1.245     9 C    0.920    38 H    0.899
                            14 O    0.172
    13   6 C    3.893 --    14 O    1.565    12 N    1.245    15 C    1.004
    14   8 O    1.857 --    13 C    1.565    12 N    0.172
    15   6 C    3.837 --    16 N    1.596    20 O    1.036    13 C    1.004
    16   7 N    2.956 --    15 C    1.596    17 N    1.192
    17   7 N    2.980 --    18 C    1.618    16 N    1.192
    18   6 C    3.861 --    17 N    1.618    20 O    1.068    19 C    1.030
    19   6 C    3.988 --    18 C    1.030    39 H    0.983    40 H    0.965
                            41 H    0.964
    20   8 O    2.295 --    18 C    1.068    15 C    1.036
    21   7 N    3.362 --     8 C    1.196    22 C    0.959    42 H    0.907
                             7 N    0.132
    22   6 C    3.896 --    23 O    1.414    24 C    1.369    21 N    0.959
    23   8 O    1.712 --    22 C    1.414    24 C    0.131
    24   6 C    3.810 --    22 C    1.369     6 C    1.174    25 O    0.966
                            23 O    0.131
    25   8 O    1.929 --    24 C    0.966    43 H    0.847
    26   1 H    1.015 --     1 C    0.983
    27   1 H    1.027 --     1 C    0.982
    28   1 H    1.019 --     1 C    0.986
    29   1 H    1.018 --     5 C    0.986
    30   1 H    1.015 --     5 C    0.983
    31   1 H    1.020 --     5 C    0.983
    32   1 H    0.999 --    10 C    0.984
    33   1 H    1.004 --    10 C    0.984
    34   1 H    1.002 --    10 C    0.985
    35   1 H    1.017 --    11 C    0.981
    36   1 H    1.017 --    11 C    0.984
    37   1 H    1.003 --    11 C    0.987
    38   1 H    0.941 --    12 N    0.899
    39   1 H    1.000 --    19 C    0.983
    40   1 H    0.997 --    19 C    0.965
    41   1 H    0.997 --    19 C    0.964
    42   1 H    0.960 --    21 N    0.907
    43   1 H    0.899 --    25 O    0.847
 ---------------------------------------------------------------------------

           -------------------------------------------------
          | TOTAL ENERGY              -83.847247761236 Eh   |
          | GRADIENT NORM               0.000555663849 Eh/α |
          | HOMO-LUMO GAP               0.163879810160 eV   |
           -------------------------------------------------

 * finished run on 2023/06/20 at 14:55:12.550
