   * xtb version 6.5.1 (579679a) compiled by 'ehlert@majestix' on 2022-07-11
          program call               : /lustre/hpc/kemi/ree/PhD/git/ReactivityQM/dep/xtb-6.5.1/bin/xtb --gfn 1 /lustre/hpc/kemi/ree/PhD/git/ReactivityQM/calculations/R02deprot/reac01prodN14/conf11/R02deprot_reac01prodN14_conf11_gfn1.xyz --opt --vfukui --chrg 0 --uhf 0 --alpb DMSO

   ID    Z sym.   atoms
    1    6 C      1, 3, 5, 7-10, 12, 14, 17-19, 22, 24
    2    8 O      2, 4, 13, 20, 23, 25
    3    7 N      6, 11, 15, 16, 21
    4    1 H      26-42

      * Solvation model:               ALPB
        Solvent                        DMSO
        Solvent mass                       7.8130E+01 g/mol
          :  Hamiltonian                  GFN1-xTB          :
 * total energy  :   -82.9130775 Eh     change       -0.1650733E-09 Eh
 * total energy  :   -82.9240741 Eh     change       -0.1099657E-01 Eh
 * total energy  :   -82.9278086 Eh     change       -0.3734516E-02 Eh
 * total energy  :   -82.9284993 Eh     change       -0.6907656E-03 Eh
 * total energy  :   -82.9290346 Eh     change       -0.5352196E-03 Eh
 * total energy  :   -82.9292836 Eh     change       -0.2490761E-03 Eh
 * total energy  :   -82.9294665 Eh     change       -0.1828183E-03 Eh
 * total energy  :   -82.9296218 Eh     change       -0.1553355E-03 Eh
 * total energy  :   -82.9297404 Eh     change       -0.1185635E-03 Eh
 * total energy  :   -82.9298393 Eh     change       -0.9895577E-04 Eh
 * total energy  :   -82.9310827 Eh     change       -0.1025719E-04 Eh
 * total energy  :   -82.9310899 Eh     change       -0.7214690E-05 Eh
 * total energy  :   -82.9310958 Eh     change       -0.5973587E-05 Eh
 * total energy  :   -82.9311022 Eh     change       -0.6318007E-05 Eh
 * total energy  :   -82.9311100 Eh     change       -0.7827652E-05 Eh
 * total energy  :   -82.9311195 Eh     change       -0.9556878E-05 Eh
 * total energy  :   -82.9311292 Eh     change       -0.9687478E-05 Eh
 * total energy  :   -82.9311373 Eh     change       -0.8042358E-05 Eh
 * total energy  :   -82.9311401 Eh     change       -0.2868734E-05 Eh
   *** GEOMETRY OPTIMIZATION CONVERGED AFTER 68 ITERATIONS ***

 final structure:
================
42
 xtb: 6.5.1 (579679a)
C            6.67047504848368       -0.81284132129122       -0.83825757547591
O            5.31946097191584       -0.53589808386890       -0.46245182277969
C            5.11282403446838       -0.20521590986684        0.81374921974309
O            6.00227330695324       -0.12883321992154        1.62943408720990
C            3.66761387862364        0.04543460795656        1.09860112816332
N            2.81685842220219       -0.01093347444512        0.05663307968084
C            1.51550785228808        0.16937329323992        0.28669344238685
C            0.62201724356959        0.08710058823326       -0.93677708054202
C            0.85795965285418        1.32785332708234       -1.81211348082434
C            0.92279171484306       -1.19733494305388       -1.71885551700888
N           -0.75572840034491        0.07511176147170       -0.45538381395335
C           -1.83677563417915       -0.03033435531440       -1.23908374744053
O           -1.85136573436583       -0.12093914959409       -2.45359706083439
C           -3.08413857378877       -0.03374566010291       -0.41464574676434
N           -3.10569741300194        0.07973339153663        0.93129682505955
N           -4.32085817262339        0.02831454244201        1.32315073806697
C           -5.18072120808807       -0.12970133244423        0.18186353128497
C           -6.11966702043131        1.07191899645774        0.05041138851238
C           -5.93831242982810       -1.45745123607376        0.26407740502646
O           -4.27503322060289       -0.15868545823895       -0.92235063131793
N            0.94329357393164        0.41090333661205        1.44779432571452
C            1.72891632302452        0.50777610228682        2.56167889071892
O            1.30149432257703        0.74798740908494        3.69205132600291
C            3.17639670737851        0.30530482550541        2.36747014304627
O            3.92704371083205        0.38821112477961        3.45879150143282
H            7.03229011919219       -1.69884996576279       -0.31066048961618
H            7.31156740051601        0.03838681319291       -0.59647712377638
H            6.66555309907076       -0.98986506332289       -1.91178401028120
H            1.91026608515730        1.37162668231785       -2.08871731742497
H            0.59569583705396        2.22870645675090       -1.25972558626707
H            0.25112001397882        1.27112838421244       -2.71387406258692
H            0.34539951308885       -1.22556862306546       -2.64068346150809
H            0.67501363009155       -2.06786387276430       -1.11365789528161
H            1.98479757230397       -1.22073449791652       -1.95865111535180
H           -0.86263742226532        0.17587152527760        0.55237471137388
H           -6.76339766240767        1.11619742141201        0.92506907449140
H           -6.72319103300354        0.95743508172022       -0.84655604959988
H           -5.53074133384882        1.98393092699579       -0.01873114713127
H           -6.58834361695462       -1.44150725729864        1.13495453683182
H           -6.53196607093240       -1.58597021437978       -0.63756744274807
H           -5.22684544723390       -2.27544984732138        0.35291753309462
H            3.33879035948640        0.56288388751077        4.22159029068907

          :  Hamiltonian                  GFN1-xTB          :
         :: total energy             -82.931140143555 Eh    ::
         :: gradient norm              0.000160104139 Eh/a0 ::
         :: HOMO-LUMO gap              0.065026901606 eV    ::
         :: SCC energy               -83.690803542974 Eh    ::
         :: -> Gsolv                  -0.056091853349 Eh    ::
         :: repulsion energy           0.784836941447 Eh    ::

    * Orbital Energies and Occupations

         #    Occupation            Energy/Eh            Energy/eV
      -------------------------------------------------------------
         1        2.0000           -0.8889464             -24.1895
       ...           ...                  ...                  ...
        55        2.0000           -0.5122924             -13.9402
        56        2.0000           -0.5042495             -13.7213
        57        2.0000           -0.5024106             -13.6713
        58        2.0000           -0.4949088             -13.4672
        59        2.0000           -0.4869567             -13.2508
        60        2.0000           -0.4815923             -13.1048
        61        2.0000           -0.4760426             -12.9538
        62        2.0000           -0.4697187             -12.7817
        63        2.0000           -0.4676159             -12.7245
        64        2.0000           -0.4587316             -12.4827
        65        2.0000           -0.4474752             -12.1764
        66        1.9987           -0.4173897             -11.3578
        67        1.5579           -0.4116118             -11.2005 (HOMO)
        68        0.4434           -0.4092221             -11.1355 (LUMO)
        69                         -0.3258047              -8.8656
        70                         -0.3095052              -8.4221
        71                         -0.2727753              -7.4226
        72                         -0.2254794              -6.1356
        73                         -0.2233237              -6.0769
        74                         -0.1483399              -4.0365
        75                         -0.1468905              -3.9971
        76                         -0.1414068              -3.8479
        77                         -0.1369365              -3.7262
        78                         -0.1236886              -3.3657
       ...                                ...                  ...
       134                          0.7360121              20.0279
      -------------------------------------------------------------
                  HL-Gap            0.0023897 Eh            0.0650 eV

Wiberg/Mayer (AO) data.
largest (>0.10) Wiberg bond orders for each atom

     #   Z sym  total        # sym  WBO       # sym  WBO       # sym  WBO
 ---------------------------------------------------------------------------
     1   6 C    3.873 --    28 H    0.986    27 H    0.979    26 H    0.979
                             2 O    0.899
     2   8 O    2.199 --     3 C    1.111     1 C    0.899     4 O    0.135
     3   6 C    3.845 --     4 O    1.662     2 O    1.111     5 C    0.993
     4   8 O    1.918 --     3 C    1.662     2 O    0.135
     5   6 C    3.917 --    24 C    1.377     6 N    1.311     3 C    0.993
     6   7 N    2.858 --     7 C    1.339     5 C    1.311
     7   6 C    3.912 --    21 N    1.449     6 N    1.339     8 C    0.981
     8   6 C    3.921 --     7 C    0.981    10 C    0.978     9 C    0.968
                            11 N    0.924
     9   6 C    3.979 --    30 H    0.986    29 H    0.984    31 H    0.981
                             8 C    0.968
    10   6 C    3.982 --    33 H    0.986    34 H    0.982    32 H    0.982
                             8 C    0.978
    11   7 N    3.374 --    12 C    1.282     8 C    0.924    35 H    0.866
                            13 O    0.201
    12   6 C    3.922 --    13 O    1.581    11 N    1.282    14 C    0.975
    13   8 O    1.901 --    12 C    1.581    11 N    0.201
    14   6 C    3.649 --    15 N    1.282    20 O    1.223    12 C    0.975
    15   7 N    3.008 --    16 N    1.566    14 C    1.282
    16   7 N    2.729 --    15 N    1.566    17 C    1.026
    17   6 C    3.835 --    16 N    1.026    18 C    0.934    19 C    0.934
                            20 O    0.875
    18   6 C    3.938 --    38 H    0.982    36 H    0.981    37 H    0.980
                            17 C    0.934
    19   6 C    3.938 --    41 H    0.982    39 H    0.981    40 H    0.980
                            17 C    0.934
    20   8 O    2.245 --    14 C    1.223    17 C    0.875
    21   7 N    2.971 --     7 C    1.449    22 C    1.180
    22   6 C    3.875 --    23 O    1.551    21 N    1.180    24 C    1.034
    23   8 O    1.780 --    22 C    1.551
    24   6 C    3.739 --     5 C    1.377    25 O    1.146    22 C    1.034
    25   8 O    2.060 --    24 C    1.146    42 H    0.798
    26   1 H    1.007 --     1 C    0.979
    27   1 H    1.008 --     1 C    0.979
    28   1 H    1.011 --     1 C    0.986
    29   1 H    1.005 --     9 C    0.984
    30   1 H    1.002 --     9 C    0.986
    31   1 H    1.006 --     9 C    0.981
    32   1 H    1.008 --    10 C    0.982
    33   1 H    1.001 --    10 C    0.986
    34   1 H    1.012 --    10 C    0.982
    35   1 H    0.968 --    11 N    0.866
    36   1 H    0.996 --    18 C    0.981
    37   1 H    0.995 --    18 C    0.980
    38   1 H    0.995 --    18 C    0.982
    39   1 H    0.996 --    19 C    0.981
    40   1 H    0.995 --    19 C    0.980
    41   1 H    0.995 --    19 C    0.982
    42   1 H    0.848 --    25 O    0.798
 ---------------------------------------------------------------------------

           -------------------------------------------------
          | TOTAL ENERGY              -82.931140143555 Eh   |
          | GRADIENT NORM               0.000160104139 Eh/α |
          | HOMO-LUMO GAP               0.065026901606 eV   |
           -------------------------------------------------

 * finished run on 2023/06/20 at 18:23:52.956
