   * xtb version 6.5.1 (579679a) compiled by 'ehlert@majestix' on 2022-07-11
          program call               : /lustre/hpc/kemi/ree/PhD/git/ReactivityQM/dep/xtb-6.5.1/bin/xtb --gfn 1 /lustre/hpc/kemi/ree/PhD/git/ReactivityQM/calculations/R02/reac01prodN10/conf11/R02_reac01prodN10_conf11_gfn1.xyz --opt --vfukui --chrg 1 --uhf 0 --alpb DMSO

   ID    Z sym.   atoms
    1    6 C      1, 3, 5, 6, 8, 11-15, 17, 19, 22, 23
    2    8 O      2, 4, 7, 9, 18, 24
    3    7 N      10, 16, 20, 21, 25
    4    1 H      26-43

      * Solvation model:               ALPB
        Solvent                        DMSO
        Solvent mass                       7.8130E+01 g/mol
          :  Hamiltonian                  GFN1-xTB          :
 * total energy  :   -83.0930702 Eh     change       -0.2612808E-09 Eh
 * total energy  :   -83.1091641 Eh     change       -0.1609389E-01 Eh
 * total energy  :   -83.1156494 Eh     change       -0.6485343E-02 Eh
 * total energy  :   -83.1170109 Eh     change       -0.1361459E-02 Eh
 * total energy  :   -83.1182901 Eh     change       -0.1279279E-02 Eh
 * total energy  :   -83.1191491 Eh     change       -0.8589238E-03 Eh
 * total energy  :   -83.1200154 Eh     change       -0.8663623E-03 Eh
 * total energy  :   -83.1207450 Eh     change       -0.7295814E-03 Eh
 * total energy  :   -83.1211927 Eh     change       -0.4477217E-03 Eh
 * total energy  :   -83.1214385 Eh     change       -0.2457671E-03 Eh
 * total energy  :   -83.1227907 Eh     change       -0.5243182E-05 Eh
 * total energy  :   -83.1228115 Eh     change       -0.2074467E-04 Eh
 * total energy  :   -83.1228204 Eh     change       -0.8943024E-05 Eh
 * total energy  :   -83.1228354 Eh     change       -0.1504128E-04 Eh
 * total energy  :   -83.1228425 Eh     change       -0.7045315E-05 Eh
 * total energy  :   -83.1228489 Eh     change       -0.6434978E-05 Eh
 * total energy  :   -83.1228567 Eh     change       -0.7762050E-05 Eh
 * total energy  :   -83.1228625 Eh     change       -0.5835655E-05 Eh
 * total energy  :   -83.1228655 Eh     change       -0.2956873E-05 Eh
   *** GEOMETRY OPTIMIZATION CONVERGED AFTER 41 ITERATIONS ***

 final structure:
================
43
 xtb: 6.5.1 (579679a)
C            1.86920088973289        1.89183870507542        3.72136381835753
O            1.81060839167471        1.21345514110160        2.45459793761547
C            2.62299067597551        1.63648038654916        1.50861901442275
O            3.41118543737597        2.53724555553637        1.61463584050360
C            2.45096803165555        0.82547368918210        0.23430845229410
C            3.31917121731042        0.98597196664271       -0.86924082139006
O            4.29751114747460        1.81692444086037       -0.89154391380420
C            3.15421544728581        0.12864203750771       -2.07492332764049
O            3.92039706786501        0.22765114934247       -3.00938161367142
N            2.13002775844753       -0.74783035465374       -1.98746263519777
C            1.18953161648246       -0.81918918476014       -0.91501972029054
C            0.97681967443874       -2.27523372085882       -0.48840583460614
C           -0.25494965078635       -0.18113196391921       -1.48104090607719
C           -0.08330790811116        1.32865837625828       -1.60246115137102
C           -0.54313770043853       -0.79416351276379       -2.84545954732625
N           -1.25430655388140       -0.45173043441384       -0.51171956691960
C           -2.07991857176305       -1.55058086122968       -0.47652261241405
O           -1.99860052976196       -2.50085598196262       -1.22512239560934
C           -3.10228840174102       -1.44606806091109        0.57734922892908
N           -4.03043414523136       -2.30843285429012        0.86332861331785
N           -4.75359316716103       -1.78374061101670        1.88138762244690
C           -4.22953868153535       -0.62762854392792        2.16180296093397
C           -4.66770183243926        0.33613051677922        3.19196526448675
O           -3.17816873077690       -0.35640017937289        1.37214829646000
N            1.47923158042378       -0.04958555473610        0.19266220185268
H            2.90997625713844        2.02382648822193        4.02485748579782
H            1.33762816300013        1.26136963914848        4.43024897905236
H            1.38305088653651        2.86530457099454        3.63394048339469
H            4.78873076312652        1.76981944735593       -1.74327172466515
H            2.03114022360689       -1.39837963509771       -2.75438709190262
H            0.54481654958159       -2.86094135394179       -1.29526146077742
H            0.32352363263766       -2.30030559872388        0.38003719045719
H            1.94737444038149       -2.68874291874019       -0.22024411839318
H           -0.01961270551172        1.79631190869609       -0.62221340680308
H           -0.94820178357311        1.73091290261076       -2.12898972661931
H            0.81101079319201        1.57046636931849       -2.17382321410751
H            0.09826538290582       -0.32764065846068       -3.59035766860794
H           -1.58345308442093       -0.59119644054923       -3.09812350011873
H           -0.39147276195040       -1.86979689267191       -2.87069574204814
H           -1.37512759280627        0.23888027772822        0.21558287326466
H           -4.86451809243864        1.30433401546851        2.73219754651804
H           -3.88090180625805        0.47132506144965        3.93353227223022
H           -5.56814232766228       -0.03144632882341        3.67896061802480

          :  Hamiltonian                  GFN1-xTB          :
         :: total energy             -83.122865473693 Eh    ::
         :: gradient norm              0.000747450176 Eh/a0 ::
         :: HOMO-LUMO gap              0.967753408450 eV    ::
         :: SCC energy               -83.913919535217 Eh    ::
         :: -> Gsolv                  -0.118475590780 Eh    ::
         :: repulsion energy           0.819390092754 Eh    ::

    * Orbital Energies and Occupations

         #    Occupation            Energy/Eh            Energy/eV
      -------------------------------------------------------------
         1        2.0000           -0.8978865             -24.4327
       ...           ...                  ...                  ...
        55        2.0000           -0.5318009             -14.4710
        56        2.0000           -0.5295410             -14.4095
        57        2.0000           -0.5248224             -14.2811
        58        2.0000           -0.5218440             -14.2001
        59        2.0000           -0.5169869             -14.0679
        60        2.0000           -0.5163889             -14.0517
        61        2.0000           -0.5103990             -13.8887
        62        2.0000           -0.4981289             -13.5548
        63        2.0000           -0.4921017             -13.3908
        64        2.0000           -0.4897650             -13.3272
        65        2.0000           -0.4818105             -13.1107
        66        2.0000           -0.4691051             -12.7650
        67        2.0000           -0.4682195             -12.7409 (HOMO)
        68                         -0.4326552             -11.7731 (LUMO)
        69                         -0.3578530              -9.7377
        70                         -0.3360940              -9.1456
        71                         -0.2786787              -7.5832
        72                         -0.2711817              -7.3792
        73                         -0.2272882              -6.1848
        74                         -0.2208759              -6.0103
        75                         -0.1601509              -4.3579
        76                         -0.1541592              -4.1949
        77                         -0.1496167              -4.0713
        78                         -0.1488227              -4.0497
       ...                                ...                  ...
       136                          0.7297789              19.8583
      -------------------------------------------------------------
                  HL-Gap            0.0355643 Eh            0.9678 eV

Wiberg/Mayer (AO) data.
largest (>0.10) Wiberg bond orders for each atom

     #   Z sym  total        # sym  WBO       # sym  WBO       # sym  WBO
 ---------------------------------------------------------------------------
     1   6 C    3.848 --    27 H    0.984    26 H    0.979    28 H    0.977
                             2 O    0.875
     2   8 O    2.228 --     3 C    1.157     1 C    0.875     4 O    0.150
     3   6 C    3.865 --     4 O    1.692     2 O    1.157     5 C    0.944
     4   8 O    1.956 --     3 C    1.692     2 O    0.150
     5   6 C    3.953 --    25 N    1.523     6 C    1.236     3 C    0.944
     6   6 C    3.832 --     7 O    1.318     5 C    1.236     8 C    0.984
     7   8 O    2.245 --     6 C    1.318    29 H    0.755
     8   6 C    3.919 --     9 O    1.615    10 N    1.222     6 C    0.984
     9   8 O    1.946 --     8 C    1.615    10 N    0.184
    10   7 N    3.435 --     8 C    1.222    11 C    0.986    30 H    0.869
                             9 O    0.184
    11   6 C    3.905 --    25 N    1.143    10 N    0.986    12 C    0.939
                            13 C    0.694
    12   6 C    3.966 --    32 H    0.980    31 H    0.976    33 H    0.976
                            11 C    0.939
    13   6 C    3.904 --    16 N    1.031    14 C    1.003    15 C    0.996
                            11 C    0.694
    14   6 C    3.985 --    13 C    1.003    34 H    0.980    36 H    0.980
                            35 H    0.968
    15   6 C    3.977 --    13 C    0.996    37 H    0.981    39 H    0.971
                            38 H    0.963
    16   7 N    3.380 --    17 C    1.154    13 C    1.031    40 H    0.883
                            18 O    0.135
    17   6 C    3.901 --    18 O    1.630    16 N    1.154    19 C    1.016
    18   8 O    1.935 --    17 C    1.630    16 N    0.135
    19   6 C    3.876 --    20 N    1.598    24 O    1.045    17 C    1.016
    20   7 N    3.003 --    19 C    1.598    21 N    1.223
    21   7 N    2.981 --    22 C    1.585    20 N    1.223
    22   6 C    3.856 --    21 N    1.585    24 O    1.077    23 C    1.035
    23   6 C    3.983 --    22 C    1.035    43 H    0.981    41 H    0.961
                            42 H    0.958
    24   8 O    2.321 --    22 C    1.077    19 C    1.045
    25   7 N    3.029 --     5 C    1.523    11 C    1.143
    26   1 H    1.003 --     1 C    0.979
    27   1 H    1.007 --     1 C    0.984
    28   1 H    1.001 --     1 C    0.977
    29   1 H    0.801 --     7 O    0.755
    30   1 H    0.908 --    10 N    0.869
    31   1 H    1.002 --    12 C    0.976
    32   1 H    1.000 --    12 C    0.980
    33   1 H    0.995 --    12 C    0.976
    34   1 H    0.998 --    14 C    0.980
    35   1 H    0.992 --    14 C    0.968
    36   1 H    0.997 --    14 C    0.980
    37   1 H    0.997 --    15 C    0.981
    38   1 H    0.989 --    15 C    0.963
    39   1 H    1.007 --    15 C    0.971
    40   1 H    0.932 --    16 N    0.883
    41   1 H    0.994 --    23 C    0.961
    42   1 H    0.994 --    23 C    0.958
    43   1 H    0.997 --    23 C    0.981
 ---------------------------------------------------------------------------

           -------------------------------------------------
          | TOTAL ENERGY              -83.122865473693 Eh   |
          | GRADIENT NORM               0.000747450176 Eh/α |
          | HOMO-LUMO GAP               0.967753408450 eV   |
           -------------------------------------------------

 * finished run on 2023/06/20 at 15:30:54.004
