   * xtb version 6.5.1 (579679a) compiled by 'ehlert@majestix' on 2022-07-11
          program call               : /lustre/hpc/kemi/ree/PhD/git/ReactivityQM/dep/xtb-6.5.1/bin/xtb --gfn 1 /lustre/hpc/kemi/ree/PhD/git/ReactivityQM/calculations/R02oxygendeprot/reac01prodN12/conf16/R02oxygendeprot_reac01prodN12_conf16_gfn1.xyz --opt --vfukui --chrg 0 --uhf 0 --alpb DMSO

   ID    Z sym.   atoms
    1    6 C      1, 3, 5, 7-10, 12, 14, 15, 18, 19, 22, 24
    2    8 O      2, 4, 13, 20, 23, 25
    3    7 N      6, 11, 16, 17, 21
    4    1 H      26-42

      * Solvation model:               ALPB
        Solvent                        DMSO
        Solvent mass                       7.8130E+01 g/mol
          :  Hamiltonian                  GFN1-xTB          :
 * total energy  :   -82.9285778 Eh     change       -0.1809042E-10 Eh
 * total energy  :   -82.9398846 Eh     change       -0.1130678E-01 Eh
 * total energy  :   -82.9444538 Eh     change       -0.4569178E-02 Eh
 * total energy  :   -82.9453767 Eh     change       -0.9229349E-03 Eh
 * total energy  :   -82.9459587 Eh     change       -0.5819380E-03 Eh
 * total energy  :   -82.9462905 Eh     change       -0.3318674E-03 Eh
 * total energy  :   -82.9465350 Eh     change       -0.2444641E-03 Eh
 * total energy  :   -82.9467022 Eh     change       -0.1671629E-03 Eh
 * total energy  :   -82.9468028 Eh     change       -0.1006134E-03 Eh
 * total energy  :   -82.9468829 Eh     change       -0.8008853E-04 Eh
 * total energy  :   -82.9472585 Eh     change       -0.9378542E-05 Eh
 * total energy  :   -82.9472701 Eh     change       -0.1159139E-04 Eh
 * total energy  :   -82.9472846 Eh     change       -0.1448739E-04 Eh
 * total energy  :   -82.9472944 Eh     change       -0.9855136E-05 Eh
 * total energy  :   -82.9473081 Eh     change       -0.1361481E-04 Eh
 * total energy  :   -82.9473169 Eh     change       -0.8846381E-05 Eh
 * total energy  :   -82.9473258 Eh     change       -0.8866487E-05 Eh
 * total energy  :   -82.9473306 Eh     change       -0.4808709E-05 Eh
 * total energy  :   -82.9473349 Eh     change       -0.4268494E-05 Eh
   *** GEOMETRY OPTIMIZATION CONVERGED AFTER 38 ITERATIONS ***

 final structure:
================
42
 xtb: 6.5.1 (579679a)
C            6.46116346122544        1.56358198175233       -0.40644248812547
O            5.04167306851149        1.70411720608835       -0.43501445705338
C            4.33241999820823        0.62046065766949       -0.09874532866552
O            4.86065647502401       -0.42748700011705        0.22277483167487
C            2.86675509911777        0.81107342607254       -0.15556964434095
N            2.17496609167756       -0.32194643465828        0.14030598241344
C            0.88091597227036       -0.32581716610831        0.11900938668690
C            0.14334890429269       -1.61628814899219        0.41762476949228
C            0.57235107089275       -2.67787667487454       -0.60412696931633
C            0.47960466867665       -2.08133659217780        1.83642539989883
N           -1.29620544881166       -1.39179444503509        0.22250767674696
C           -2.18550669595132       -1.04848519383223        1.15095380310404
O           -2.05968264300787       -1.01366047917415        2.34892730892855
C           -3.55862914740056       -0.56963621517241        0.49773242252829
C           -4.72221597175249       -0.92983259827006        1.41088155065488
N           -3.68531618560058       -1.06531310775374       -0.82774333305396
N           -3.57953146695459       -0.07852855723600       -1.65786917327437
C           -3.42162219876710        1.05297314975193       -0.95329335923016
C           -3.19869943923924        2.39123924919685       -1.50658238012719
O           -3.41776963551000        0.83400080513477        0.33732366856917
N            0.16329137710161        0.79173528655443       -0.18674273764117
C            0.71711010264962        2.00010614291573       -0.54476542008292
O           -0.01255214174010        2.92957937907370       -0.85731863649565
C            2.22878911529296        2.04731207752945       -0.51002347599617
O            2.80369818343501        3.10417945899213       -0.77937675723723
H            6.80054039504359        1.34166523668169        0.60858447895407
H            6.77575792059269        0.75629137960258       -1.07278393019745
H            6.87798368645771        2.51109042298850       -0.74251383352670
H            1.65251742042639       -2.80829810068262       -0.55129250190941
H            0.30439132341605       -2.36241250038467       -1.61102922762802
H            0.08190811741071       -3.62368590938578       -0.38357348543450
H           -0.11978574984573       -2.95037730653481        2.09816601066522
H            1.53535346719365       -2.34860191374000        1.86755321788247
H            0.29943603307946       -1.28902878944046        2.55965817377364
H           -1.61988497629814       -1.41549390635597       -0.73466648629283
H           -5.62921904862446       -0.45987754154197        1.03868007720773
H           -4.84352946957615       -2.01033984478458        1.42001621837824
H           -4.50437974176927       -0.57514771535114        2.41669056884912
H           -3.48892561811935        2.42493607025725       -2.55345607888350
H           -2.12883489375132        2.62682883076973       -1.42336369810509
H           -3.73986982160055        3.13692849321892       -0.92535790298297
H           -0.84247265766977        0.74316688736255       -0.20271324079603

          :  Hamiltonian                  GFN1-xTB          :
         :: total energy             -82.947334850462 Eh    ::
         :: gradient norm              0.000859062174 Eh/a0 ::
         :: HOMO-LUMO gap              0.078396328660 eV    ::
         :: SCC energy               -83.714131932346 Eh    ::
         :: -> Gsolv                  -0.066538484733 Eh    ::
         :: repulsion energy           0.794792827533 Eh    ::

    * Orbital Energies and Occupations

         #    Occupation            Energy/Eh            Energy/eV
      -------------------------------------------------------------
         1        2.0000           -0.8891945             -24.1962
       ...           ...                  ...                  ...
        55        2.0000           -0.5179909             -14.0952
        56        2.0000           -0.5069919             -13.7960
        57        2.0000           -0.5065079             -13.7828
        58        2.0000           -0.4961686             -13.5014
        59        2.0000           -0.4877024             -13.2711
        60        2.0000           -0.4860231             -13.2254
        61        2.0000           -0.4805652             -13.0768
        62        2.0000           -0.4791506             -13.0384
        63        2.0000           -0.4747850             -12.9196
        64        2.0000           -0.4666716             -12.6988
        65        2.0000           -0.4527916             -12.3211
        66        2.0000           -0.4166804             -11.3385
        67        1.6400           -0.4003769             -10.8948 (HOMO)
        68        0.3600           -0.3974959             -10.8164 (LUMO)
        69                         -0.3041990              -8.2777
        70                         -0.2942959              -8.0082
        71                         -0.2815217              -7.6606
        72                         -0.2760822              -7.5126
        73                         -0.2290834              -6.2337
        74                         -0.1490073              -4.0547
        75                         -0.1474247              -4.0116
        76                         -0.1412389              -3.8433
        77                         -0.1356237              -3.6905
        78                         -0.1317426              -3.5849
       ...                                ...                  ...
       134                          0.7391868              20.1143
      -------------------------------------------------------------
                  HL-Gap            0.0028810 Eh            0.0784 eV

Wiberg/Mayer (AO) data.
largest (>0.10) Wiberg bond orders for each atom

     #   Z sym  total        # sym  WBO       # sym  WBO       # sym  WBO
 ---------------------------------------------------------------------------
     1   6 C    3.880 --    28 H    0.986    27 H    0.980    26 H    0.979
                             2 O    0.907
     2   8 O    2.187 --     3 C    1.097     1 C    0.907     4 O    0.127
     3   6 C    3.842 --     4 O    1.621     2 O    1.097     5 C    1.040
     4   8 O    1.869 --     3 C    1.621     2 O    0.127
     5   6 C    3.748 --     6 N    1.254    24 C    1.193     3 C    1.040
     6   7 N    2.996 --     7 C    1.522     5 C    1.254
     7   6 C    3.837 --     6 N    1.522    21 N    1.158     8 C    0.976
     8   6 C    3.918 --    10 C    0.984     9 C    0.978     7 C    0.976
                            11 N    0.908
     9   6 C    3.981 --    31 H    0.984    30 H    0.983    29 H    0.981
                             8 C    0.978
    10   6 C    3.979 --     8 C    0.984    32 H    0.983    33 H    0.982
                            34 H    0.980
    11   7 N    3.363 --    12 C    1.314     8 C    0.908    35 H    0.883
                            13 O    0.176
    12   6 C    3.868 --    13 O    1.653    11 N    1.314    14 C    0.797
    13   8 O    1.996 --    12 C    1.653    11 N    0.176
    14   6 C    3.843 --    16 N    1.067    15 C    0.948    20 O    0.893
                            12 C    0.797
    15   6 C    3.943 --    37 H    0.981    36 H    0.980    38 H    0.976
                            14 C    0.948
    16   7 N    2.734 --    17 N    1.485    14 C    1.067
    17   7 N    2.957 --    16 N    1.485    18 C    1.314
    18   6 C    3.706 --    17 N    1.314    20 O    1.188    19 C    1.063
    19   6 C    3.968 --    18 C    1.063    39 H    0.975    41 H    0.956
                            40 H    0.907
    20   8 O    2.252 --    18 C    1.188    14 C    0.893
    21   7 N    3.432 --     7 C    1.158    22 C    1.130    42 H    0.887
                            23 O    0.118
    22   6 C    3.845 --    23 O    1.609    21 N    1.130    24 C    0.957
    23   8 O    1.890 --    22 C    1.609    21 N    0.118
    24   6 C    3.885 --    25 O    1.585     5 C    1.193    22 C    0.957
    25   8 O    1.789 --    24 C    1.585
    26   1 H    1.008 --     1 C    0.979
    27   1 H    1.009 --     1 C    0.980
    28   1 H    1.012 --     1 C    0.986
    29   1 H    1.005 --     9 C    0.981
    30   1 H    0.998 --     9 C    0.983
    31   1 H    0.998 --     9 C    0.984
    32   1 H    1.000 --    10 C    0.983
    33   1 H    1.005 --    10 C    0.982
    34   1 H    1.011 --    10 C    0.980
    35   1 H    0.943 --    11 N    0.883
    36   1 H    0.994 --    15 C    0.980
    37   1 H    0.996 --    15 C    0.981
    38   1 H    1.001 --    15 C    0.976
    39   1 H    0.993 --    19 C    0.975
    40   1 H    1.000 --    19 C    0.907
    41   1 H    0.985 --    19 C    0.956
    42   1 H    0.943 --    21 N    0.887
 ---------------------------------------------------------------------------

           -------------------------------------------------
          | TOTAL ENERGY              -82.947334850462 Eh   |
          | GRADIENT NORM               0.000859062174 Eh/α |
          | HOMO-LUMO GAP               0.078396328660 eV   |
           -------------------------------------------------

 * finished run on 2023/06/21 at 17:27:48.550
