   * xtb version 6.5.1 (579679a) compiled by 'ehlert@majestix' on 2022-07-11
          program call               : /lustre/hpc/kemi/ree/PhD/git/ReactivityQM/dep/xtb-6.5.1/bin/xtb --gfn 1 /lustre/hpc/kemi/ree/PhD/git/ReactivityQM/calculations/R02methylcation/reac01prodN13/conf02/R02methylcation_reac01prodN13_conf02_gfn1.xyz --opt --vfukui --chrg 0 --uhf 0 --alpb DMSO

   ID    Z sym.   atoms
    1    6 C      1, 3, 5, 7-10, 12, 14, 17-19, 22, 24
    2    8 O      2, 4, 13, 20, 23, 25
    3    7 N      6, 11, 15, 16, 21
    4    1 H      26-42

      * Solvation model:               ALPB
        Solvent                        DMSO
        Solvent mass                       7.8130E+01 g/mol
          :  Hamiltonian                  GFN1-xTB          :
 * total energy  :   -82.9258961 Eh     change       -0.5684342E-13 Eh
 * total energy  :   -82.9357576 Eh     change       -0.9861514E-02 Eh
 * total energy  :   -82.9396475 Eh     change       -0.3889929E-02 Eh
 * total energy  :   -82.9402847 Eh     change       -0.6371644E-03 Eh
 * total energy  :   -82.9407978 Eh     change       -0.5131137E-03 Eh
 * total energy  :   -82.9410952 Eh     change       -0.2973688E-03 Eh
 * total energy  :   -82.9413429 Eh     change       -0.2477206E-03 Eh
 * total energy  :   -82.9415391 Eh     change       -0.1962124E-03 Eh
 * total energy  :   -82.9416776 Eh     change       -0.1385116E-03 Eh
 * total energy  :   -82.9417718 Eh     change       -0.9421983E-04 Eh
 * total energy  :   -82.9425627 Eh     change       -0.9983139E-05 Eh
 * total energy  :   -82.9425731 Eh     change       -0.1039079E-04 Eh
 * total energy  :   -82.9425842 Eh     change       -0.1115894E-04 Eh
 * total energy  :   -82.9425967 Eh     change       -0.1245967E-04 Eh
 * total energy  :   -82.9426070 Eh     change       -0.1034945E-04 Eh
 * total energy  :   -82.9426139 Eh     change       -0.6918959E-05 Eh
 * total energy  :   -82.9426221 Eh     change       -0.8174772E-05 Eh
 * total energy  :   -82.9426284 Eh     change       -0.6248502E-05 Eh
 * total energy  :   -82.9426320 Eh     change       -0.3635339E-05 Eh
   *** GEOMETRY OPTIMIZATION CONVERGED AFTER 38 ITERATIONS ***

 final structure:
================
42
 xtb: 6.5.1 (579679a)
C            6.24192257289928        2.38080545838204       -1.16450490872787
O            5.34556993237168        1.65953721073911       -0.31839002723112
C            4.30855220223476        1.07453660987265       -0.91919221688424
O            4.12329227973963        1.13587434792852       -2.11778553473486
C            3.40488966565294        0.34340017758867        0.00676857220580
N            2.34387385136265       -0.21072392773510       -0.61342001718120
C            1.45427988240525       -0.89573497095261        0.04941088910328
C            0.28150700617621       -1.49936584709004       -0.70459973127283
C            0.24225777615349       -3.02294254058416       -0.53914345835973
C            0.38405010991329       -1.13333959115495       -2.18572340439769
N           -0.96288644310926       -0.89097003281942       -0.20268889855183
C           -1.54791317095191       -1.15903557570770        0.97893202577907
O           -1.11699561900317       -1.90513464661615        1.84768895548503
C           -2.81922931312736       -0.42205432107735        1.16643174609004
N           -3.59415363271177       -0.49569248965193        2.25976095791988
N           -4.60761969056684        0.27123924566988        2.09488902535608
C           -4.52097223108801        0.90385582888891        0.80548304931961
C           -4.42006991708595        2.42286634911501        0.96307026437021
C           -5.70013163598477        0.48526688889137       -0.07551721744002
O           -3.30233143402825        0.39234127022976        0.25492770920254
N            1.55108851334502       -1.08627018536707        1.38590069335539
C            2.55996262057150       -0.56135161247334        2.17379142909447
O            2.56463533067727       -0.75539526098183        3.37390124855145
C            3.61252582219149        0.23618131012514        1.42911208437686
O            4.54663265502693        0.73151497884359        2.05545847538774
H            6.68839748759576        1.70872512071334       -1.90153177150001
H            7.01245705299646        2.80028338793834       -0.52050691720490
H            5.70783450052817        3.17918608309207       -1.68546783689406
H            0.22656613284806       -3.31111950039014        0.50920270219595
H            1.12416901673091       -3.45448045185822       -1.00988439104066
H           -0.64836412975776       -3.41466310880814       -1.02639181381482
H           -0.46996605753371       -1.53680669809096       -2.72539915181016
H            0.40863330792488       -0.05154887800698       -2.30713916337125
H            1.29980263578612       -1.55036434453682       -2.60198828201992
H           -1.43038297703480       -0.24987206348258       -0.82334794445255
H           -3.54012949721089        2.66638451223073        1.55473939527115
H           -4.33796951311251        2.88117904134796       -0.01910658657567
H           -5.31248844241530        2.78715642219512        1.46555175875570
H           -6.62530885333870        0.83048577547903        0.37916433429060
H           -5.71697901087014       -0.59871873478204       -0.16453692708014
H           -5.58531560439916        0.92926946917838       -1.06106785953447
H            0.82630581820190       -1.61450370629254        1.86468974397047

          :  Hamiltonian                  GFN1-xTB          :
         :: total energy             -82.942632002438 Eh    ::
         :: gradient norm              0.000426005608 Eh/a0 ::
         :: HOMO-LUMO gap              0.048676342682 eV    ::
         :: SCC energy               -83.707032110264 Eh    ::
         :: -> Gsolv                  -0.069520045858 Eh    ::
         :: repulsion energy           0.790049501350 Eh    ::

    * Orbital Energies and Occupations

         #    Occupation            Energy/Eh            Energy/eV
      -------------------------------------------------------------
         1        2.0000           -0.8811888             -23.9784
       ...           ...                  ...                  ...
        55        2.0000           -0.5158352             -14.0366
        56        2.0000           -0.5109092             -13.9025
        57        2.0000           -0.5075899             -13.8122
        58        2.0000           -0.5031920             -13.6926
        59        2.0000           -0.4912156             -13.3667
        60        2.0000           -0.4856611             -13.2155
        61        2.0000           -0.4825684             -13.1314
        62        2.0000           -0.4761661             -12.9571
        63        2.0000           -0.4732892             -12.8789
        64        2.0000           -0.4668338             -12.7032
        65        2.0000           -0.4574991             -12.4492
        66        2.0000           -0.4233413             -11.5197
        67        1.4388           -0.4075047             -11.0888 (HOMO)
        68        0.5612           -0.4057159             -11.0401 (LUMO)
        69                         -0.3227977              -8.7838
        70                         -0.3095190              -8.4224
        71                         -0.2848223              -7.7504
        72                         -0.2348644              -6.3910
        73                         -0.2232976              -6.0762
        74                         -0.1571276              -4.2757
        75                         -0.1431484              -3.8953
        76                         -0.1377044              -3.7471
        77                         -0.1341255              -3.6497
        78                         -0.1323482              -3.6014
       ...                                ...                  ...
       134                          0.7466250              20.3167
      -------------------------------------------------------------
                  HL-Gap            0.0017888 Eh            0.0487 eV

Wiberg/Mayer (AO) data.
largest (>0.10) Wiberg bond orders for each atom

     #   Z sym  total        # sym  WBO       # sym  WBO       # sym  WBO
 ---------------------------------------------------------------------------
     1   6 C    3.875 --    27 H    0.986    28 H    0.979    26 H    0.979
                             2 O    0.902
     2   8 O    2.194 --     3 C    1.109     1 C    0.902     4 O    0.132
     3   6 C    3.841 --     4 O    1.634     2 O    1.109     5 C    1.021
     4   8 O    1.879 --     3 C    1.634     2 O    0.132
     5   6 C    3.713 --     6 N    1.305    24 C    1.159     3 C    1.021
     6   7 N    2.983 --     7 C    1.464     5 C    1.305
     7   6 C    3.790 --     6 N    1.464    21 N    1.213     8 C    0.969
     8   6 C    3.925 --    10 C    1.001     9 C    0.983     7 C    0.969
                            11 N    0.909
     9   6 C    3.980 --    30 H    0.984     8 C    0.983    31 H    0.982
                            29 H    0.978
    10   6 C    3.988 --     8 C    1.001    32 H    0.984    33 H    0.982
                            34 H    0.981
    11   7 N    3.340 --    12 C    1.270     8 C    0.909    35 H    0.887
                            13 O    0.187
    12   6 C    3.909 --    13 O    1.552    11 N    1.270    14 C    1.000
    13   8 O    1.892 --    12 C    1.552    11 N    0.187
    14   6 C    3.627 --    15 N    1.316    20 O    1.169    12 C    1.000
    15   7 N    3.000 --    16 N    1.543    14 C    1.316
    16   7 N    2.686 --    15 N    1.543    17 C    1.023
    17   6 C    3.834 --    16 N    1.023    18 C    0.940    19 C    0.939
                            20 O    0.870
    18   6 C    3.938 --    36 H    0.982    38 H    0.982    37 H    0.980
                            17 C    0.940
    19   6 C    3.937 --    40 H    0.982    39 H    0.982    41 H    0.980
                            17 C    0.939
    20   8 O    2.194 --    14 C    1.169    17 C    0.870
    21   7 N    3.431 --     7 C    1.213    22 C    1.112    42 H    0.853
                            23 O    0.110
    22   6 C    3.840 --    23 O    1.650    21 N    1.112    24 C    0.949
    23   8 O    1.867 --    22 C    1.650    21 N    0.110
    24   6 C    3.862 --    25 O    1.616     5 C    1.159    22 C    0.949
    25   8 O    1.791 --    24 C    1.616
    26   1 H    1.007 --     1 C    0.979
    27   1 H    1.011 --     1 C    0.986
    28   1 H    1.007 --     1 C    0.979
    29   1 H    1.007 --     9 C    0.978
    30   1 H    0.999 --     9 C    0.984
    31   1 H    0.998 --     9 C    0.982
    32   1 H    0.998 --    10 C    0.984
    33   1 H    1.005 --    10 C    0.982
    34   1 H    1.005 --    10 C    0.981
    35   1 H    0.930 --    11 N    0.887
    36   1 H    0.996 --    18 C    0.982
    37   1 H    0.996 --    18 C    0.980
    38   1 H    0.997 --    18 C    0.982
    39   1 H    0.997 --    19 C    0.982
    40   1 H    0.996 --    19 C    0.982
    41   1 H    0.996 --    19 C    0.980
    42   1 H    0.932 --    21 N    0.853
 ---------------------------------------------------------------------------

           -------------------------------------------------
          | TOTAL ENERGY              -82.942632002438 Eh   |
          | GRADIENT NORM               0.000426005608 Eh/α |
          | HOMO-LUMO GAP               0.048676342682 eV   |
           -------------------------------------------------

 * finished run on 2023/06/21 at 17:47:00.471
