   * xtb version 6.5.1 (579679a) compiled by 'ehlert@majestix' on 2022-07-11
          program call               : /lustre/hpc/kemi/ree/PhD/git/ReactivityQM/dep/xtb-6.5.1/bin/xtb --gfn 1 /lustre/hpc/kemi/ree/PhD/git/ReactivityQM/calculations/R02oxygendeprot/reac01prodN10/conf19/R02oxygendeprot_reac01prodN10_conf19_gfn1.xyz --opt --vfukui --chrg 0 --uhf 0 --alpb DMSO

   ID    Z sym.   atoms
    1    6 C      1, 3, 5, 6, 8, 11-15, 17, 19, 22, 23
    2    8 O      2, 4, 7, 9, 18, 24
    3    7 N      10, 16, 20, 21, 25
    4    1 H      26-42

      * Solvation model:               ALPB
        Solvent                        DMSO
        Solvent mass                       7.8130E+01 g/mol
          :  Hamiltonian                  GFN1-xTB          :
 * total energy  :   -82.9635366 Eh     change       -0.1672618E-10 Eh
 * total energy  :   -82.9748791 Eh     change       -0.1134253E-01 Eh
 * total energy  :   -82.9798156 Eh     change       -0.4936467E-02 Eh
 * total energy  :   -82.9809356 Eh     change       -0.1120048E-02 Eh
 * total energy  :   -82.9819100 Eh     change       -0.9744105E-03 Eh
 * total energy  :   -82.9826309 Eh     change       -0.7208486E-03 Eh
 * total energy  :   -82.9832376 Eh     change       -0.6066836E-03 Eh
 * total energy  :   -82.9836467 Eh     change       -0.4090841E-03 Eh
 * total energy  :   -82.9838213 Eh     change       -0.1745954E-03 Eh
 * total energy  :   -82.9839046 Eh     change       -0.8331235E-04 Eh
 * total energy  :   -82.9848200 Eh     change       -0.2226753E-04 Eh
 * total energy  :   -82.9848322 Eh     change       -0.1219221E-04 Eh
 * total energy  :   -82.9848588 Eh     change       -0.2660899E-04 Eh
 * total energy  :   -82.9848672 Eh     change       -0.8406402E-05 Eh
 * total energy  :   -82.9848857 Eh     change       -0.1848735E-04 Eh
 * total energy  :   -82.9848951 Eh     change       -0.9407538E-05 Eh
 * total energy  :   -82.9848987 Eh     change       -0.3634810E-05 Eh
 * total energy  :   -82.9849067 Eh     change       -0.8006974E-05 Eh
 * total energy  :   -82.9849110 Eh     change       -0.4305977E-05 Eh
   *** GEOMETRY OPTIMIZATION CONVERGED AFTER 56 ITERATIONS ***

 final structure:
================
42
 xtb: 6.5.1 (579679a)
C           -3.76786028841283       -3.77074952623620        0.20643726930546
O           -3.50256325197598       -2.38039677364511        0.43575779649671
C           -2.61795733542544       -1.80347256173736       -0.35749595111889
O           -2.03720386494566       -2.35528848772582       -1.25740801769094
C           -2.39403231929141       -0.34734379207970        0.00683591339372
C           -3.51774706407016        0.48035948287522        0.52672289299468
O           -4.67940433468264        0.18499407338090        0.40050380452365
C           -3.08114670806045        1.78004785876728        1.20530174032699
O           -3.81703969048206        2.42440806232122        1.92552797877757
N           -1.80781810290980        2.14226010752899        0.94625265505055
C           -0.86607171674997        1.46648076350149        0.07307067793830
C           -0.84818760850081        2.17688025734040       -1.28950312152425
C            0.52875695107221        1.41022389826595        0.79614042696065
C            1.08145997398556        2.79463880349313        1.13543272432825
C            0.37014690611671        0.59306363728644        2.08294136361825
N            1.45288538944704        0.66793018933093       -0.05393555174688
C            2.18561220266295        1.17043305150527       -1.06862057747526
O            2.16608709205223        2.32413811057988       -1.46562925946889
C            3.05074677911012        0.14187623014517       -1.70020138141069
N            3.82266510215237        0.28108281115415       -2.73275371700601
N            4.40657641439110       -0.92964211323393       -2.95423375050477
C            3.95549548309728       -1.73494890684991       -2.04307807315720
C            4.29415121277971       -3.16042211787703       -1.84347135466575
O            3.09143076954576       -1.12007717300255       -1.21860354840416
N           -1.22222883842457        0.11098655691427       -0.19944614442585
H           -4.48806190316930       -4.07677253961790        0.96195254006056
H           -4.17884886689327       -3.91080439911787       -0.79549547033310
H           -2.84349503233342       -4.34317844900894        0.30444671579446
H           -1.52695086886913        3.04085160596326        1.30769860954600
H           -1.86964438720655        2.23487125276374       -1.66136283114649
H           -0.24315874708205        1.61204095658869       -1.99397751722310
H           -0.44583553994037        3.18093485394297       -1.18695982708662
H            0.51118830592181        3.22630652647383        1.95591090127621
H            1.04544978203883        3.47232864310091        0.28610670831195
H            2.11783872011341        2.69330084695355        1.45420286442369
H           -0.35214939361539        1.07173865639557        2.74168975562043
H            0.02360087480308       -0.41357594248048        1.85284639099250
H            1.32763321087677        0.52979091723773        2.59620331088037
H            1.54313597493216       -0.31593764666888        0.14805114245414
H            4.85210021683377       -3.28119218148325       -0.91441257412766
H            3.38290644940591       -3.75299300755072       -1.76677064654424
H            4.89753705171040       -3.51517553550029       -2.67598686801385

          :  Hamiltonian                  GFN1-xTB          :
         :: total energy             -82.984911041386 Eh    ::
         :: gradient norm              0.000848829917 Eh/a0 ::
         :: HOMO-LUMO gap              1.772881855566 eV    ::
         :: SCC energy               -83.765772591266 Eh    ::
         :: -> Gsolv                  -0.057326539633 Eh    ::
         :: repulsion energy           0.808381532529 Eh    ::

    * Orbital Energies and Occupations

         #    Occupation            Energy/Eh            Energy/eV
      -------------------------------------------------------------
         1        2.0000           -0.8676728             -23.6106
       ...           ...                  ...                  ...
        55        2.0000           -0.5083214             -13.8321
        56        2.0000           -0.5071454             -13.8001
        57        2.0000           -0.5051755             -13.7465
        58        2.0000           -0.4995706             -13.5940
        59        2.0000           -0.4952843             -13.4774
        60        2.0000           -0.4819851             -13.1155
        61        2.0000           -0.4795028             -13.0479
        62        2.0000           -0.4713255             -12.8254
        63        2.0000           -0.4678758             -12.7315
        64        2.0000           -0.4603965             -12.5280
        65        2.0000           -0.4540659             -12.3558
        66        2.0000           -0.4489863             -12.2175
        67        2.0000           -0.4368368             -11.8869 (HOMO)
        68                         -0.3716846             -10.1141 (LUMO)
        69                         -0.3156617              -8.5896
        70                         -0.3132071              -8.5228
        71                         -0.2586713              -7.0388
        72                         -0.2528093              -6.8793
        73                         -0.2030972              -5.5266
        74                         -0.2005169              -5.4563
        75                         -0.1434195              -3.9026
        76                         -0.1413311              -3.8458
        77                         -0.1376739              -3.7463
        78                         -0.1356750              -3.6919
       ...                                ...                  ...
       134                          0.7669747              20.8704
      -------------------------------------------------------------
                  HL-Gap            0.0651522 Eh            1.7729 eV

Wiberg/Mayer (AO) data.
largest (>0.10) Wiberg bond orders for each atom

     #   Z sym  total        # sym  WBO       # sym  WBO       # sym  WBO
 ---------------------------------------------------------------------------
     1   6 C    3.859 --    26 H    0.985    28 H    0.979    27 H    0.979
                             2 O    0.885
     2   8 O    2.224 --     3 C    1.147     1 C    0.885     4 O    0.146
     3   6 C    3.852 --     4 O    1.687     2 O    1.147     5 C    0.942
     4   8 O    1.947 --     3 C    1.687     2 O    0.146
     5   6 C    3.954 --    25 N    1.786     6 C    0.998     3 C    0.942
     6   6 C    3.858 --     7 O    1.796     5 C    0.998     8 C    0.909
     7   8 O    2.004 --     6 C    1.796
     8   6 C    3.903 --     9 O    1.631    10 N    1.249     6 C    0.909
     9   8 O    1.924 --     8 C    1.631    10 N    0.186
    10   7 N    3.367 --     8 C    1.249    11 C    0.937    29 H    0.884
                             9 O    0.186
    11   6 C    3.909 --    25 N    1.006    12 C    0.947    10 N    0.937
                            13 C    0.910
    12   6 C    3.981 --    30 H    0.983    31 H    0.981    32 H    0.977
                            11 C    0.947
    13   6 C    3.927 --    14 C    1.000    15 C    0.999    16 N    0.939
                            11 C    0.910
    14   6 C    3.988 --    13 C    1.000    33 H    0.981    35 H    0.980
                            34 H    0.975
    15   6 C    3.990 --    13 C    0.999    38 H    0.983    36 H    0.983
                            37 H    0.981
    16   7 N    3.355 --    17 C    1.255    13 C    0.939    39 H    0.893
                            18 O    0.176
    17   6 C    3.916 --    18 O    1.581    16 N    1.255    19 C    0.993
    18   8 O    1.902 --    17 C    1.581    16 N    0.176
    19   6 C    3.873 --    20 N    1.623    24 O    1.046    17 C    0.993
    20   7 N    3.000 --    19 C    1.623    21 N    1.199
    21   7 N    2.981 --    22 C    1.610    20 N    1.199
    22   6 C    3.868 --    21 N    1.610    24 O    1.072    23 C    1.032
    23   6 C    3.986 --    22 C    1.032    42 H    0.982    41 H    0.966
                            40 H    0.960
    24   8 O    2.316 --    22 C    1.072    19 C    1.046
    25   7 N    3.044 --     5 C    1.786    11 C    1.006
    26   1 H    1.009 --     1 C    0.985
    27   1 H    1.004 --     1 C    0.979
    28   1 H    1.005 --     1 C    0.979
    29   1 H    0.929 --    10 N    0.884
    30   1 H    1.001 --    12 C    0.983
    31   1 H    1.004 --    12 C    0.981
    32   1 H    1.005 --    12 C    0.977
    33   1 H    0.999 --    14 C    0.981
    34   1 H    1.012 --    14 C    0.975
    35   1 H    0.998 --    14 C    0.980
    36   1 H    1.002 --    15 C    0.983
    37   1 H    1.002 --    15 C    0.981
    38   1 H    0.998 --    15 C    0.983
    39   1 H    0.943 --    16 N    0.893
    40   1 H    0.997 --    23 C    0.960
    41   1 H    0.996 --    23 C    0.966
    42   1 H    0.998 --    23 C    0.982
 ---------------------------------------------------------------------------

           -------------------------------------------------
          | TOTAL ENERGY              -82.984911041386 Eh   |
          | GRADIENT NORM               0.000848829917 Eh/α |
          | HOMO-LUMO GAP               1.772881855566 eV   |
           -------------------------------------------------

 * finished run on 2023/06/21 at 17:25:24.173
