   * xtb version 6.5.1 (579679a) compiled by 'ehlert@majestix' on 2022-07-11
          program call               : /lustre/hpc/kemi/ree/PhD/git/ReactivityQM/dep/xtb-6.5.1/bin/xtb --gfn 1 /lustre/hpc/kemi/ree/PhD/git/ReactivityQM/calculations/RaltegravirCLI/reac02prodN10/conf10/RaltegravirCLI_reac02prodN10_conf10_gfn1.xyz --opt --vfukui --chrg 1 --uhf 0 --alpb DMSO

   ID    Z sym.   atoms
    1    6 C      1-5, 7, 9, 11-14, 17, 18, 20, 22-24
    2    7 N      6, 10, 15, 16
    3    8 O      8, 19, 21
    4    9 F      25
    5    1 H      26-47

      * Solvation model:               ALPB
        Solvent                        DMSO
        Solvent mass                       7.8130E+01 g/mol
          :  Hamiltonian                  GFN1-xTB          :
 * total energy  :   -79.4688207 Eh     change       -0.4305889E-11 Eh
 * total energy  :   -79.4775719 Eh     change       -0.8751182E-02 Eh
 * total energy  :   -79.4797845 Eh     change       -0.2212609E-02 Eh
 * total energy  :   -79.4801550 Eh     change       -0.3704712E-03 Eh
 * total energy  :   -79.4804652 Eh     change       -0.3102041E-03 Eh
 * total energy  :   -79.4806225 Eh     change       -0.1573420E-03 Eh
 * total energy  :   -79.4808060 Eh     change       -0.1835150E-03 Eh
 * total energy  :   -79.4809963 Eh     change       -0.1902379E-03 Eh
 * total energy  :   -79.4811890 Eh     change       -0.1927698E-03 Eh
 * total energy  :   -79.4813773 Eh     change       -0.1882973E-03 Eh
 * total energy  :   -79.4848042 Eh     change       -0.1092366E-04 Eh
 * total energy  :   -79.4848225 Eh     change       -0.1834955E-04 Eh
 * total energy  :   -79.4848404 Eh     change       -0.1781359E-04 Eh
 * total energy  :   -79.4848550 Eh     change       -0.1460251E-04 Eh
 * total energy  :   -79.4848692 Eh     change       -0.1423677E-04 Eh
 * total energy  :   -79.4848838 Eh     change       -0.1463950E-04 Eh
 * total energy  :   -79.4848931 Eh     change       -0.9266482E-05 Eh
 * total energy  :   -79.4848993 Eh     change       -0.6154576E-05 Eh
 * total energy  :   -79.4849034 Eh     change       -0.4135970E-05 Eh
   *** GEOMETRY OPTIMIZATION CONVERGED AFTER 59 ITERATIONS ***

 final structure:
================
47
 xtb: 6.5.1 (579679a)
C            4.93830558709230       -1.54231254597218       -1.32426809893767
C            4.53461450930563       -0.04555393513190       -1.24006900529036
C            3.49723736811056        0.21584308150823       -0.22580784638387
C            3.60727592092818        1.21859057004824        0.69842469739843
C            2.53100519184131        1.49159946622980        1.72943533114028
N            1.36989011886394        0.65555044433700        1.53379257615006
C            0.33595094495405        1.09339410940302        0.76980468862212
O            0.26501938630112        2.23728429725970        0.35393800504829
C           -0.71474584572475        0.05903656360197        0.50198041455088
N           -1.98202315524627        0.53107996597504        0.33484720224764
C           -2.97323125939911       -0.26729976003816        0.08065360263029
C           -4.33079843904164        0.40059605247185       -0.10053624054419
C           -4.59832637781890        0.59318205263486       -1.60065891681944
C           -4.31115146071555        1.77495397754942        0.59227553052464
N           -5.38458804225701       -0.41541475302327        0.48313326512233
N           -2.79812563930072       -1.61994867473528       -0.06470098900033
C           -3.89365555570983       -2.55100264672230       -0.35192128830281
C           -1.54881261483716       -2.19785643005221        0.07809416716104
O           -1.35100290614104       -3.40501393014820       -0.03391180527259
C           -0.47142101203426       -1.27450341286605        0.36945953196959
O            0.75847490287390       -1.82948889969471        0.47727482279674
C            4.76821508729551        2.02226082131362        0.71580748173077
C            5.80558103548301        1.84537168328686       -0.19652281966982
C            5.69530405362857        0.84631708883475       -1.12740232191164
F            6.65809549661443        0.64919712884086       -1.99044043719137
H            4.06117078517833       -2.13588940622986       -1.56767430847150
H            5.34150398803767       -1.86254571027001       -0.36666288163588
H            5.69113442793727       -1.66739406741404       -2.09936301611337
H            4.07420863731706        0.16822609963742       -2.22256087637806
H            2.62952094941863       -0.43541338205984       -0.24087299041803
H            2.21958852823654        2.53921092289251        1.65417963200651
H            2.93626885131150        1.31697937073121        2.72921549407709
H            1.43862338406391       -0.30847261415056        1.80985295353537
H           -3.77866344220084        1.14992437954197       -2.05349061770865
H           -5.52281566478893        1.15261405865050       -1.73684410605136
H           -4.69423105315543       -0.36442248823003       -2.10888581088804
H           -5.29623362090040        2.23116534096962        0.51342149221410
H           -4.05545680630789        1.65971291188847        1.64426933179328
H           -3.57527163383695        2.42495800563892        0.12086071706138
H           -6.29084808058235       -0.07284514826819        0.19960363851593
H           -5.32893575719878       -0.39590915768866        1.49188096577278
H           -4.45647725914596       -2.74313268713839        0.56002427066841
H           -4.55562824514804       -2.13329717187375       -1.10348857660785
H           -3.45894833050474       -3.48053645591762       -0.71847770351660
H            0.66310894035899       -2.79521352787529        0.35812317875785
H            4.86138551894550        2.79661296343723        1.46946958796907
H            6.68990858787997        2.46980244882980       -0.16385092235024

          :  Hamiltonian                  GFN1-xTB          :
         :: total energy             -79.484903391334 Eh    ::
         :: gradient norm              0.000378953113 Eh/a0 ::
         :: HOMO-LUMO gap              0.163974064321 eV    ::
         :: SCC energy               -80.368050408042 Eh    ::
         :: -> Gsolv                  -0.105415250121 Eh    ::
         :: repulsion energy           0.913282266047 Eh    ::

    * Orbital Energies and Occupations

         #    Occupation            Energy/Eh            Energy/eV
      -------------------------------------------------------------
         1        2.0000           -0.9441686             -25.6921
       ...           ...                  ...                  ...
        55        2.0000           -0.5198910             -14.1470
        56        2.0000           -0.5155409             -14.0286
        57        2.0000           -0.5089159             -13.8483
        58        2.0000           -0.5009403             -13.6313
        59        2.0000           -0.4999949             -13.6056
        60        2.0000           -0.4927058             -13.4072
        61        2.0000           -0.4788362             -13.0298
        62        2.0000           -0.4733053             -12.8793
        63        2.0000           -0.4609001             -12.5417
        64        2.0000           -0.4566037             -12.4248
        65        2.0000           -0.4435229             -12.0689
        66        1.9999           -0.4294023             -11.6846
        67        1.9195           -0.4223926             -11.4939 (HOMO)
        68        0.0805           -0.4163667             -11.3299 (LUMO)
        69                         -0.3253922              -8.8544
        70                         -0.3184240              -8.6648
        71                         -0.2824561              -7.6860
        72                         -0.2470816              -6.7234
        73                         -0.2427625              -6.6059
        74                         -0.1629790              -4.4349
        75                         -0.1574914              -4.2856
        76                         -0.1520682              -4.1380
        77                         -0.1477744              -4.0211
        78                         -0.1375587              -3.7432
       ...                                ...                  ...
       144                          0.7082745              19.2731
      -------------------------------------------------------------
                  HL-Gap            0.0060259 Eh            0.1640 eV

Wiberg/Mayer (AO) data.
largest (>0.10) Wiberg bond orders for each atom

     #   Z sym  total        # sym  WBO       # sym  WBO       # sym  WBO
 ---------------------------------------------------------------------------
     1   6 C    3.957 --    27 H    0.984    26 H    0.983    28 H    0.982
                             2 C    0.910
     2   6 C    3.986 --     3 C    1.081    24 C    1.066     1 C    0.910
                            29 H    0.846
     3   6 C    3.921 --     4 C    1.562     2 C    1.081    30 H    0.956
     4   6 C    3.982 --     3 C    1.562    22 C    1.306     5 C    0.995
     5   6 C    3.953 --     4 C    0.995     6 N    0.969    32 H    0.958
                            31 H    0.954
     6   7 N    3.322 --     7 C    1.226     5 C    0.969    33 H    0.889
                             8 O    0.164
     7   6 C    3.899 --     8 O    1.609     6 N    1.226     9 C    0.984
     8   8 O    1.897 --     7 C    1.609     6 N    0.164
     9   6 C    3.966 --    20 C    1.512    10 N    1.204     7 C    0.984
    10   7 N    3.027 --    11 C    1.554     9 C    1.204
    11   6 C    3.921 --    10 N    1.554    16 N    1.181    12 C    0.975
    12   6 C    3.956 --    15 N    0.984    14 C    0.981    13 C    0.981
                            11 C    0.975
    13   6 C    3.992 --    34 H    0.985    35 H    0.982    12 C    0.981
                            36 H    0.979
    14   6 C    3.980 --    37 H    0.986    38 H    0.985    12 C    0.981
                            39 H    0.981
    15   7 N    2.947 --    12 C    0.984    41 H    0.933    40 H    0.930
    16   7 N    3.517 --    11 C    1.181    18 C    1.131    17 C    0.925
                            19 O    0.133
    17   6 C    3.917 --    43 H    0.977    44 H    0.975    42 H    0.975
                            16 N    0.925
    18   6 C    3.917 --    19 O    1.544    16 N    1.131    20 C    1.093
    19   8 O    1.893 --    18 C    1.544    16 N    0.133
    20   6 C    3.913 --     9 C    1.512    18 C    1.093    21 O    1.061
    21   8 O    2.059 --    20 C    1.061    45 H    0.800
    22   6 C    3.901 --    23 C    1.404     4 C    1.306    46 H    0.965
    23   6 C    3.981 --    24 C    1.468    22 C    1.404    47 H    0.956
    24   6 C    3.806 --    23 C    1.468     2 C    1.066    25 F    1.028
    25   9 F    1.190 --    24 C    1.028
    26   1 H    0.993 --     1 C    0.983
    27   1 H    0.994 --     1 C    0.984
    28   1 H    0.996 --     1 C    0.982
    29   1 H    0.971 --     2 C    0.846
    30   1 H    1.007 --     3 C    0.956
    31   1 H    1.006 --     5 C    0.954
    32   1 H    0.997 --     5 C    0.958
    33   1 H    0.937 --     6 N    0.889
    34   1 H    1.003 --    13 C    0.985
    35   1 H    0.999 --    13 C    0.982
    36   1 H    1.003 --    13 C    0.979
    37   1 H    1.002 --    14 C    0.986
    38   1 H    1.006 --    14 C    0.985
    39   1 H    1.011 --    14 C    0.981
    40   1 H    0.946 --    15 N    0.930
    41   1 H    0.950 --    15 N    0.933
    42   1 H    1.014 --    17 C    0.975
    43   1 H    1.018 --    17 C    0.977
    44   1 H    1.007 --    17 C    0.975
    45   1 H    0.844 --    21 O    0.800
    46   1 H    0.989 --    22 C    0.965
    47   1 H    0.985 --    23 C    0.956
 ---------------------------------------------------------------------------

           -------------------------------------------------
          | TOTAL ENERGY              -79.484903391334 Eh   |
          | GRADIENT NORM               0.000378953113 Eh/α |
          | HOMO-LUMO GAP               0.163974064321 eV   |
           -------------------------------------------------

 * finished run on 2023/06/20 at 15:30:13.426
