   * xtb version 6.5.1 (579679a) compiled by 'ehlert@majestix' on 2022-07-11
          program call               : /lustre/hpc/kemi/ree/PhD/git/ReactivityQM/dep/xtb-6.5.1/bin/xtb --gfn 1 /lustre/hpc/kemi/ree/PhD/git/ReactivityQM/calculations/R02methylcation/reac01prodN04/conf04/R02methylcation_reac01prodN04_conf04_gfn1.xyz --opt --vfukui --chrg 0 --uhf 0 --alpb DMSO

   ID    Z sym.   atoms
    1    6 C      1, 3, 5, 6, 8-11, 13, 15, 18, 19, 22, 24
    2    8 O      2, 4, 14, 20, 23, 25
    3    7 N      7, 12, 16, 17, 21
    4    1 H      26-42

      * Solvation model:               ALPB
        Solvent                        DMSO
        Solvent mass                       7.8130E+01 g/mol
          :  Hamiltonian                  GFN1-xTB          :
 * total energy  :   -82.9726168 Eh     change       -0.1071498E-10 Eh
 * total energy  :   -82.9886674 Eh     change       -0.1605058E-01 Eh
 * total energy  :   -82.9942399 Eh     change       -0.5572494E-02 Eh
 * total energy  :   -82.9958023 Eh     change       -0.1562457E-02 Eh
 * total energy  :   -82.9968872 Eh     change       -0.1084840E-02 Eh
 * total energy  :   -82.9975862 Eh     change       -0.6990832E-03 Eh
 * total energy  :   -82.9981482 Eh     change       -0.5619298E-03 Eh
 * total energy  :   -82.9985942 Eh     change       -0.4459891E-03 Eh
 * total energy  :   -82.9988534 Eh     change       -0.2592116E-03 Eh
 * total energy  :   -82.9989878 Eh     change       -0.1344206E-03 Eh
 * total energy  :   -83.0005252 Eh     change       -0.3498876E-04 Eh
 * total energy  :   -83.0005538 Eh     change       -0.2855654E-04 Eh
 * total energy  :   -83.0005970 Eh     change       -0.4322829E-04 Eh
 * total energy  :   -83.0006096 Eh     change       -0.1256443E-04 Eh
 * total energy  :   -83.0006271 Eh     change       -0.1749271E-04 Eh
 * total energy  :   -83.0006395 Eh     change       -0.1240719E-04 Eh
 * total energy  :   -83.0006455 Eh     change       -0.6054071E-05 Eh
 * total energy  :   -83.0006544 Eh     change       -0.8892279E-05 Eh
 * total energy  :   -83.0006592 Eh     change       -0.4739894E-05 Eh
   *** GEOMETRY OPTIMIZATION CONVERGED AFTER 41 ITERATIONS ***

 final structure:
================
42
 xtb: 6.5.1 (579679a)
C           -6.10232509364318        0.39848716182573        1.31616250699678
O           -4.75459107576791        0.87238310951608        1.30931193052437
C           -3.86678146003291        0.28995174959088        0.52952521315138
O           -4.36061184912684       -0.72211098042367       -0.16411111707683
C           -3.64703906254819       -1.49204260596538       -1.12983060144209
C           -2.55776048160361        0.77941431104830        0.50743549964648
N           -1.63787951007396        0.10958731759023       -0.29705043007483
C           -0.42774495313867        0.51397630791057       -0.36825641806876
C            0.58371807606271       -0.18194587237886       -1.25537056882438
C            0.76692415249115        0.63515213098830       -2.53806342233786
C            0.14631464823325       -1.61278356252193       -1.57680866653474
N            1.87038611181242       -0.20541972467234       -0.55589816746102
C            1.99054540493402       -0.73949013053602        0.68010422641267
O            1.05699685688825       -1.13090095715351        1.35980636235150
C            3.39345992853781       -0.76534998314050        1.16043510151585
N            3.83654260888704       -1.19284566837728        2.30154271312101
N            5.18631573586651       -1.00344334129935        2.29511375779674
C            5.48376500106804       -0.47158169064084        1.15038418969884
C            6.81724406490036       -0.07011799822492        0.65314480712377
O            4.39430582118281       -0.29457921462199        0.38512941312513
N            0.02906988333619        1.62898496336911        0.29715981760897
C           -0.73631654082682        2.38994241431206        1.13685089351865
O           -0.27193434202219        3.36424481267255        1.70173781521840
C           -2.17839048109964        1.92945016681784        1.29603426476948
O           -2.91887087351257        2.54800737143175        2.05273234853758
H           -6.53602889576960        0.47636875555100        0.31751978950303
H           -6.64354161003362        1.03564544529298        2.01354655658485
H           -6.13748415871072       -0.64125830128843        1.64747416307679
H           -3.24660369225834       -0.84944953841114       -1.91482097002351
H           -2.83280313344654       -2.04393964214898       -0.65831126918681
H           -4.37582448245740       -2.18583733972089       -1.54880996215891
H           -0.18573086746562        0.71878160896436       -3.05850127089043
H            1.12992738352293        1.63373866318446       -2.30079738210572
H            1.48422687559378        0.14338494939076       -3.19215572210786
H           -0.75249819781353       -1.59015671815630       -2.18957277095148
H            0.93662416358899       -2.12210206225656       -2.12429812839739
H           -0.06374271010821       -2.15791238570445       -0.65721888766718
H            2.69886101806608       -0.00276128196884       -1.08754540486296
H            6.82041235748972        0.99529719487292        0.42246475580969
H            7.57135266542912       -0.28434235873086        1.40713225815655
H            7.04937614094064       -0.61216178139211       -0.26307520112136
H            0.98813657262950        1.90973670540347        0.16171597704684

          :  Hamiltonian                  GFN1-xTB          :
         :: total energy             -83.000659166381 Eh    ::
         :: gradient norm              0.000924570751 Eh/a0 ::
         :: HOMO-LUMO gap              2.367943016200 eV    ::
         :: SCC energy               -83.781100972183 Eh    ::
         :: -> Gsolv                  -0.073945436234 Eh    ::
         :: repulsion energy           0.806891933917 Eh    ::

    * Orbital Energies and Occupations

         #    Occupation            Energy/Eh            Energy/eV
      -------------------------------------------------------------
         1        2.0000           -0.8649012             -23.5352
       ...           ...                  ...                  ...
        55        2.0000           -0.5062796             -13.7766
        56        2.0000           -0.5045799             -13.7303
        57        2.0000           -0.4991796             -13.5834
        58        2.0000           -0.4929358             -13.4135
        59        2.0000           -0.4799520             -13.0602
        60        2.0000           -0.4756185             -12.9422
        61        2.0000           -0.4672718             -12.7151
        62        2.0000           -0.4612745             -12.5519
        63        2.0000           -0.4531005             -12.3295
        64        2.0000           -0.4517444             -12.2926
        65        2.0000           -0.4447515             -12.1023
        66        2.0000           -0.4183316             -11.3834
        67        2.0000           -0.4119862             -11.2107 (HOMO)
        68                         -0.3249659              -8.8428 (LUMO)
        69                         -0.3110579              -8.4643
        70                         -0.2702770              -7.3546
        71                         -0.2561274              -6.9696
        72                         -0.2454776              -6.6798
        73                         -0.1983774              -5.3981
        74                         -0.1535884              -4.1794
        75                         -0.1512587              -4.1160
        76                         -0.1426123              -3.8807
        77                         -0.1409018              -3.8341
        78                         -0.1319048              -3.5893
       ...                                ...                  ...
       134                          0.7555630              20.5599
      -------------------------------------------------------------
                  HL-Gap            0.0870203 Eh            2.3679 eV

Wiberg/Mayer (AO) data.
largest (>0.10) Wiberg bond orders for each atom

     #   Z sym  total        # sym  WBO       # sym  WBO       # sym  WBO
 ---------------------------------------------------------------------------
     1   6 C    3.863 --    27 H    0.984    28 H    0.978    26 H    0.978
                             2 O    0.890
     2   8 O    2.236 --     3 C    1.150     1 C    0.890
     3   6 C    3.833 --     6 C    1.339     2 O    1.150     4 O    1.129
     4   8 O    2.221 --     3 C    1.129     5 C    0.883
     5   6 C    3.854 --    31 H    0.981    29 H    0.977    30 H    0.976
                             4 O    0.883
     6   6 C    3.924 --     3 C    1.339    24 C    1.163     7 N    1.106
     7   7 N    3.044 --     8 C    1.655     6 C    1.106
     8   6 C    3.931 --     7 N    1.655    21 N    1.106     9 C    0.976
     9   6 C    3.937 --    11 C    0.990    10 C    0.985     8 C    0.976
                            12 N    0.925
    10   6 C    3.988 --     9 C    0.985    32 H    0.984    33 H    0.984
                            34 H    0.982
    11   6 C    3.989 --     9 C    0.990    36 H    0.985    35 H    0.983
                            37 H    0.981
    12   7 N    3.341 --    13 C    1.248     9 C    0.925    38 H    0.891
                            14 O    0.175
    13   6 C    3.917 --    14 O    1.590    12 N    1.248    15 C    0.994
    14   8 O    1.892 --    13 C    1.590    12 N    0.175
    15   6 C    3.873 --    16 N    1.622    20 O    1.047    13 C    0.994
    16   7 N    3.000 --    15 C    1.622    17 N    1.199
    17   7 N    2.981 --    18 C    1.610    16 N    1.199
    18   6 C    3.868 --    17 N    1.610    20 O    1.073    19 C    1.032
    19   6 C    3.986 --    18 C    1.032    40 H    0.983    39 H    0.963
                            41 H    0.963
    20   8 O    2.317 --    18 C    1.073    15 C    1.047
    21   7 N    3.440 --    22 C    1.166     8 C    1.106    42 H    0.886
                            23 O    0.139
    22   6 C    3.884 --    23 O    1.631    21 N    1.166    24 C    0.940
    23   8 O    1.909 --    22 C    1.631    21 N    0.139
    24   6 C    3.919 --    25 O    1.631     6 C    1.163    22 C    0.940
    25   8 O    1.916 --    24 C    1.631
    26   1 H    1.005 --     1 C    0.978
    27   1 H    1.009 --     1 C    0.984
    28   1 H    1.006 --     1 C    0.978
    29   1 H    1.019 --     5 C    0.977
    30   1 H    1.021 --     5 C    0.976
    31   1 H    1.008 --     5 C    0.981
    32   1 H    1.001 --    10 C    0.984
    33   1 H    0.998 --    10 C    0.984
    34   1 H    0.996 --    10 C    0.982
    35   1 H    1.006 --    11 C    0.983
    36   1 H    1.001 --    11 C    0.985
    37   1 H    1.010 --    11 C    0.981
    38   1 H    0.932 --    12 N    0.891
    39   1 H    0.996 --    19 C    0.963
    40   1 H    0.998 --    19 C    0.983
    41   1 H    0.996 --    19 C    0.963
    42   1 H    0.937 --    21 N    0.886
 ---------------------------------------------------------------------------

           -------------------------------------------------
          | TOTAL ENERGY              -83.000659166381 Eh   |
          | GRADIENT NORM               0.000924570751 Eh/α |
          | HOMO-LUMO GAP               2.367943016200 eV   |
           -------------------------------------------------

 * finished run on 2023/06/21 at 17:34:05.593
