   * xtb version 6.5.1 (579679a) compiled by 'ehlert@majestix' on 2022-07-11
          program call               : /lustre/hpc/kemi/ree/PhD/git/ReactivityQM/dep/xtb-6.5.1/bin/xtb --gfn 1 /lustre/hpc/kemi/ree/PhD/git/ReactivityQM/calculations/R02oxygendeprot/reac01prodN04/conf20/R02oxygendeprot_reac01prodN04_conf20_gfn1.xyz --opt --vfukui --chrg 0 --uhf 0 --alpb DMSO

   ID    Z sym.   atoms
    1    6 C      1, 3, 5, 6, 8-11, 13, 15, 18, 19, 22, 24
    2    8 O      2, 4, 14, 20, 23, 25
    3    7 N      7, 12, 16, 17, 21
    4    1 H      26-42

      * Solvation model:               ALPB
        Solvent                        DMSO
        Solvent mass                       7.8130E+01 g/mol
          :  Hamiltonian                  GFN1-xTB          :
 * total energy  :   -82.9678036 Eh     change       -0.8299139E-11 Eh
 * total energy  :   -82.9849838 Eh     change       -0.1718021E-01 Eh
 * total energy  :   -82.9908696 Eh     change       -0.5885805E-02 Eh
 * total energy  :   -82.9921928 Eh     change       -0.1323170E-02 Eh
 * total energy  :   -82.9927168 Eh     change       -0.5240251E-03 Eh
 * total energy  :   -82.9928994 Eh     change       -0.1825470E-03 Eh
 * total energy  :   -82.9930291 Eh     change       -0.1297538E-03 Eh
 * total energy  :   -82.9931126 Eh     change       -0.8344917E-04 Eh
 * total energy  :   -82.9931679 Eh     change       -0.5529259E-04 Eh
 * total energy  :   -82.9932055 Eh     change       -0.3766789E-04 Eh
 * total energy  :   -82.9935533 Eh     change       -0.1228746E-04 Eh
 * total energy  :   -82.9935743 Eh     change       -0.2095501E-04 Eh
 * total energy  :   -82.9935824 Eh     change       -0.8088578E-05 Eh
 * total energy  :   -82.9935887 Eh     change       -0.6310654E-05 Eh
 * total energy  :   -82.9935959 Eh     change       -0.7233053E-05 Eh
 * total energy  :   -82.9936027 Eh     change       -0.6779618E-05 Eh
 * total energy  :   -82.9936066 Eh     change       -0.3955017E-05 Eh
 * total energy  :   -82.9936119 Eh     change       -0.5232734E-05 Eh
 * total energy  :   -82.9936160 Eh     change       -0.4149249E-05 Eh
   *** GEOMETRY OPTIMIZATION CONVERGED AFTER 34 ITERATIONS ***

 final structure:
================
42
 xtb: 6.5.1 (579679a)
C           -3.42314248541097        1.57096950751536        1.61234413959011
O           -4.32027463284292        1.16941144107318        0.57813443003419
C           -4.04040694593545        0.32099833396170       -0.39562472724282
O           -5.04576843023616        0.12108801070554       -1.22128333095820
C           -6.28093814285781        0.80809523299922       -1.00707274133199
C           -2.83642798562714       -0.35470041064326       -0.62099909746675
N           -1.79390028066280       -0.12319499030773        0.27305076525431
C           -0.66794284557429       -0.71054364970594        0.12522297227708
C            0.46258692460587       -0.50380846062093        1.11145165408792
C            0.21931737417026        0.73813193550226        1.97107741385284
C            0.57499552358838       -1.76303417991281        1.98382166172016
N            1.68762157927895       -0.32448732114627        0.32199201895846
C            2.91209808440545       -0.17950844801495        0.87884210516164
O            3.17822519686910       -0.31091542681650        2.05893318709609
C            3.92390808413433        0.14826177525693       -0.15860681493362
N            3.69744740129124        0.30707316176696       -1.42815003554270
N            4.89429117613658        0.60520309757482       -2.00643833826036
C            5.77490499916929        0.61166104984902       -1.05158502187928
C            7.22332665753208        0.89267306738389       -1.15936810714972
O            5.22323682146109        0.33024713165164        0.13795124702833
N           -0.42041612413801       -1.60189223497812       -0.89583212621287
C           -1.33299358496939       -1.93834033698103       -1.86079251871686
O           -1.05233798360694       -2.73476032287219       -2.73708763325676
C           -2.68601898957687       -1.25223131385806       -1.74339157136299
O           -3.54688947913932       -1.49436174221981       -2.58140525284712
H           -3.11071817796330        0.71056285461242        2.20569705003121
H           -3.98444701028114        2.27032787180014        2.23213007526754
H           -2.54610283111849        2.06382425239519        1.19079023917583
H           -6.12745509829415        1.88758292949012       -1.06304270519637
H           -6.69441975648911        0.54884809332228       -0.03047585545277
H           -6.94997260535352        0.47948133661365       -1.80053469810620
H            0.11659662026804        1.61776851801851        1.33794091373757
H           -0.69454925010333        0.60647709638097        2.54671607114831
H            1.05179612024422        0.88425196431494        2.65699069925299
H            1.33374966143261       -1.62545065956301        2.75144996117135
H            0.84043554053381       -2.62194918733010        1.36955897844014
H           -0.38422520045051       -1.95125791654892        2.46379075394335
H            1.58588982205820       -0.04953363649047       -0.64424631807015
H            7.46014916888656        1.82047614163087       -0.63707467865620
H            7.79528067379423        0.08932412111630       -0.69526147825230
H            7.50147737046096        0.98678711485158       -2.20657202341853
H            0.48201404030736       -2.04955580177677       -0.94652626291636

          :  Hamiltonian                  GFN1-xTB          :
         :: total energy             -82.993616012704 Eh    ::
         :: gradient norm              0.000843586874 Eh/a0 ::
         :: HOMO-LUMO gap              2.392804295491 eV    ::
         :: SCC energy               -83.772990419578 Eh    ::
         :: -> Gsolv                  -0.060706492025 Eh    ::
         :: repulsion energy           0.805199478771 Eh    ::

    * Orbital Energies and Occupations

         #    Occupation            Energy/Eh            Energy/eV
      -------------------------------------------------------------
         1        2.0000           -0.8634792             -23.4965
       ...           ...                  ...                  ...
        55        2.0000           -0.5056963             -13.7607
        56        2.0000           -0.5046841             -13.7332
        57        2.0000           -0.5006762             -13.6241
        58        2.0000           -0.4958522             -13.4928
        59        2.0000           -0.4825148             -13.1299
        60        2.0000           -0.4789830             -13.0338
        61        2.0000           -0.4659174             -12.6783
        62        2.0000           -0.4611577             -12.5487
        63        2.0000           -0.4537658             -12.3476
        64        2.0000           -0.4508064             -12.2671
        65        2.0000           -0.4473859             -12.1740
        66        2.0000           -0.4210138             -11.4564
        67        2.0000           -0.4151292             -11.2962 (HOMO)
        68                         -0.3271953              -8.9034 (LUMO)
        69                         -0.3112486              -8.4695
        70                         -0.2748449              -7.4789
        71                         -0.2567468              -6.9864
        72                         -0.2482212              -6.7544
        73                         -0.1992378              -5.4215
        74                         -0.1559807              -4.2445
        75                         -0.1522303              -4.1424
        76                         -0.1431325              -3.8948
        77                         -0.1417931              -3.8584
        78                         -0.1253529              -3.4110
       ...                                ...                  ...
       134                          0.7554679              20.5573
      -------------------------------------------------------------
                  HL-Gap            0.0879339 Eh            2.3928 eV

Wiberg/Mayer (AO) data.
largest (>0.10) Wiberg bond orders for each atom

     #   Z sym  total        # sym  WBO       # sym  WBO       # sym  WBO
 ---------------------------------------------------------------------------
     1   6 C    3.853 --    27 H    0.981    28 H    0.976    26 H    0.976
                             2 O    0.882
     2   8 O    2.224 --     3 C    1.133     1 C    0.882
     3   6 C    3.833 --     6 C    1.333     4 O    1.154     2 O    1.133
     4   8 O    2.239 --     3 C    1.154     5 C    0.888
     5   6 C    3.861 --    31 H    0.984    30 H    0.978    29 H    0.978
                             4 O    0.888
     6   6 C    3.922 --     3 C    1.333    24 C    1.164     7 N    1.107
     7   7 N    3.044 --     8 C    1.656     6 C    1.107
     8   6 C    3.932 --     7 N    1.656    21 N    1.104     9 C    0.979
     9   6 C    3.934 --    10 C    0.992     8 C    0.979    11 C    0.979
                            12 N    0.920
    10   6 C    3.990 --     9 C    0.992    32 H    0.984    33 H    0.982
                            34 H    0.981
    11   6 C    3.986 --    37 H    0.985    36 H    0.984     9 C    0.979
                            35 H    0.978
    12   7 N    3.331 --    13 C    1.241     9 C    0.920    38 H    0.895
                            14 O    0.174
    13   6 C    3.916 --    14 O    1.602    12 N    1.241    15 C    0.989
    14   8 O    1.918 --    13 C    1.602    12 N    0.174
    15   6 C    3.875 --    16 N    1.610    20 O    1.065    13 C    0.989
    16   7 N    3.017 --    15 C    1.610    17 N    1.201
    17   7 N    2.981 --    18 C    1.604    16 N    1.201
    18   6 C    3.871 --    17 N    1.604    20 O    1.083    19 C    1.031
    19   6 C    3.986 --    18 C    1.031    41 H    0.982    40 H    0.966
                            39 H    0.961
    20   8 O    2.331 --    18 C    1.083    15 C    1.065
    21   7 N    3.435 --    22 C    1.159     8 C    1.104    42 H    0.886
                            23 O    0.138
    22   6 C    3.882 --    23 O    1.637    21 N    1.159    24 C    0.940
    23   8 O    1.915 --    22 C    1.637    21 N    0.138
    24   6 C    3.920 --    25 O    1.634     6 C    1.164    22 C    0.940
    25   8 O    1.920 --    24 C    1.634
    26   1 H    1.020 --     1 C    0.976
    27   1 H    1.008 --     1 C    0.981
    28   1 H    1.020 --     1 C    0.976
    29   1 H    1.005 --     5 C    0.978
    30   1 H    1.005 --     5 C    0.978
    31   1 H    1.008 --     5 C    0.984
    32   1 H    1.004 --    10 C    0.984
    33   1 H    1.007 --    10 C    0.982
    34   1 H    1.005 --    10 C    0.981
    35   1 H    1.010 --    11 C    0.978
    36   1 H    1.001 --    11 C    0.984
    37   1 H    1.002 --    11 C    0.985
    38   1 H    0.952 --    12 N    0.895
    39   1 H    0.997 --    19 C    0.961
    40   1 H    0.997 --    19 C    0.966
    41   1 H    0.998 --    19 C    0.982
    42   1 H    0.934 --    21 N    0.886
 ---------------------------------------------------------------------------

           -------------------------------------------------
          | TOTAL ENERGY              -82.993616012704 Eh   |
          | GRADIENT NORM               0.000843586874 Eh/α |
          | HOMO-LUMO GAP               2.392804295491 eV   |
           -------------------------------------------------

 * finished run on 2023/06/21 at 17:20:19.280
