                         Program Version 5.0.1 -  RELEASE  -
|  1> # ORCA input file
|  2> ! SP r2SCAN-3c CPCM
|  3>
|  4> %maxcore 1875.0
|  5> %pal nprocs 4 end
|  6> %cpcm smd true SMDsolvent "DMSO" end
|  7>
|  8> *xyz -1 1
|  9> C      -3.080187   -0.050025    0.523674
| 10> O      -2.387323    0.450006    1.668079
| 11> C      -1.131388    0.982696    1.468290
| 12> Cl     -1.212336    2.670903    0.745494
| 13> C      -0.148510    0.164530    0.891810
| 14> N      -0.089006   -1.166395    0.989385
| 15> N       1.179232   -1.529538    0.571294
| 16> C       1.803130   -0.450689    0.257738
| 17> C       3.194526   -0.322894   -0.249299
| 18> O       1.043828    0.669954    0.433749
| 19> H      -4.066540   -0.378067    0.857527
| 20> H      -2.545109   -0.901338    0.081635
| 21> H      -3.198896    0.731947   -0.236527
| 22> H       3.200300    0.107884   -1.251494
| 23> H       3.657612   -1.306734   -0.282570
| 24> H       3.780667    0.327759    0.400660
| 25> **                         ****END OF INPUT****

CARTESIAN COORDINATES (ANGSTROEM)
---------------------------------
  C     -3.080187   -0.050025    0.523674
  O     -2.387323    0.450006    1.668079
  C     -1.131388    0.982696    1.468290
  Cl    -1.212336    2.670903    0.745494
  C     -0.148510    0.164530    0.891810
  N     -0.089006   -1.166395    0.989385
  N      1.179232   -1.529538    0.571294
  C      1.803130   -0.450689    0.257738
  C      3.194526   -0.322894   -0.249299
  O      1.043828    0.669954    0.433749
  H     -4.066540   -0.378067    0.857527
  H     -2.545109   -0.901338    0.081635
  H     -3.198896    0.731947   -0.236527
  H      3.200300    0.107884   -1.251494
  H      3.657612   -1.306734   -0.282570
  H      3.780667    0.327759    0.400660

 Total Charge           Charge          ....   -1
 Multiplicity           Mult            ....    1
 Number of Electrons    NEL             ....   84
 Basis Dimension        Dim             ....  248

ORBITAL ENERGIES
----------------

  NO   OCC          E(Eh)            E(eV)
   0   2.0000    -101.175987     -2753.1386
   1   2.0000     -19.006545      -517.1944
   2   2.0000     -18.954484      -515.7777
   3   2.0000     -14.159334      -385.2951
   4   2.0000     -14.135798      -384.6546
   5   2.0000     -10.098365      -274.7905
   6   2.0000     -10.091928      -274.6153
   7   2.0000     -10.068648      -273.9818
   8   2.0000     -10.052332      -273.5379
   9   2.0000     -10.029287      -272.9108
  10   2.0000      -9.331670      -253.9276
  11   2.0000      -7.077417      -192.5863
  12   2.0000      -7.068227      -192.3362
  13   2.0000      -7.067779      -192.3240
  14   2.0000      -1.086999       -29.5788
  15   2.0000      -0.993650       -27.0386
  16   2.0000      -0.914626       -24.8882
  17   2.0000      -0.790422       -21.5085
  18   2.0000      -0.758787       -20.6476
  19   2.0000      -0.686284       -18.6747
  20   2.0000      -0.655046       -17.8247
  21   2.0000      -0.613872       -16.7043
  22   2.0000      -0.555404       -15.1133
  23   2.0000      -0.517882       -14.0923
  24   2.0000      -0.461145       -12.5484
  25   2.0000      -0.441704       -12.0194
  26   2.0000      -0.420474       -11.4417
  27   2.0000      -0.407294       -11.0830
  28   2.0000      -0.401193       -10.9170
  29   2.0000      -0.372271       -10.1300
  30   2.0000      -0.368925       -10.0389
  31   2.0000      -0.365488        -9.9454
  32   2.0000      -0.351966        -9.5775
  33   2.0000      -0.303013        -8.2454
  34   2.0000      -0.293347        -7.9824
  35   2.0000      -0.278176        -7.5695
  36   2.0000      -0.274414        -7.4672
  37   2.0000      -0.256364        -6.9760
  38   2.0000      -0.233498        -6.3538
  39   2.0000      -0.225814        -6.1447
  40   2.0000      -0.225019        -6.1231
  41   2.0000      -0.122394        -3.3305
  42   0.0000      -0.002998        -0.0816
  43   0.0000       0.023430         0.6376
  44   0.0000       0.049757         1.3540
  45   0.0000       0.079652         2.1674
  46   0.0000       0.110669         3.0114

MULLIKEN ATOMIC CHARGES
-----------------------
   0 C :   -0.347213
   1 O :   -0.214610
   2 C :   -0.187631
   3 Cl:   -0.322530
   4 C :    0.130586
   5 N :   -0.346044
   6 N :   -0.273270
   7 C :    0.282995
   8 C :   -0.654820
   9 O :   -0.094800
  10 H :    0.157615
  11 H :    0.162074
  12 H :    0.154568
  13 H :    0.181385
  14 H :    0.190769
  15 H :    0.180925
Sum of atomic charges:   -1.0000000

LOEWDIN ATOMIC CHARGES
----------------------
   0 C :   -0.088629
   1 O :   -0.751295
   2 C :   -0.080518
   3 Cl:   -0.027844
   4 C :    0.313168
   5 N :   -0.481823
   6 N :   -0.453540
   7 C :    0.316646
   8 C :   -0.335704
   9 O :   -0.452316
  10 H :    0.173683
  11 H :    0.168701
  12 H :    0.163463
  13 H :    0.177029
  14 H :    0.181828
  15 H :    0.177151

  Mayer bond orders larger than 0.100000
B(  0-C ,  1-O ) :   0.8368 B(  0-C , 10-H ) :   0.9692 B(  0-C , 11-H ) :   0.9615
B(  0-C , 12-H ) :   0.9610 B(  1-O ,  2-C ) :   1.1500 B(  2-C ,  3-Cl) :   0.8254
B(  2-C ,  4-C ) :   1.3878 B(  4-C ,  5-N ) :   1.5165 B(  4-C ,  9-O ) :   1.0705
B(  5-N ,  6-N ) :   1.2879 B(  6-N ,  7-C ) :   1.7819 B(  7-C ,  8-C ) :   0.8267
B(  7-C ,  9-O ) :   1.0357 B(  8-C , 13-H ) :   0.9497 B(  8-C , 14-H ) :   0.9977
B(  8-C , 15-H ) :   0.9545

Dispersion correction           -0.005430775
FINAL SINGLE POINT ENERGY      -914.240145494260

DIPOLE MOMENT
-------------
                                X             Y             Z
Electronic contribution:     -2.43321       7.54842       2.75414
Nuclear contribution   :      3.48062      -6.98457      -4.47795
                        -----------------------------------------
Total Dipole Moment    :      1.04741       0.56384      -1.72381
                        -----------------------------------------
Magnitude (a.u.)       :      2.09440
Magnitude (Debye)      :      5.32354

Rotational constants in cm-1:     0.069355     0.025713     0.019802
Rotational constants in MHz :  2079.222091   770.865144   593.654132

                             ****ORCA TERMINATED NORMALLY****
TOTAL RUN TIME: 0 days 0 hours 0 minutes 24 seconds 718 msec
