   * xtb version 6.5.1 (579679a) compiled by 'ehlert@majestix' on 2022-07-11
          program call               : /lustre/hpc/kemi/ree/PhD/git/ReactivityQM/dep/xtb-6.5.1/bin/xtb --gfn 1 /lustre/hpc/kemi/ree/PhD/git/ReactivityQM/calculations/RaltegravirCLI/reac01prodE06/conf13/RaltegravirCLI_reac01prodE06_conf13_gfn1.xyz --opt --vfukui --chrg -1 --uhf 0 --alpb DMSO

   ID    Z sym.   atoms
    1    6 C      1, 3, 5, 8, 9
    2    8 O      2, 10
    3   17 Cl     4
    4    7 N      6, 7
    5    1 H      11-16

      * Solvation model:               ALPB
        Solvent                        DMSO
        Solvent mass                       7.8130E+01 g/mol
          :  Hamiltonian                  GFN1-xTB          :
 * total energy  :   -34.1168541 Eh     change       -0.7176482E-12 Eh
 * total energy  :   -34.1228859 Eh     change       -0.6031840E-02 Eh
 * total energy  :   -34.1253335 Eh     change       -0.2447546E-02 Eh
 * total energy  :   -34.1258694 Eh     change       -0.5359657E-03 Eh
 * total energy  :   -34.1262399 Eh     change       -0.3704642E-03 Eh
 * total energy  :   -34.1263760 Eh     change       -0.1361383E-03 Eh
 * total energy  :   -34.1265745 Eh     change       -0.1984337E-03 Eh
 * total energy  :   -34.1271525 Eh     change       -0.5780753E-03 Eh
 * total energy  :   -34.1274699 Eh     change       -0.3173356E-03 Eh
 * total energy  :   -34.1278446 Eh     change       -0.3747804E-03 Eh
 * total energy  :   -34.1307309 Eh     change       -0.2544851E-04 Eh
 * total energy  :   -34.1307380 Eh     change       -0.7100551E-05 Eh
 * total energy  :   -34.1307508 Eh     change       -0.1283027E-04 Eh
 * total energy  :   -34.1307677 Eh     change       -0.1682216E-04 Eh
 * total energy  :   -34.1307523 Eh     change        0.1537167E-04 Eh
 * total energy  :   -34.1307827 Eh     change       -0.3041523E-04 Eh
 * total energy  :   -34.1307890 Eh     change       -0.6328654E-05 Eh
 * total energy  :   -34.1307951 Eh     change       -0.6050406E-05 Eh
 * total energy  :   -34.1307965 Eh     change       -0.1451340E-05 Eh
   *** GEOMETRY OPTIMIZATION CONVERGED AFTER 44 ITERATIONS ***

 final structure:
================
16
 xtb: 6.5.1 (579679a)
C           -3.08018724182300       -0.05002522898489        0.52367387796592
O           -2.38732339091812        0.45000569465614        1.66807875274510
C           -1.13138786158225        0.98269631624260        1.46829006204167
Cl          -1.21233623750845        2.67090334295092        0.74549400517425
C           -0.14851034600043        0.16452996016067        0.89180984345221
N           -0.08900639933232       -1.16639504723322        0.98938476348687
N            1.17923218281409       -1.52953756302733        0.57129414852112
C            1.80313028200234       -0.45068932199437        0.25773765165341
C            3.19452606618621       -0.32289396950390       -0.24929860224402
O            1.04382833275271        0.66995391066768        0.43374925388517
H           -4.06654000908124       -0.37806667062409        0.85752667588640
H           -2.54510942719997       -0.90133784386379        0.08163496551415
H           -3.19889597270499        0.73194678565366       -0.23652675051941
H            3.20029967526148        0.10788444485253       -1.25149441149924
H            3.65761192269810       -1.30673411359094       -0.28256985666012
H            3.78066742443574        0.32775930363822        0.40065962059654

          :  Hamiltonian                  GFN1-xTB          :
         :: total energy             -34.130796533341 Eh    ::
         :: gradient norm              0.000234401368 Eh/a0 ::
         :: HOMO-LUMO gap              2.957892187549 eV    ::
         :: SCC energy               -34.378952037628 Eh    ::
         :: -> Gsolv                  -0.092530609816 Eh    ::
         :: repulsion energy           0.255304928970 Eh    ::

    * Orbital Energies and Occupations

         #    Occupation            Energy/Eh            Energy/eV
      -------------------------------------------------------------
         1        2.0000           -0.8451600             -22.9980
       ...           ...                  ...                  ...
        16        2.0000           -0.5142001             -13.9921
        17        2.0000           -0.5060603             -13.7706
        18        2.0000           -0.4962586             -13.5039
        19        2.0000           -0.4791087             -13.0372
        20        2.0000           -0.4683413             -12.7442
        21        2.0000           -0.4458535             -12.1323
        22        2.0000           -0.4338003             -11.8043
        23        2.0000           -0.4325666             -11.7707
        24        2.0000           -0.4242599             -11.5447
        25        2.0000           -0.4094942             -11.1429
        26        2.0000           -0.3967761             -10.7968
        27        2.0000           -0.3853889             -10.4870
        28        2.0000           -0.3094442              -8.4204 (HOMO)
        29                         -0.2007437              -5.4625 (LUMO)
        30                         -0.1817845              -4.9466
        31                         -0.1312619              -3.5718
        32                         -0.1207342              -3.2853
        33                         -0.1086260              -2.9559
        34                         -0.0539663              -1.4685
        35                         -0.0530129              -1.4426
        36                         -0.0482661              -1.3134
        37                         -0.0429394              -1.1684
        38                          0.0188356               0.5125
        39                          0.0228218               0.6210
       ...                                ...                  ...
        57                          0.6323045              17.2059
      -------------------------------------------------------------
                  HL-Gap            0.1087005 Eh            2.9579 eV

Wiberg/Mayer (AO) data.
largest (>0.10) Wiberg bond orders for each atom

     #   Z sym  total        # sym  WBO       # sym  WBO       # sym  WBO
 ---------------------------------------------------------------------------
     1   6 C    3.933 --    11 H    0.987    13 H    0.982    12 H    0.981
                             2 O    0.934
     2   8 O    2.052 --     3 C    1.001     1 C    0.934
     3   6 C    3.428 --     5 C    1.342     2 O    1.001     4 Cl   0.801
                             6 N    0.147
     4  17 Cl   0.914 --     3 C    0.801
     5   6 C    3.856 --     6 N    1.391     3 C    1.342    10 O    0.993
     6   7 N    2.873 --     5 C    1.391     7 N    1.142     3 C    0.147
     7   7 N    2.984 --     8 C    1.676     6 N    1.142
     8   6 C    3.890 --     7 N    1.676     9 C    1.020    10 O    1.019
     9   6 C    3.995 --     8 C    1.020    15 H    0.986    16 H    0.974
                            14 H    0.973
    10   8 O    2.220 --     8 C    1.019     5 C    0.993
    11   1 H    1.021 --     1 C    0.987
    12   1 H    1.028 --     1 C    0.981
    13   1 H    1.019 --     1 C    0.982
    14   1 H    1.005 --     9 C    0.973
    15   1 H    1.006 --     9 C    0.986
    16   1 H    1.005 --     9 C    0.974
 ---------------------------------------------------------------------------

           -------------------------------------------------
          | TOTAL ENERGY              -34.130796533341 Eh   |
          | GRADIENT NORM               0.000234401368 Eh/α |
          | HOMO-LUMO GAP               2.957892187549 eV   |
           -------------------------------------------------

 * finished run on 2023/06/20 at 14:54:05.763
