   * xtb version 6.5.1 (579679a) compiled by 'ehlert@majestix' on 2022-07-11
          program call               : /lustre/hpc/kemi/ree/PhD/git/ReactivityQM/dep/xtb-6.5.1/bin/xtb --gfn 1 /lustre/hpc/kemi/ree/PhD/git/ReactivityQM/calculations/R02deprot/reac01prodE11/conf03/R02deprot_reac01prodE11_conf03_gfn1.xyz --opt --vfukui --chrg -2 --uhf 0 --alpb DMSO

   ID    Z sym.   atoms
    1    6 C      1, 3, 5, 7-10, 12, 14, 17-19, 22, 24
    2    8 O      2, 4, 13, 20, 23, 25
    3    7 N      6, 11, 15, 16, 21
    4    1 H      26-42

      * Solvation model:               ALPB
        Solvent                        DMSO
        Solvent mass                       7.8130E+01 g/mol
          :  Hamiltonian                  GFN1-xTB          :
 * total energy  :   -83.6405411 Eh     change       -0.2667377E-10 Eh
 * total energy  :   -83.6513188 Eh     change       -0.1077769E-01 Eh
 * total energy  :   -83.6542847 Eh     change       -0.2965842E-02 Eh
 * total energy  :   -83.6547275 Eh     change       -0.4428489E-03 Eh
 * total energy  :   -83.6550639 Eh     change       -0.3363571E-03 Eh
 * total energy  :   -83.6552291 Eh     change       -0.1652312E-03 Eh
 * total energy  :   -83.6554247 Eh     change       -0.1955681E-03 Eh
 * total energy  :   -83.6556052 Eh     change       -0.1805690E-03 Eh
 * total energy  :   -83.6557447 Eh     change       -0.1394223E-03 Eh
 * total energy  :   -83.6558494 Eh     change       -0.1047526E-03 Eh
 * total energy  :   -83.6561933 Eh     change       -0.1083888E-04 Eh
 * total energy  :   -83.6562035 Eh     change       -0.1022962E-04 Eh
 * total energy  :   -83.6562150 Eh     change       -0.1154244E-04 Eh
 * total energy  :   -83.6562201 Eh     change       -0.5029961E-05 Eh
 * total energy  :   -83.6562256 Eh     change       -0.5502708E-05 Eh
 * total energy  :   -83.6562307 Eh     change       -0.5100551E-05 Eh
 * total energy  :   -83.6562392 Eh     change       -0.8551428E-05 Eh
 * total energy  :   -83.6562474 Eh     change       -0.8176222E-05 Eh
 * total energy  :   -83.6562507 Eh     change       -0.3361459E-05 Eh
   *** GEOMETRY OPTIMIZATION CONVERGED AFTER 27 ITERATIONS ***

 final structure:
================
42
 xtb: 6.5.1 (579679a)
C            6.75673924266598        1.51539657934190        0.73968297450934
O            5.44950900860724        1.59196534562836        0.18262129287572
C            4.66598777841125        0.50968471818339        0.35504925944035
O            5.06340275977246       -0.47235604761917        0.95446504727466
C            3.32013619479960        0.64753990600535       -0.23937307057005
N            2.49597101073478       -0.42747141994883       -0.03603976229420
C            1.27555456704350       -0.36939636262379       -0.52246109750996
C            0.37490485834009       -1.58698782272893       -0.31953552156163
C            0.96702455559815       -2.51803711500077        0.74483512815644
C            0.27238394229463       -2.31048248005194       -1.67776190752321
N           -0.92849743997980       -1.08726905739144        0.10748682023606
C           -2.03720830875675       -1.91865139076548        0.22859238188236
O           -1.93366951466153       -3.16614085911213        0.27450284911395
C           -3.27027942176943       -1.22996230811689        0.35974239614843
N           -4.46785357852644       -1.76629860964233        0.52870803706474
N           -5.39107536536814       -0.84960506395517        0.61291731465248
C           -4.72648380666056        0.45810245843214        0.48504561755390
C           -5.27824637374838        1.20256231887511       -0.74349449306953
C           -4.95422271140177        1.28256908955180        1.76499702877814
O           -3.34429537022150        0.18058980531435        0.31768326325652
N            0.73249463745586        0.63457764436834       -1.21759281492245
C            1.48741697362870        1.72405789539102       -1.47414471917689
O            1.10062111849029        2.71901074702341       -2.12467002991047
C            2.85569622395924        1.72519328748293       -0.94772451079165
O            3.56563590150231        2.84470123735375       -1.22542348800801
H            7.31493201331944        0.68653590166905        0.29543388349135
H            7.25198118238084        2.45874177593356        0.51703415453991
H            6.70422512224696        1.36823178553972        1.82244329631819
H            1.97935129992016       -2.80299914404810        0.45854694298512
H            1.00932697482057       -2.00356020067239        1.70536756735360
H            0.36329207367769       -3.41826286929188        0.84999067194455
H            1.26751470897567       -2.60219883791145       -2.01280394018453
H           -0.34602288237932       -3.20340170485666       -1.59353482046136
H           -0.16464462294926       -1.64018626782621       -2.41811230871675
H           -1.12464098686993       -0.14248889840285       -0.20994414337344
H           -5.11002852356933        0.60051213721513       -1.63528431328483
H           -6.34734386737650        1.36369292386837       -0.62175741064861
H           -4.78023142582061        2.16346925784892       -0.86199853291979
H           -4.45812750685828        2.24873493396171        1.68902426417112
H           -6.02075014055196        1.43620764424144        1.91518506076910
H           -4.55043300532122        0.74103991576090        2.61931306279034
H            2.95995170414826        3.41264215097650       -1.74970243037906

          :  Hamiltonian                  GFN1-xTB          :
         :: total energy             -83.656250747422 Eh    ::
         :: gradient norm              0.000708186245 Eh/a0 ::
         :: HOMO-LUMO gap              0.938242251422 eV    ::
         :: SCC energy               -84.386890825319 Eh    ::
         :: -> Gsolv                  -0.258477639706 Eh    ::
         :: repulsion energy           0.755832892787 Eh    ::

    * Orbital Energies and Occupations

         #    Occupation            Energy/Eh            Energy/eV
      -------------------------------------------------------------
         1        2.0000           -0.8103724             -22.0514
       ...           ...                  ...                  ...
        56        2.0000           -0.4441300             -12.0854
        57        2.0000           -0.4388543             -11.9418
        58        2.0000           -0.4256122             -11.5815
        59        2.0000           -0.4231675             -11.5150
        60        2.0000           -0.4097667             -11.1503
        61        2.0000           -0.4023801             -10.9493
        62        2.0000           -0.3923359             -10.6760
        63        2.0000           -0.3883147             -10.5666
        64        2.0000           -0.3782936             -10.2939
        65        2.0000           -0.3625447              -9.8653
        66        2.0000           -0.3614983              -9.8369
        67        2.0000           -0.3596189              -9.7857
        68        2.0000           -0.3042872              -8.2801 (HOMO)
        69                         -0.2698075              -7.3418 (LUMO)
        70                         -0.2259889              -6.1495
        71                         -0.2162065              -5.8833
        72                         -0.1819747              -4.9518
        73                         -0.1258149              -3.4236
        74                         -0.1149079              -3.1268
        75                         -0.0995160              -2.7080
        76                         -0.0958934              -2.6094
        77                         -0.0934063              -2.5417
        78                         -0.0909160              -2.4740
        79                         -0.0868139              -2.3623
       ...                                ...                  ...
       134                          0.7451994              20.2779
      -------------------------------------------------------------
                  HL-Gap            0.0344798 Eh            0.9382 eV

Wiberg/Mayer (AO) data.
largest (>0.10) Wiberg bond orders for each atom

     #   Z sym  total        # sym  WBO       # sym  WBO       # sym  WBO
 ---------------------------------------------------------------------------
     1   6 C    3.891 --    27 H    0.987    26 H    0.980    28 H    0.980
                             2 O    0.916
     2   8 O    2.178 --     3 C    1.076     1 C    0.916     4 O    0.121
     3   6 C    3.834 --     4 O    1.628     2 O    1.076     5 C    1.033
     4   8 O    1.890 --     3 C    1.628     2 O    0.121
     5   6 C    3.963 --    24 C    1.476     6 N    1.201     3 C    1.033
     6   7 N    2.995 --     7 C    1.471     5 C    1.201
     7   6 C    3.952 --     6 N    1.471    21 N    1.351     8 C    0.971
     8   6 C    3.955 --     9 C    0.998    10 C    0.976     7 C    0.971
                            11 N    0.949
     9   6 C    3.995 --     8 C    0.998    30 H    0.987    29 H    0.986
                            31 H    0.983
    10   6 C    3.994 --    32 H    0.988    34 H    0.986    33 H    0.983
                             8 C    0.976
    11   7 N    3.223 --    12 C    1.111     8 C    0.949    35 H    0.907
                            13 O    0.109
    12   6 C    3.926 --    13 O    1.438    14 C    1.207    11 N    1.111
    13   8 O    1.773 --    12 C    1.438    11 N    0.109
    14   6 C    3.843 --    15 N    1.418    12 C    1.207    20 O    0.921
                            16 N    0.166
    15   7 N    3.022 --    16 N    1.445    14 C    1.418
    16   7 N    2.859 --    15 N    1.445    17 C    0.983    14 C    0.166
    17   6 C    3.901 --    16 N    0.983    18 C    0.977    19 C    0.977
                            20 O    0.926
    18   6 C    3.994 --    37 H    0.988    38 H    0.987    36 H    0.986
                            17 C    0.977
    19   6 C    3.994 --    40 H    0.988    39 H    0.987    41 H    0.986
                            17 C    0.977
    20   8 O    2.052 --    17 C    0.926    14 C    0.921
    21   7 N    2.992 --     7 C    1.351    22 C    1.265    23 O    0.126
    22   6 C    3.932 --    23 O    1.456    21 N    1.265    24 C    1.074
    23   8 O    1.796 --    22 C    1.456    21 N    0.126
    24   6 C    3.904 --     5 C    1.476    22 C    1.074    25 O    1.065
    25   8 O    2.042 --    24 C    1.065    42 H    0.815
    26   1 H    1.012 --     1 C    0.980
    27   1 H    1.014 --     1 C    0.987
    28   1 H    1.012 --     1 C    0.980
    29   1 H    1.022 --     9 C    0.986
    30   1 H    1.015 --     9 C    0.987
    31   1 H    1.025 --     9 C    0.983
    32   1 H    1.008 --    10 C    0.988
    33   1 H    1.019 --    10 C    0.983
    34   1 H    1.014 --    10 C    0.986
    35   1 H    0.984 --    11 N    0.907
    36   1 H    1.016 --    18 C    0.986
    37   1 H    1.012 --    18 C    0.988
    38   1 H    1.009 --    18 C    0.987
    39   1 H    1.009 --    19 C    0.987
    40   1 H    1.012 --    19 C    0.988
    41   1 H    1.016 --    19 C    0.986
    42   1 H    0.880 --    25 O    0.815
 ---------------------------------------------------------------------------

           -------------------------------------------------
          | TOTAL ENERGY              -83.656250747422 Eh   |
          | GRADIENT NORM               0.000708186245 Eh/α |
          | HOMO-LUMO GAP               0.938242251422 eV   |
           -------------------------------------------------

 * finished run on 2023/06/20 at 17:55:11.703
