   * xtb version 6.5.1 (579679a) compiled by 'ehlert@majestix' on 2022-07-11
          program call               : /lustre/hpc/kemi/ree/PhD/git/ReactivityQM/dep/xtb-6.5.1/bin/xtb --gfn 1 /lustre/hpc/kemi/ree/PhD/git/ReactivityQM/calculations/R02oxygendeprot/reac01prodE04/conf12/R02oxygendeprot_reac01prodE04_conf12_gfn1.xyz --opt --vfukui --chrg -2 --uhf 0 --alpb DMSO

   ID    Z sym.   atoms
    1    6 C      1, 3, 5, 6, 8-11, 13, 15, 18, 19, 22, 24
    2    8 O      2, 4, 14, 20, 23, 25
    3    7 N      7, 12, 16, 17, 21
    4    1 H      26-42

      * Solvation model:               ALPB
        Solvent                        DMSO
        Solvent mass                       7.8130E+01 g/mol
          :  Hamiltonian                  GFN1-xTB          :
 * total energy  :   -83.5801817 Eh     change       -0.1020055E-08 Eh
 * total energy  :   -83.6015928 Eh     change       -0.2141112E-01 Eh
 * total energy  :   -83.6090974 Eh     change       -0.7504578E-02 Eh
 * total energy  :   -83.6109385 Eh     change       -0.1841112E-02 Eh
 * total energy  :   -83.6121312 Eh     change       -0.1192701E-02 Eh
 * total energy  :   -83.6127479 Eh     change       -0.6166566E-03 Eh
 * total energy  :   -83.6131186 Eh     change       -0.3706959E-03 Eh
 * total energy  :   -83.6134468 Eh     change       -0.3281978E-03 Eh
 * total energy  :   -83.6137489 Eh     change       -0.3021780E-03 Eh
 * total energy  :   -83.6140449 Eh     change       -0.2959439E-03 Eh
 * total energy  :   -83.6155068 Eh     change       -0.3044351E-04 Eh
 * total energy  :   -83.6155323 Eh     change       -0.2553584E-04 Eh
 * total energy  :   -83.6155566 Eh     change       -0.2433738E-04 Eh
 * total energy  :   -83.6155766 Eh     change       -0.2001128E-04 Eh
 * total energy  :   -83.6155912 Eh     change       -0.1450968E-04 Eh
 * total energy  :   -83.6156011 Eh     change       -0.9925714E-05 Eh
 * total energy  :   -83.6156084 Eh     change       -0.7317458E-05 Eh
 * total energy  :   -83.6156135 Eh     change       -0.5148883E-05 Eh
 * total energy  :   -83.6156184 Eh     change       -0.4840466E-05 Eh
   *** GEOMETRY OPTIMIZATION CONVERGED AFTER 39 ITERATIONS ***

 final structure:
================
42
 xtb: 6.5.1 (579679a)
C           -4.44741228761858       -1.92019758712484        2.13331028389501
O           -3.82373037391070       -0.66839529599739        1.88517739946283
C           -2.84222275630438       -0.66796152240890        0.94200103043134
O           -2.50969669418771       -1.69861585442283        0.37201794889309
C           -2.35067070880687        0.72946734925036        0.61224932391194
C           -2.32599502568934        1.64452806080650        1.83891579161452
N           -1.01885450917905        0.65656679917440        0.03505402250534
C           -0.92623423963684        0.31491227884394       -1.19854417967165
C            0.45177117148921        0.05920642138788       -1.80244411092663
C            0.69450997756377        0.99030866497028       -3.00001960820792
C            0.52905982179736       -1.41515775613270       -2.23853968449898
N            1.42933241966690        0.34335422173567       -0.76145398855066
C            2.76943672807770        0.02905541615135       -0.86633087543617
O            3.33125183559407       -0.23496405461187       -1.95046667336639
C            3.42975158643193        0.09257802439007        0.40791258696336
N            2.85673284597813        0.36322119623175        1.58162929530148
N            3.84496226080174        0.28196932017653        2.52421203598028
C            4.93941066427248       -0.02467812913506        1.90841241190846
C            6.27881049089543       -0.23466830213396        2.51161997371299
O            4.77503265899908       -0.16334209409427        0.57148460022579
N           -2.00238191189665        0.13499300460881       -2.00873231266592
C           -3.26979017463055        0.76365788336660       -1.72847734015654
O           -4.02924266232070        0.94622043457676       -2.72675164320190
C           -3.46339235089005        1.15688062761406       -0.39056307984337
O           -4.47880033943916        1.79018166792311        0.06667131217366
H           -3.73304986280417       -2.62718401401818        2.56719477766995
H           -5.25779558954946       -1.74142507401578        2.83848361268681
H           -4.84792511041818       -2.34851388065460        1.20886265731583
H           -3.33676671162176        1.79362225604732        2.21736205060797
H           -1.71023604910435        1.21203157890864        2.62683826281026
H           -1.90902171853332        2.61229796933884        1.55969218204437
H            0.62683824973940        2.03053079116592       -2.68251614944164
H            1.68586267419984        0.81149120915825       -3.41344009590741
H           -0.04409940636337        0.80880224052775       -3.77875130571113
H           -0.23391314022509       -1.62126437013604       -2.98729442748600
H            1.50479790776629       -1.63214628813280       -2.66972208740465
H            0.36477407127420       -2.06591026314183       -1.37964233923281
H            1.04412697604174        0.40186209183252        0.17986906189037
H            6.63594083581226       -1.24229196701984        2.29777797006476
H            6.99868087229037        0.47154569143242        2.09754658955950
H            6.21875111331312       -0.09633389465742        3.58839828091324
H           -1.84860053887194       -0.03623385178646       -2.98900356082683

          :  Hamiltonian                  GFN1-xTB          :
         :: total energy             -83.615618383257 Eh    ::
         :: gradient norm              0.000351103645 Eh/a0 ::
         :: HOMO-LUMO gap              0.044120945094 eV    ::
         :: SCC energy               -84.343520828566 Eh    ::
         :: -> Gsolv                  -0.273535903185 Eh    ::
         :: repulsion energy           0.754604365449 Eh    ::

    * Orbital Energies and Occupations

         #    Occupation            Energy/Eh            Energy/eV
      -------------------------------------------------------------
         1        2.0000           -0.8056173             -21.9220
       ...           ...                  ...                  ...
        56        2.0000           -0.4444603             -12.0944
        57        2.0000           -0.4402127             -11.9788
        58        2.0000           -0.4333243             -11.7914
        59        2.0000           -0.4230165             -11.5109
        60        2.0000           -0.4109642             -11.1829
        61        2.0000           -0.4077727             -11.0961
        62        2.0000           -0.4037502             -10.9866
        63        2.0000           -0.3995157             -10.8714
        64        2.0000           -0.3891736             -10.5900
        65        2.0000           -0.3799530             -10.3390
        66        2.0000           -0.3752524             -10.2111
        67        2.0000           -0.3438225              -9.3559
        68        1.4025           -0.2686099              -7.3092 (HOMO)
        69        0.5975           -0.2669885              -7.2651 (LUMO)
        70                         -0.2200033              -5.9866
        71                         -0.2134895              -5.8093
        72                         -0.2024729              -5.5096
        73                         -0.1421500              -3.8681
        74                         -0.1261842              -3.4336
        75                         -0.1220543              -3.3213
        76                         -0.1127738              -3.0687
        77                         -0.1043270              -2.8389
        78                         -0.0966944              -2.6312
        79                         -0.0889389              -2.4201
       ...                                ...                  ...
       134                          0.7150083              19.4564
      -------------------------------------------------------------
                  HL-Gap            0.0016214 Eh            0.0441 eV

Wiberg/Mayer (AO) data.
largest (>0.10) Wiberg bond orders for each atom

     #   Z sym  total        # sym  WBO       # sym  WBO       # sym  WBO
 ---------------------------------------------------------------------------
     1   6 C    3.898 --    27 H    0.987    26 H    0.981    28 H    0.980
                             2 O    0.923
     2   8 O    2.149 --     3 C    1.039     1 C    0.923     4 O    0.106
     3   6 C    3.780 --     4 O    1.592     2 O    1.039     5 C    0.948
     4   8 O    1.850 --     3 C    1.592     2 O    0.106
     5   6 C    3.957 --     6 C    0.992     7 N    0.978     3 C    0.948
                            24 C    0.872
     6   6 C    3.991 --     5 C    0.992    30 H    0.989    31 H    0.987
                            29 H    0.983
     7   7 N    2.966 --     8 C    1.652     5 C    0.978    21 N    0.148
     8   6 C    3.933 --     7 N    1.652    21 N    1.179     9 C    0.970
     9   6 C    3.951 --    10 C    0.986    11 C    0.980     8 C    0.970
                            12 N    0.949
    10   6 C    3.992 --    32 H    0.987     9 C    0.986    34 H    0.985
                            33 H    0.981
    11   6 C    3.991 --    37 H    0.986    35 H    0.986    36 H    0.981
                             9 C    0.980
    12   7 N    3.191 --    13 C    1.134     9 C    0.949    38 H    0.894
                            14 O    0.125
    13   6 C    3.776 --    14 O    1.447    12 N    1.134    15 C    1.126
    14   8 O    1.703 --    13 C    1.447    12 N    0.125
    15   6 C    3.692 --    16 N    1.413    13 C    1.126    20 O    0.983
    16   7 N    2.762 --    15 C    1.413    17 N    1.185
    17   7 N    2.980 --    18 C    1.628    16 N    1.185
    18   6 C    3.823 --    17 N    1.628    20 O    1.051    19 C    1.024
    19   6 C    3.994 --    18 C    1.024    41 H    0.986    39 H    0.971
                            40 H    0.971
    20   8 O    2.191 --    18 C    1.051    15 C    0.983
    21   7 N    3.316 --     8 C    1.179    22 C    0.945    42 H    0.915
                             7 N    0.148
    22   6 C    3.750 --    23 O    1.380    24 C    1.264    21 N    0.945
    23   8 O    1.599 --    22 C    1.380
    24   6 C    3.745 --    25 O    1.358    22 C    1.264     5 C    0.872
    25   8 O    1.572 --    24 C    1.358
    26   1 H    1.013 --     1 C    0.981
    27   1 H    1.015 --     1 C    0.987
    28   1 H    1.014 --     1 C    0.980
    29   1 H    1.028 --     6 C    0.983
    30   1 H    1.010 --     6 C    0.989
    31   1 H    1.013 --     6 C    0.987
    32   1 H    1.009 --    10 C    0.987
    33   1 H    1.019 --    10 C    0.981
    34   1 H    1.005 --    10 C    0.985
    35   1 H    1.006 --    11 C    0.986
    36   1 H    1.016 --    11 C    0.981
    37   1 H    1.008 --    11 C    0.986
    38   1 H    0.996 --    12 N    0.894
    39   1 H    1.001 --    19 C    0.971
    40   1 H    1.001 --    19 C    0.971
    41   1 H    1.004 --    19 C    0.986
    42   1 H    0.970 --    21 N    0.915
 ---------------------------------------------------------------------------

           -------------------------------------------------
          | TOTAL ENERGY              -83.615618383257 Eh   |
          | GRADIENT NORM               0.000351103645 Eh/α |
          | HOMO-LUMO GAP               0.044120945094 eV   |
           -------------------------------------------------

 * finished run on 2023/06/21 at 17:04:44.845
