   * xtb version 6.5.1 (579679a) compiled by 'ehlert@majestix' on 2022-07-11
          program call               : /lustre/hpc/kemi/ree/PhD/git/ReactivityQM/dep/xtb-6.5.1/bin/xtb --gfn 1 /lustre/hpc/kemi/ree/PhD/git/ReactivityQM/calculations/R02methylcation/reac01prodE02/conf14/R02methylcation_reac01prodE02_conf14_gfn1.xyz --opt --vfukui --chrg -2 --uhf 0 --alpb DMSO

   ID    Z sym.   atoms
    1    6 C      1, 3, 4, 6, 8-11, 13, 15, 18, 19, 22, 24
    2    8 O      2, 5, 14, 20, 23, 25
    3    7 N      7, 12, 16, 17, 21
    4    1 H      26-42

      * Solvation model:               ALPB
        Solvent                        DMSO
        Solvent mass                       7.8130E+01 g/mol
          :  Hamiltonian                  GFN1-xTB          :
 * total energy  :   -83.5939094 Eh     change       -0.5712764E-10 Eh
 * total energy  :   -83.6084727 Eh     change       -0.1456324E-01 Eh
 * total energy  :   -83.6150294 Eh     change       -0.6556733E-02 Eh
 * total energy  :   -83.6166053 Eh     change       -0.1575909E-02 Eh
 * total energy  :   -83.6174615 Eh     change       -0.8561401E-03 Eh
 * total energy  :   -83.6178806 Eh     change       -0.4191092E-03 Eh
 * total energy  :   -83.6181757 Eh     change       -0.2950703E-03 Eh
 * total energy  :   -83.6184126 Eh     change       -0.2369939E-03 Eh
 * total energy  :   -83.6186168 Eh     change       -0.2041436E-03 Eh
 * total energy  :   -83.6187996 Eh     change       -0.1828381E-03 Eh
 * total energy  :   -83.6207801 Eh     change       -0.7385664E-05 Eh
 * total energy  :   -83.6207892 Eh     change       -0.9085419E-05 Eh
 * total energy  :   -83.6207962 Eh     change       -0.6924710E-05 Eh
 * total energy  :   -83.6208090 Eh     change       -0.1287664E-04 Eh
 * total energy  :   -83.6208152 Eh     change       -0.6170092E-05 Eh
 * total energy  :   -83.6208214 Eh     change       -0.6208656E-05 Eh
 * total energy  :   -83.6208292 Eh     change       -0.7801528E-05 Eh
 * total energy  :   -83.6208356 Eh     change       -0.6421644E-05 Eh
 * total energy  :   -83.6208391 Eh     change       -0.3448374E-05 Eh
   *** GEOMETRY OPTIMIZATION CONVERGED AFTER 55 ITERATIONS ***

 final structure:
================
42
 xtb: 6.5.1 (579679a)
C           -5.87182080506460       -0.34916652991031       -0.81930075063924
O           -4.83112234578517       -0.58883913948282        0.07646970398431
C           -3.81664467315999        0.61143526317541        0.23378623849325
C           -4.35916898899151        1.38055717126852        1.49269864006277
O           -3.75209617208242        1.34577201890308       -0.82600701443681
C           -2.49062108718026       -0.15251527239619        0.60151149987231
N           -1.54285114737367       -0.06704717834240       -0.37582394366196
C           -0.40057846215465       -0.65055488777384       -0.25295542192865
C            0.63128909700608       -0.59787913634174       -1.36140283473524
C            0.33230389768994        0.57023307746280       -2.30501893229498
C            0.63394732309360       -1.92109959056888       -2.13739170521530
N            1.97861902700140       -0.45184836571243       -0.78058719615012
C            2.38208527112282        0.60461587411626       -0.05148284013361
O            1.69238973122955        1.55378911087711        0.28040364215785
C            3.81692034571315        0.46326927324093        0.32947683688740
N            4.58245521005296       -0.55412981726768        0.06293906242149
N            5.80877590166574       -0.27300795365244        0.58935572081421
C            5.71342734802227        0.89756041573001        1.14197781152253
C            6.77523287394793        1.64790392108843        1.84792553311306
O            4.48130571349369        1.41400189669577        1.01445121733409
N           -0.09699141752963       -1.40674475506804        0.85906681475424
C           -0.95859183888167       -1.56396057074599        1.91814288612811
O           -0.59562509669886       -2.26880143106394        2.87820395360159
C           -2.27600726850797       -0.86559788225463        1.79869906495293
O           -3.08986736010977       -0.96656138227914        2.76812799106395
H           -6.73463506222064        0.15739726825749       -0.34643888571571
H           -6.22994289505914       -1.30808634939217       -1.21946821077353
H           -5.55189054274742        0.27157930453823       -1.67613886977591
H           -4.66962887842010        0.70688312855534        2.28891381383509
H           -5.21313528594480        1.98088281685798        1.17808426917153
H           -3.58058966488608        2.04935635989109        1.86102649382516
H           -0.66285665327230        0.43555041234813       -2.72902582164514
H            1.06577441372965        0.60163668192848       -3.10793161617168
H            0.35413935384203        1.51443103366748       -1.76223388134991
H            1.37440657690399       -1.89200511276592       -2.93472628888912
H           -0.34815219053472       -2.09156385552304       -2.57645122743357
H            0.86965784917211       -2.74910664757862       -1.47092277337417
H            2.67252189236855       -1.13295456067747       -1.03783251555682
H            6.92030066686705        2.62082357933798        1.37914085877695
H            6.49184919814055        1.81248447129611        2.88777996134014
H            7.70408701760111        1.08443949843995        1.81049063281676
H            0.79132812792660       -1.87313015888246        0.91402908297095

          :  Hamiltonian                  GFN1-xTB          :
         :: total energy             -83.620839081123 Eh    ::
         :: gradient norm              0.000942899277 Eh/a0 ::
         :: HOMO-LUMO gap              0.317803620726 eV    ::
         :: SCC energy               -84.360459486444 Eh    ::
         :: -> Gsolv                  -0.328660930454 Eh    ::
         :: repulsion energy           0.765328057528 Eh    ::

    * Orbital Energies and Occupations

         #    Occupation            Energy/Eh            Energy/eV
      -------------------------------------------------------------
         1        2.0000           -0.8555257             -23.2800
       ...           ...                  ...                  ...
        56        2.0000           -0.4416727             -12.0185
        57        2.0000           -0.4403501             -11.9825
        58        2.0000           -0.4331717             -11.7872
        59        2.0000           -0.4276539             -11.6371
        60        2.0000           -0.4108967             -11.1811
        61        2.0000           -0.4072794             -11.0826
        62        2.0000           -0.4010039             -10.9119
        63        2.0000           -0.3786905             -10.3047
        64        2.0000           -0.3755664             -10.2197
        65        2.0000           -0.3469210              -9.4402
        66        2.0000           -0.3329269              -9.0594
        67        2.0000           -0.3164469              -8.6110
        68        1.9957           -0.3101746              -8.4403 (HOMO)
        69        0.0043           -0.2984955              -8.1225 (LUMO)
        70                         -0.2500662              -6.8046
        71                         -0.2160678              -5.8795
        72                         -0.1991622              -5.4195
        73                         -0.1868320              -5.0840
        74                         -0.1394395              -3.7943
        75                         -0.1188813              -3.2349
        76                         -0.1053107              -2.8656
        77                         -0.0916712              -2.4945
        78                         -0.0873386              -2.3766
        79                         -0.0846586              -2.3037
       ...                                ...                  ...
       134                          0.7451909              20.2777
      -------------------------------------------------------------
                  HL-Gap            0.0116791 Eh            0.3178 eV

Wiberg/Mayer (AO) data.
largest (>0.10) Wiberg bond orders for each atom

     #   Z sym  total        # sym  WBO       # sym  WBO       # sym  WBO
 ---------------------------------------------------------------------------
     1   6 C    3.948 --     2 O    1.001    27 H    0.982    26 H    0.978
                            28 H    0.968
     2   8 O    1.907 --     1 C    1.001     3 C    0.710
     3   6 C    3.888 --     5 O    1.271     4 C    0.936     6 C    0.915
                             2 O    0.710
     4   6 C    3.985 --    30 H    0.988    31 H    0.987    29 H    0.985
                             3 C    0.936
     5   8 O    1.544 --     3 C    1.271
     6   6 C    3.923 --    24 C    1.341     7 N    1.246     3 C    0.915
                            25 O    0.138
     7   7 N    3.034 --     8 C    1.559     6 C    1.246
     8   6 C    3.922 --     7 N    1.559    21 N    1.095     9 C    0.971
     9   6 C    3.924 --    10 C    0.993    11 C    0.989     8 C    0.971
                            12 N    0.905
    10   6 C    3.993 --     9 C    0.993    33 H    0.988    32 H    0.983
                            34 H    0.981
    11   6 C    3.992 --     9 C    0.989    35 H    0.985    37 H    0.985
                            36 H    0.984
    12   7 N    3.357 --    13 C    1.269     9 C    0.905    38 H    0.901
                            14 O    0.183
    13   6 C    3.920 --    14 O    1.585    12 N    1.269    15 C    0.982
    14   8 O    1.891 --    13 C    1.585    12 N    0.183
    15   6 C    3.866 --    16 N    1.611    20 O    1.061    13 C    0.982
    16   7 N    3.008 --    15 C    1.611    17 N    1.194
    17   7 N    2.981 --    18 C    1.612    16 N    1.194
    18   6 C    3.872 --    17 N    1.612    20 O    1.081    19 C    1.030
    19   6 C    3.988 --    18 C    1.030    41 H    0.983    39 H    0.965
                            40 H    0.964
    20   8 O    2.324 --    18 C    1.081    15 C    1.061
    21   7 N    3.418 --    22 C    1.150     8 C    1.095    42 H    0.909
                            23 O    0.127
    22   6 C    3.879 --    23 O    1.497    21 N    1.150    24 C    1.022
    23   8 O    1.789 --    22 C    1.497    21 N    0.127
    24   6 C    3.954 --    25 O    1.403     6 C    1.341    22 C    1.022
    25   8 O    1.738 --    24 C    1.403     6 C    0.138
    26   1 H    1.021 --     1 C    0.978
    27   1 H    1.027 --     1 C    0.982
    28   1 H    1.040 --     1 C    0.968
    29   1 H    1.039 --     4 C    0.985
    30   1 H    1.023 --     4 C    0.988
    31   1 H    1.018 --     4 C    0.987
    32   1 H    1.019 --    10 C    0.983
    33   1 H    1.004 --    10 C    0.988
    34   1 H    1.017 --    10 C    0.981
    35   1 H    1.000 --    11 C    0.985
    36   1 H    1.005 --    11 C    0.984
    37   1 H    1.003 --    11 C    0.985
    38   1 H    0.956 --    12 N    0.901
    39   1 H    0.998 --    19 C    0.965
    40   1 H    0.997 --    19 C    0.964
    41   1 H    0.999 --    19 C    0.983
    42   1 H    0.963 --    21 N    0.909
 ---------------------------------------------------------------------------

           -------------------------------------------------
          | TOTAL ENERGY              -83.620839081123 Eh   |
          | GRADIENT NORM               0.000942899277 Eh/α |
          | HOMO-LUMO GAP               0.317803620726 eV   |
           -------------------------------------------------

 * finished run on 2023/06/21 at 17:07:01.577
