   * xtb version 6.5.1 (579679a) compiled by 'ehlert@majestix' on 2022-07-11
          program call               : /lustre/hpc/kemi/ree/PhD/git/ReactivityQM/dep/xtb-6.5.1/bin/xtb --gfn 1 /lustre/hpc/kemi/ree/PhD/git/ReactivityQM/calculations/R02deprot/reac02prodN01/conf10/R02deprot_reac02prodN01_conf10_gfn1.xyz --opt --vfukui --chrg 1 --uhf 0 --alpb DMSO

   ID    Z sym.   atoms
    1    6 C      1, 4
    2    8 O      2, 5
    3    5 B      3
    4    1 H      6-13

      * Solvation model:               ALPB
        Solvent                        DMSO
        Solvent mass                       7.8130E+01 g/mol
          :  Hamiltonian                  GFN1-xTB          :
 * total energy  :   -19.0541713 Eh     change       -0.3760903E-10 Eh
 * total energy  :   -19.0630164 Eh     change       -0.8845132E-02 Eh
 * total energy  :   -19.0655334 Eh     change       -0.2516947E-02 Eh
 * total energy  :   -19.0660021 Eh     change       -0.4687677E-03 Eh
 * total energy  :   -19.0663476 Eh     change       -0.3454445E-03 Eh
 * total energy  :   -19.0664249 Eh     change       -0.7736780E-04 Eh
 * total energy  :   -19.0664635 Eh     change       -0.3861228E-04 Eh
 * total energy  :   -19.0664859 Eh     change       -0.2231512E-04 Eh
 * total energy  :   -19.0664970 Eh     change       -0.1118077E-04 Eh
 * total energy  :   -19.0665020 Eh     change       -0.4945272E-05 Eh
   *** GEOMETRY OPTIMIZATION CONVERGED AFTER 10 ITERATIONS ***

 final structure:
================
13
 xtb: 6.5.1 (579679a)
C            1.69808415258604       -0.19177802040778        0.11291717855900
O            0.54817258050581        0.67381540806057        0.34252162930327
B           -0.86108520041472        0.40344220157768       -0.05754323422410
C           -1.14323797260595       -0.90494653231624       -0.83152378481769
O           -1.73664635249092        1.32252177442437        0.29262512973046
H            1.74524268162326       -0.41180041063763       -0.95221579180313
H            2.58377693578780        0.35043382525426        0.43161465193456
H            1.56912487766677       -1.10356327568143        0.69504945617124
H            0.74911454630719        1.45551234951060        0.87296881051049
H           -2.18616325772349       -0.96015288046536       -1.14099671773963
H           -0.51278792520310       -0.98355519579805       -1.71678148583253
H           -0.92288269707558       -1.77349453994016       -0.20978257024583
H           -1.53071336896312        2.12356529641930        0.77076172845399

          :  Hamiltonian                  GFN1-xTB          :
         :: total energy             -19.066501990631 Eh    ::
         :: gradient norm              0.000935845492 Eh/a0 ::
         :: HOMO-LUMO gap              7.735766763898 eV    ::
         :: SCC energy               -19.259194746610 Eh    ::
         :: -> Gsolv                  -0.102048136927 Eh    ::
         :: repulsion energy           0.196306685289 Eh    ::

    * Orbital Energies and Occupations

         #    Occupation            Energy/Eh            Energy/eV
      -------------------------------------------------------------
         1        2.0000           -0.9091606             -24.7395
       ...           ...                  ...                  ...
         3        2.0000           -0.7648235             -20.8119
         4        2.0000           -0.7518787             -20.4597
         5        2.0000           -0.6976724             -18.9846
         6        2.0000           -0.6868801             -18.6910
         7        2.0000           -0.6584204             -17.9165
         8        2.0000           -0.6549787             -17.8229
         9        2.0000           -0.6074707             -16.5301
        10        2.0000           -0.6000870             -16.3292
        11        2.0000           -0.5719747             -15.5642
        12        2.0000           -0.5544439             -15.0872
        13        2.0000           -0.5464111             -14.8686
        14        2.0000           -0.5431289             -14.7793
        15        2.0000           -0.5330041             -14.5038 (HOMO)
        16                         -0.2487199              -6.7680 (LUMO)
        17                         -0.1915686              -5.2128
        18                         -0.1806696              -4.9163
        19                         -0.1545483              -4.2055
        20                         -0.1177759              -3.2048
        21                         -0.1149902              -3.1290
        22                         -0.1017017              -2.7674
        23                         -0.0755073              -2.0547
        24                         -0.0713408              -1.9413
        25                         -0.0474783              -1.2920
        26                          0.0679232               1.8483
       ...                                ...                  ...
        36                          0.6217476              16.9186
      -------------------------------------------------------------
                  HL-Gap            0.2842842 Eh            7.7358 eV

Wiberg/Mayer (AO) data.
largest (>0.10) Wiberg bond orders for each atom

     #   Z sym  total        # sym  WBO       # sym  WBO       # sym  WBO
 ---------------------------------------------------------------------------
     1   6 C    3.786 --     8 H    0.982     6 H    0.982     7 H    0.980
                             2 O    0.817
     2   8 O    2.367 --     1 C    0.817     9 H    0.752     3 B    0.736
     3   5 B    3.141 --     5 O    1.286     4 C    1.045     2 O    0.736
     4   6 C    3.988 --     3 B    1.045    10 H    0.976    11 H    0.961
                            12 H    0.957
     5   8 O    2.157 --     3 B    1.286    13 H    0.790
     6   1 H    0.997 --     1 C    0.982
     7   1 H    0.991 --     1 C    0.980
     8   1 H    0.995 --     1 C    0.982
     9   1 H    0.780 --     2 O    0.752
    10   1 H    0.993 --     4 C    0.976
    11   1 H    0.993 --     4 C    0.961
    12   1 H    0.992 --     4 C    0.957
    13   1 H    0.812 --     5 O    0.790
 ---------------------------------------------------------------------------

           -------------------------------------------------
          | TOTAL ENERGY              -19.066501990631 Eh   |
          | GRADIENT NORM               0.000935845492 Eh/α |
          | HOMO-LUMO GAP               7.735766763898 eV   |
           -------------------------------------------------

 * finished run on 2023/06/20 at 18:32:01.042
