   * xtb version 6.5.1 (579679a) compiled by 'ehlert@majestix' on 2022-07-11
          program call               : /lustre/hpc/kemi/ree/PhD/git/ReactivityQM/dep/xtb-6.5.1/bin/xtb --gfn 1 /lustre/hpc/kemi/ree/PhD/git/ReactivityQM/calculations/R02oxygendeprot/reac01prodN13/conf16/R02oxygendeprot_reac01prodN13_conf16_gfn1.xyz --opt --vfukui --chrg 0 --uhf 0 --alpb DMSO

   ID    Z sym.   atoms
    1    6 C      1, 3, 5, 7-10, 12, 14, 17-19, 22, 24
    2    8 O      2, 4, 13, 20, 23, 25
    3    7 N      6, 11, 15, 16, 21
    4    1 H      26-42

      * Solvation model:               ALPB
        Solvent                        DMSO
        Solvent mass                       7.8130E+01 g/mol
          :  Hamiltonian                  GFN1-xTB          :
 * total energy  :   -82.9275344 Eh     change       -0.2813749E-10 Eh
 * total energy  :   -82.9378207 Eh     change       -0.1028624E-01 Eh
 * total energy  :   -82.9418943 Eh     change       -0.4073614E-02 Eh
 * total energy  :   -82.9426943 Eh     change       -0.8000665E-03 Eh
 * total energy  :   -82.9434454 Eh     change       -0.7510345E-03 Eh
 * total energy  :   -82.9439829 Eh     change       -0.5375010E-03 Eh
 * total energy  :   -82.9444092 Eh     change       -0.4263536E-03 Eh
 * total energy  :   -82.9446878 Eh     change       -0.2786142E-03 Eh
 * total energy  :   -82.9448433 Eh     change       -0.1554513E-03 Eh
 * total energy  :   -82.9449388 Eh     change       -0.9547812E-04 Eh
 * total energy  :   -82.9464070 Eh     change       -0.3826661E-04 Eh
 * total energy  :   -82.9464405 Eh     change       -0.3356574E-04 Eh
 * total energy  :   -82.9464648 Eh     change       -0.2424024E-04 Eh
 * total energy  :   -82.9464854 Eh     change       -0.2064727E-04 Eh
 * total energy  :   -82.9464989 Eh     change       -0.1348581E-04 Eh
 * total energy  :   -82.9465093 Eh     change       -0.1036211E-04 Eh
 * total energy  :   -82.9465198 Eh     change       -0.1057270E-04 Eh
 * total energy  :   -82.9465251 Eh     change       -0.5225778E-05 Eh
 * total energy  :   -82.9465276 Eh     change       -0.2547519E-05 Eh
   *** GEOMETRY OPTIMIZATION CONVERGED AFTER 44 ITERATIONS ***

 final structure:
================
42
 xtb: 6.5.1 (579679a)
C           -7.06269425340063        0.52528836404091       -0.68136327185866
O           -5.82467839943728        0.60848764707985        0.02512876478087
C           -4.77403775125975        0.02136925428661       -0.55009252576562
O           -4.84424819710089       -0.54764063900282       -1.62085473942854
C           -3.51959236400600        0.11491223702040        0.24069273571095
N           -2.49038225925607       -0.55956886136583       -0.31249119187112
C           -1.33117689360420       -0.60790473100147        0.27673920166241
C           -0.21195953563561       -1.41661584579788       -0.33382727370547
C           -0.46121008517036       -1.62878219115505       -1.83025887269113
C           -0.10027191190329       -2.75558686491482        0.40276869264468
N            1.04536427449006       -0.69252278344667       -0.13907326458025
C            1.16497199905569        0.60590464397960       -0.49388189163012
O            0.25022081487295        1.30308355475438       -0.89984803765741
C            2.54343821373895        1.11994568258753       -0.32790349820381
N            2.94430146023511        2.36942993044732       -0.61006590939244
N            4.20597414726594        2.45121497672209       -0.39860920680881
C            4.69870235721423        1.17338033786550        0.04127612829349
C            5.69579716738706        0.60979507064684       -0.97457948069236
C            5.29300113399974        1.27676122725411        1.44714652119302
O            3.52975005228002        0.34786000011766        0.06998671167622
N           -1.10463501764841       -0.01413593570190        1.47623471182454
C           -2.04211206178959        0.74426788639318        2.15406509560507
O           -1.75891623984708        1.26170224199813        3.21678419730663
C           -3.39417086862024        0.84860600261889        1.47485419726029
O           -4.27727378438027        1.52534916891472        1.99710638169045
H           -7.32262556325959       -0.52021522542496       -0.86454750117085
H           -6.98831252114911        1.04899424388110       -1.63768652154153
H           -7.81542865749093        0.99587108918978       -0.05180409604630
H           -0.54588628420020       -0.66747998182661       -2.33550761669664
H           -1.38905558133189       -2.18275169055263       -1.96485673696633
H            0.36268080665436       -2.19196926873481       -2.26177896216190
H            0.71313468991470       -3.34081795285259       -0.02053877638736
H           -1.03006594058302       -3.31232670337054        0.29698251539306
H            0.09582215629332       -2.58779406060784        1.45989093317144
H            1.86444991781055       -1.21066510363745        0.12591401306298
H            5.21708541282274        0.54173977505098       -1.94920587780788
H            6.00987399435565       -0.38015945966297       -0.65394521358099
H            6.55792863757138        1.26940312976573       -1.03359313394717
H            5.58616450677546        0.28547965526067        1.78330495301710
H            6.16281040758090        1.92854339187410        1.42037296968709
H            4.54833033773905        1.68578921943319        2.12659721532119
H           -0.20106931698530       -0.11302843212647        1.91046966129739

          :  Hamiltonian                  GFN1-xTB          :
         :: total energy             -82.946527621885 Eh    ::
         :: gradient norm              0.000273506097 Eh/a0 ::
         :: HOMO-LUMO gap              0.060086663712 eV    ::
         :: SCC energy               -83.713736844927 Eh    ::
         :: -> Gsolv                  -0.081259440205 Eh    ::
         :: repulsion energy           0.793199208979 Eh    ::

    * Orbital Energies and Occupations

         #    Occupation            Energy/Eh            Energy/eV
      -------------------------------------------------------------
         1        2.0000           -0.8801552             -23.9502
       ...           ...                  ...                  ...
        55        2.0000           -0.5160596             -14.0427
        56        2.0000           -0.5117784             -13.9262
        57        2.0000           -0.5074183             -13.8076
        58        2.0000           -0.5027487             -13.6805
        59        2.0000           -0.4917757             -13.3819
        60        2.0000           -0.4864901             -13.2381
        61        2.0000           -0.4837088             -13.1624
        62        2.0000           -0.4750781             -12.9275
        63        2.0000           -0.4721181             -12.8470
        64        2.0000           -0.4662138             -12.6863
        65        2.0000           -0.4583067             -12.4712
        66        2.0000           -0.4241859             -11.5427
        67        1.5234           -0.4069424             -11.0735 (HOMO)
        68        0.4766           -0.4047342             -11.0134 (LUMO)
        69                         -0.3219116              -8.7597
        70                         -0.3100992              -8.4382
        71                         -0.2831327              -7.7044
        72                         -0.2355919              -6.4108
        73                         -0.2215927              -6.0298
        74                         -0.1574685              -4.2849
        75                         -0.1421428              -3.8679
        76                         -0.1387897              -3.7767
        77                         -0.1366914              -3.7196
        78                         -0.1349880              -3.6732
       ...                                ...                  ...
       134                          0.7458363              20.2952
      -------------------------------------------------------------
                  HL-Gap            0.0022081 Eh            0.0601 eV

Wiberg/Mayer (AO) data.
largest (>0.10) Wiberg bond orders for each atom

     #   Z sym  total        # sym  WBO       # sym  WBO       # sym  WBO
 ---------------------------------------------------------------------------
     1   6 C    3.875 --    28 H    0.986    26 H    0.979    27 H    0.979
                             2 O    0.902
     2   8 O    2.193 --     3 C    1.108     1 C    0.902     4 O    0.132
     3   6 C    3.841 --     4 O    1.633     2 O    1.108     5 C    1.022
     4   8 O    1.878 --     3 C    1.633     2 O    0.132
     5   6 C    3.718 --     6 N    1.302    24 C    1.161     3 C    1.022
     6   7 N    2.982 --     7 C    1.470     5 C    1.302
     7   6 C    3.799 --     6 N    1.470    21 N    1.190     8 C    0.982
     8   6 C    3.928 --     9 C    0.983     7 C    0.982    10 C    0.977
                            11 N    0.923
     9   6 C    3.983 --    31 H    0.985     8 C    0.983    30 H    0.982
                            29 H    0.982
    10   6 C    3.978 --    34 H    0.984    33 H    0.983    32 H    0.981
                             8 C    0.977
    11   7 N    3.332 --    12 C    1.246     8 C    0.923    35 H    0.886
                            13 O    0.186
    12   6 C    3.910 --    13 O    1.578    11 N    1.246    14 C    0.999
    13   8 O    1.876 --    12 C    1.578    11 N    0.186
    14   6 C    3.635 --    15 N    1.315    20 O    1.170    12 C    0.999
    15   7 N    3.001 --    16 N    1.543    14 C    1.315
    16   7 N    2.687 --    15 N    1.543    17 C    1.023
    17   6 C    3.834 --    16 N    1.023    19 C    0.941    18 C    0.938
                            20 O    0.871
    18   6 C    3.937 --    36 H    0.982    38 H    0.982    37 H    0.980
                            17 C    0.938
    19   6 C    3.939 --    41 H    0.982    40 H    0.982    39 H    0.980
                            17 C    0.941
    20   8 O    2.196 --    14 C    1.170    17 C    0.871
    21   7 N    3.432 --     7 C    1.190    22 C    1.111    42 H    0.883
                            23 O    0.113
    22   6 C    3.841 --    23 O    1.650    21 N    1.111    24 C    0.948
    23   8 O    1.872 --    22 C    1.650    21 N    0.113
    24   6 C    3.863 --    25 O    1.614     5 C    1.161    22 C    0.948
    25   8 O    1.790 --    24 C    1.614
    26   1 H    1.008 --     1 C    0.979
    27   1 H    1.007 --     1 C    0.979
    28   1 H    1.011 --     1 C    0.986
    29   1 H    1.006 --     9 C    0.982
    30   1 H    1.008 --     9 C    0.982
    31   1 H    1.000 --     9 C    0.985
    32   1 H    0.995 --    10 C    0.981
    33   1 H    0.998 --    10 C    0.983
    34   1 H    0.997 --    10 C    0.984
    35   1 H    0.925 --    11 N    0.886
    36   1 H    0.996 --    18 C    0.982
    37   1 H    0.996 --    18 C    0.980
    38   1 H    0.997 --    18 C    0.982
    39   1 H    0.996 --    19 C    0.980
    40   1 H    0.997 --    19 C    0.982
    41   1 H    0.996 --    19 C    0.982
    42   1 H    0.931 --    21 N    0.883
 ---------------------------------------------------------------------------

           -------------------------------------------------
          | TOTAL ENERGY              -82.946527621885 Eh   |
          | GRADIENT NORM               0.000273506097 Eh/α |
          | HOMO-LUMO GAP               0.060086663712 eV   |
           -------------------------------------------------

 * finished run on 2023/06/21 at 17:28:59.830
