   * xtb version 6.5.1 (579679a) compiled by 'ehlert@majestix' on 2022-07-11
          program call               : /lustre/hpc/kemi/ree/PhD/git/ReactivityQM/dep/xtb-6.5.1/bin/xtb --gfn 1 /lustre/hpc/kemi/ree/PhD/git/ReactivityQM/calculations/RaltegravirCLI/reac02/conf15/RaltegravirCLI_reac02_conf15_gfn1.xyz --opt --vfukui --chrg 0 --uhf 0 --alpb DMSO

   ID    Z sym.   atoms
    1    6 C      1, 3-6, 9, 10, 13-17, 19-21, 23
    2    7 N      2, 7, 8, 12
    3    8 O      11, 22, 24
    4    9 F      18
    5    1 H      25-43

      * Solvation model:               ALPB
        Solvent                        DMSO
        Solvent mass                       7.8130E+01 g/mol
          :  Hamiltonian                  GFN1-xTB          :
 * total energy  :   -76.1765891 Eh     change       -0.7403855E-11 Eh
 * total energy  :   -76.1831919 Eh     change       -0.6602771E-02 Eh
 * total energy  :   -76.1849070 Eh     change       -0.1715193E-02 Eh
 * total energy  :   -76.1851949 Eh     change       -0.2878917E-03 Eh
 * total energy  :   -76.1855179 Eh     change       -0.3229902E-03 Eh
 * total energy  :   -76.1856744 Eh     change       -0.1564249E-03 Eh
 * total energy  :   -76.1858069 Eh     change       -0.1325269E-03 Eh
 * total energy  :   -76.1859053 Eh     change       -0.9839582E-04 Eh
 * total energy  :   -76.1859629 Eh     change       -0.5765786E-04 Eh
 * total energy  :   -76.1860095 Eh     change       -0.4654666E-04 Eh
 * total energy  :   -76.1861095 Eh     change       -0.1571012E-04 Eh
 * total energy  :   -76.1861209 Eh     change       -0.1140843E-04 Eh
 * total energy  :   -76.1861368 Eh     change       -0.1593112E-04 Eh
 * total energy  :   -76.1861444 Eh     change       -0.7576600E-05 Eh
 * total energy  :   -76.1861527 Eh     change       -0.8345973E-05 Eh
 * total energy  :   -76.1861590 Eh     change       -0.6247597E-05 Eh
 * total energy  :   -76.1861649 Eh     change       -0.5938214E-05 Eh
 * total energy  :   -76.1861717 Eh     change       -0.6747309E-05 Eh
 * total energy  :   -76.1861747 Eh     change       -0.3008336E-05 Eh
   *** GEOMETRY OPTIMIZATION CONVERGED AFTER 22 ITERATIONS ***

 final structure:
================
43
 xtb: 6.5.1 (579679a)
C           -3.99967579659220        2.10695395216117        0.74952898783353
N           -2.69018159385991        1.77023779666908        0.18248460674717
C           -2.17847943068154        0.50189082908674        0.13487153179611
C           -2.95801609167584       -0.71718135537066        0.61498103033582
C           -2.04079286679016       -1.94996023320586        0.58454065687599
C           -4.15859201859647       -0.96480277112748       -0.30951951875830
N           -3.43342560800177       -0.50166071268804        1.98086178948997
N           -1.00506985290591        0.26661999606518       -0.36964004542106
C           -0.24189168421891        1.28364162352203       -0.86627460275096
C            1.09465401776296        0.93155316299106       -1.40363777130864
O            1.85483350877559        1.78519748315697       -1.87315158114156
N            1.39693206938845       -0.37228287868751       -1.34657624802471
C            2.67858751259137       -0.89068831514406       -1.80626934234194
C            3.67158531670723       -0.96858781487095       -0.66553793508899
C            4.07073583477216       -2.20168074732203       -0.15789615720964
C            4.97550438420652       -2.27388023554118        0.89335916907543
C            5.46218292539180       -1.09244008992951        1.42111224347102
F            6.33586265423812       -1.15383997127424        2.43969738279383
C            5.08797458772998        0.15004200722140        0.94030426500496
C            4.18574262709635        0.20319321392854       -0.11182298422472
C           -0.69468178000234        2.57650768261378       -0.87168959499574
O            0.01016008994547        3.60734453777458       -1.35646011642712
C           -2.01272279051889        2.87767798735697       -0.33032412545698
O           -2.52697945443025        3.98960544240078       -0.29947693845323
H           -4.33534309282148        1.31614027171018        1.41253831587565
H           -4.71553749686392        2.25803254269834       -0.05923299804385
H           -3.89913468734261        3.03630362001265        1.31210680092862
H           -2.58311335926523       -2.81305958968696        0.96694065893726
H           -1.16350831756464       -1.78028121794364        1.20637444855302
H           -1.71458607291482       -2.15709515385248       -0.43334536532954
H           -4.87525842365968       -0.14776273680860       -0.25753383130602
H           -3.81878296232729       -1.07119454113198       -1.33910320145911
H           -4.66147121509093       -1.88319425333436       -0.00976761276707
H           -2.64108985783841       -0.47337286253313        2.60872750384939
H           -4.00676627611232       -1.28893502591308        2.24955031084742
H            0.74518775698843       -1.00379132835821       -0.90540283763072
H            2.50865254158033       -1.87957183659495       -2.23736327703019
H            3.04908567519016       -0.21527378118118       -2.58460405602101
H            3.67778888915753       -3.11657705115301       -0.58482453783874
H            5.29433928521962       -3.22606107170386        1.29633120353677
H            5.49565507391084        1.05158435097613        1.37922535858366
H            3.87942987311656        1.16377021420817       -0.50955939461293
H            0.88020410630746        3.26687786080828       -1.68452419089329

          :  Hamiltonian                  GFN1-xTB          :
         :: total energy             -76.186174691180 Eh    ::
         :: gradient norm              0.000408079666 Eh/a0 ::
         :: HOMO-LUMO gap              2.796040327348 eV    ::
         :: SCC energy               -77.029234310724 Eh    ::
         :: -> Gsolv                  -0.049545453258 Eh    ::
         :: repulsion energy           0.870640115944 Eh    ::

    * Orbital Energies and Occupations

         #    Occupation            Energy/Eh            Energy/eV
      -------------------------------------------------------------
         1        2.0000           -0.8631074             -23.4863
       ...           ...                  ...                  ...
        52        2.0000           -0.5008113             -13.6278
        53        2.0000           -0.4939094             -13.4400
        54        2.0000           -0.4856428             -13.2150
        55        2.0000           -0.4729279             -12.8690
        56        2.0000           -0.4693501             -12.7717
        57        2.0000           -0.4648355             -12.6488
        58        2.0000           -0.4505963             -12.2613
        59        2.0000           -0.4503503             -12.2547
        60        2.0000           -0.4416169             -12.0170
        61        2.0000           -0.4362303             -11.8704
        62        2.0000           -0.4303289             -11.7098
        63        2.0000           -0.4170023             -11.3472
        64        2.0000           -0.4131048             -11.2412 (HOMO)
        65                         -0.3103523              -8.4451 (LUMO)
        66                         -0.2743160              -7.4645
        67                         -0.2724961              -7.4150
        68                         -0.2662017              -7.2437
        69                         -0.2271628              -6.1814
        70                         -0.1472066              -4.0057
        71                         -0.1445554              -3.9336
        72                         -0.1340988              -3.6490
        73                         -0.1236201              -3.3639
        74                         -0.1210708              -3.2945
        75                         -0.1183082              -3.2193
       ...                                ...                  ...
       134                          0.7131721              19.4064
      -------------------------------------------------------------
                  HL-Gap            0.1027526 Eh            2.7960 eV

Wiberg/Mayer (AO) data.
largest (>0.10) Wiberg bond orders for each atom

     #   Z sym  total        # sym  WBO       # sym  WBO       # sym  WBO
 ---------------------------------------------------------------------------
     1   6 C    3.922 --    26 H    0.977    27 H    0.976    25 H    0.969
                             2 N    0.930
     2   7 N    3.509 --     3 C    1.187    23 C    1.111     1 C    0.930
                            24 O    0.134
     3   6 C    3.923 --     8 N    1.549     2 N    1.187     4 C    0.975
     4   6 C    3.965 --     5 C    0.992     6 C    0.985     7 N    0.980
                             3 C    0.975
     5   6 C    3.995 --     4 C    0.992    28 H    0.985    29 H    0.984
                            30 H    0.983
     6   6 C    3.993 --    32 H    0.986     4 C    0.985    33 H    0.983
                            31 H    0.982
     7   7 N    2.993 --     4 C    0.980    34 H    0.941    35 H    0.939
     8   7 N    3.045 --     3 C    1.549     9 C    1.192
     9   6 C    3.963 --    21 C    1.482     8 N    1.192    10 C    1.017
    10   6 C    3.906 --    11 O    1.514    12 N    1.290     9 C    1.017
    11   8 O    1.904 --    10 C    1.514    12 N    0.163
    12   7 N    3.369 --    10 C    1.290    13 C    0.939    36 H    0.894
                            11 O    0.163
    13   6 C    3.945 --    14 C    0.993    37 H    0.977    38 H    0.967
                            12 N    0.939
    14   6 C    3.987 --    15 C    1.424    20 C    1.414    13 C    0.993
    15   6 C    3.994 --    16 C    1.438    14 C    1.424    39 H    0.971
                            19 C    0.110
    16   6 C    3.991 --    15 C    1.438    17 C    1.405    40 H    0.969
                            20 C    0.112
    17   6 C    3.860 --    16 C    1.405    19 C    1.397    18 F    0.924
    18   9 F    1.052 --    17 C    0.924
    19   6 C    3.992 --    20 C    1.449    17 C    1.397    41 H    0.970
                            15 C    0.110
    20   6 C    3.992 --    19 C    1.449    14 C    1.414    42 H    0.969
                            16 C    0.112
    21   6 C    3.923 --     9 C    1.482    22 O    1.109    23 C    1.082
    22   8 O    2.071 --    21 C    1.109    43 H    0.773
    23   6 C    3.913 --    24 O    1.568     2 N    1.111    21 C    1.082
    24   8 O    1.881 --    23 C    1.568     2 N    0.134
    25   1 H    1.029 --     1 C    0.969
    26   1 H    1.005 --     1 C    0.977
    27   1 H    1.009 --     1 C    0.976
    28   1 H    1.003 --     5 C    0.985
    29   1 H    1.010 --     5 C    0.984
    30   1 H    1.012 --     5 C    0.983
    31   1 H    1.004 --     6 C    0.982
    32   1 H    1.003 --     6 C    0.986
    33   1 H    1.000 --     6 C    0.983
    34   1 H    0.956 --     7 N    0.941
    35   1 H    0.954 --     7 N    0.939
    36   1 H    0.959 --    12 N    0.894
    37   1 H    1.002 --    13 C    0.977
    38   1 H    1.008 --    13 C    0.967
    39   1 H    0.999 --    15 C    0.971
    40   1 H    0.998 --    16 C    0.969
    41   1 H    0.998 --    19 C    0.970
    42   1 H    1.009 --    20 C    0.969
    43   1 H    0.860 --    22 O    0.773
 ---------------------------------------------------------------------------

           -------------------------------------------------
          | TOTAL ENERGY              -76.186174691180 Eh   |
          | GRADIENT NORM               0.000408079666 Eh/α |
          | HOMO-LUMO GAP               2.796040327348 eV   |
           -------------------------------------------------

 * finished run on 2023/06/20 at 14:51:53.583
