   * xtb version 6.5.1 (579679a) compiled by 'ehlert@majestix' on 2022-07-11
          program call               : /lustre/hpc/kemi/ree/PhD/git/ReactivityQM/dep/xtb-6.5.1/bin/xtb --gfn 1 /lustre/hpc/kemi/ree/PhD/git/ReactivityQM/calculations/R03/reac01prodE03/conf04/R03_reac01prodE03_conf04_gfn1.xyz --opt --vfukui --chrg -1 --uhf 0 --alpb DMSO

   ID    Z sym.   atoms
    1    6 C      1-5, 7-9
    2    7 N      6
    3    9 F      10
    4    1 H      11-21

      * Solvation model:               ALPB
        Solvent                        DMSO
        Solvent mass                       7.8130E+01 g/mol
          :  Hamiltonian                  GFN1-xTB          :
 * total energy  :   -31.4509811 Eh     change       -0.3364420E-11 Eh
 * total energy  :   -31.4569058 Eh     change       -0.5924730E-02 Eh
 * total energy  :   -31.4581651 Eh     change       -0.1259298E-02 Eh
 * total energy  :   -31.4583547 Eh     change       -0.1896156E-03 Eh
 * total energy  :   -31.4584819 Eh     change       -0.1271411E-03 Eh
 * total energy  :   -31.4585847 Eh     change       -0.1028294E-03 Eh
 * total energy  :   -31.4587093 Eh     change       -0.1245924E-03 Eh
 * total energy  :   -31.4588108 Eh     change       -0.1014621E-03 Eh
 * total energy  :   -31.4588700 Eh     change       -0.5928840E-04 Eh
 * total energy  :   -31.4588907 Eh     change       -0.2070384E-04 Eh
 * total energy  :   -31.4589016 Eh     change       -0.1086183E-04 Eh
 * total energy  :   -31.4589066 Eh     change       -0.4969501E-05 Eh
   *** GEOMETRY OPTIMIZATION CONVERGED AFTER 12 ITERATIONS ***

 final structure:
================
21
 xtb: 6.5.1 (579679a)
C           -2.58882748692156        0.90706684773365        0.46688293782819
C           -1.62735658462006        0.09566097371775       -0.46229237610653
C           -0.23233446238352        0.69070880436259       -0.47638599013755
C            0.83690170420337        0.10551228199761        0.15212688998330
C            2.17152328876106        0.82593027941200        0.15368127881439
N            2.98313632072680        0.42657606220061       -1.01394115707563
C            0.77162076024231       -1.17675509848139        0.73424029382249
C           -0.43813165033286       -1.90124109409038        0.58553899284248
C           -1.50588660462731       -1.32765983715786       -0.00901445953989
F           -2.65596990316934       -2.08857126318558       -0.21968272455816
H           -3.58115897413204        0.45309647958581        0.47681036161644
H           -2.19737214798616        0.92302738962349        1.48465710408446
H           -2.67447032115061        1.93424119895449        0.11010300410519
H           -2.08166611704707        0.13558895389275       -1.47338520884843
H           -0.13066872641124        1.65782020334467       -0.96341357497333
H            2.02488620957935        1.91263261457466        0.09771474125817
H            2.72130611790235        0.60904690704713        1.08523607324386
H            3.21805206685934       -0.55524795734792       -0.91860688770446
H            3.85334911131744        0.93724774759784       -0.97698595311468
H            1.63119028062210       -1.62864018102155        1.21356336122725
H           -0.49812088143174       -2.93604031276049        0.91477729323289

          :  Hamiltonian                  GFN1-xTB          :
         :: total energy             -31.458906573939 Eh    ::
         :: gradient norm              0.000800402230 Eh/a0 ::
         :: HOMO-LUMO gap              2.566359739020 eV    ::
         :: SCC energy               -31.829352880382 Eh    ::
         :: -> Gsolv                  -0.083926709825 Eh    ::
         :: repulsion energy           0.380336736585 Eh    ::

    * Orbital Energies and Occupations

         #    Occupation            Energy/Eh            Energy/eV
      -------------------------------------------------------------
         1        2.0000           -0.7814751             -21.2650
       ...           ...                  ...                  ...
        16        2.0000           -0.4833709             -13.1532
        17        2.0000           -0.4782492             -13.0138
        18        2.0000           -0.4710055             -12.8167
        19        2.0000           -0.4613379             -12.5536
        20        2.0000           -0.4564504             -12.4206
        21        2.0000           -0.4472525             -12.1704
        22        2.0000           -0.4325503             -11.7703
        23        2.0000           -0.4116494             -11.2016
        24        2.0000           -0.4046723             -11.0117
        25        2.0000           -0.3993842             -10.8678
        26        2.0000           -0.3743417             -10.1864
        27        2.0000           -0.3602223              -9.8021
        28        2.0000           -0.2719166              -7.3992 (HOMO)
        29                         -0.1776046              -4.8329 (LUMO)
        30                         -0.1117809              -3.0417
        31                         -0.0841871              -2.2908
        32                         -0.0788149              -2.1447
        33                         -0.0708341              -1.9275
        34                         -0.0550530              -1.4981
        35                         -0.0484753              -1.3191
        36                         -0.0457132              -1.2439
        37                         -0.0361828              -0.9846
        38                         -0.0238996              -0.6503
        39                         -0.0212333              -0.5778
       ...                                ...                  ...
        62                          0.6657599              18.1162
      -------------------------------------------------------------
                  HL-Gap            0.0943120 Eh            2.5664 eV

Wiberg/Mayer (AO) data.
largest (>0.10) Wiberg bond orders for each atom

     #   Z sym  total        # sym  WBO       # sym  WBO       # sym  WBO
 ---------------------------------------------------------------------------
     1   6 C    3.992 --    12 H    0.989    13 H    0.988    11 H    0.988
                             2 C    0.962
     2   6 C    3.993 --     9 C    1.008     3 C    1.002    14 H    0.967
                             1 C    0.962
     3   6 C    3.903 --     4 C    1.580     2 C    1.002    15 H    0.975
                             7 C    0.116
     4   6 C    3.986 --     3 C    1.580     7 C    1.319     5 C    0.995
     5   6 C    3.969 --     4 C    0.995    16 H    0.982    17 H    0.976
                             6 N    0.976
     6   7 N    2.933 --     5 C    0.976    19 H    0.958    18 H    0.958
     7   6 C    3.882 --     4 C    1.319     8 C    1.271    20 H    0.976
                             3 C    0.116     9 C    0.108
     8   6 C    3.989 --     9 C    1.627     7 C    1.271    21 H    0.972
     9   6 C    3.768 --     8 C    1.627     2 C    1.008    10 F    0.832
                             7 C    0.108
    10   9 F    0.940 --     9 C    0.832
    11   1 H    1.014 --     1 C    0.988
    12   1 H    1.025 --     1 C    0.989
    13   1 H    1.016 --     1 C    0.988
    14   1 H    1.023 --     2 C    0.967
    15   1 H    1.003 --     3 C    0.975
    16   1 H    1.020 --     5 C    0.982
    17   1 H    1.010 --     5 C    0.976
    18   1 H    0.978 --     6 N    0.958
    19   1 H    0.972 --     6 N    0.958
    20   1 H    1.002 --     7 C    0.976
    21   1 H    1.008 --     8 C    0.972
 ---------------------------------------------------------------------------

           -------------------------------------------------
          | TOTAL ENERGY              -31.458906573939 Eh   |
          | GRADIENT NORM               0.000800402230 Eh/α |
          | HOMO-LUMO GAP               2.566359739020 eV   |
           -------------------------------------------------

 * finished run on 2023/06/20 at 15:13:23.922
