   * xtb version 6.5.1 (579679a) compiled by 'ehlert@majestix' on 2022-07-11
          program call               : /lustre/hpc/kemi/ree/PhD/git/ReactivityQM/dep/xtb-6.5.1/bin/xtb --gfn 1 /lustre/hpc/kemi/ree/PhD/git/ReactivityQM/calculations/RaltegravirCLI/reac02prodN09/conf17/RaltegravirCLI_reac02prodN09_conf17_gfn1.xyz --opt --vfukui --chrg 1 --uhf 0 --alpb DMSO

   ID    Z sym.   atoms
    1    6 C      1-4, 6-9, 11, 13, 15-18, 21, 22, 24
    2    9 F      5
    3    7 N      10, 14, 19, 20
    4    8 O      12, 23, 25
    5    1 H      26-47

      * Solvation model:               ALPB
        Solvent                        DMSO
        Solvent mass                       7.8130E+01 g/mol
          :  Hamiltonian                  GFN1-xTB          :
 * total energy  :   -79.4719622 Eh     change       -0.4172165E-09 Eh
 * total energy  :   -79.4804082 Eh     change       -0.8445918E-02 Eh
 * total energy  :   -79.4828544 Eh     change       -0.2446210E-02 Eh
 * total energy  :   -79.4832974 Eh     change       -0.4430062E-03 Eh
 * total energy  :   -79.4837417 Eh     change       -0.4443428E-03 Eh
 * total energy  :   -79.4839643 Eh     change       -0.2225513E-03 Eh
 * total energy  :   -79.4841728 Eh     change       -0.2085255E-03 Eh
 * total energy  :   -79.4843475 Eh     change       -0.1746850E-03 Eh
 * total energy  :   -79.4844429 Eh     change       -0.9543389E-04 Eh
 * total energy  :   -79.4845061 Eh     change       -0.6319329E-04 Eh
 * total energy  :   -79.4860486 Eh     change       -0.6279189E-04 Eh
 * total energy  :   -79.4860963 Eh     change       -0.4774743E-04 Eh
 * total energy  :   -79.4861406 Eh     change       -0.4426321E-04 Eh
 * total energy  :   -79.4861575 Eh     change       -0.1692833E-04 Eh
 * total energy  :   -79.4861809 Eh     change       -0.2339413E-04 Eh
 * total energy  :   -79.4861975 Eh     change       -0.1655598E-04 Eh
 * total energy  :   -79.4862035 Eh     change       -0.6066885E-05 Eh
 * total energy  :   -79.4862086 Eh     change       -0.5082208E-05 Eh
 * total energy  :   -79.4862121 Eh     change       -0.3471419E-05 Eh
   *** GEOMETRY OPTIMIZATION CONVERGED AFTER 43 ITERATIONS ***

 final structure:
================
47
 xtb: 6.5.1 (579679a)
C            2.28501555117421       -0.36403385094232        2.56399981884452
C            3.57630059289027       -0.58910369020781        1.73478025251809
C            4.49921234597947        0.55476495834568        1.85144420688357
C            5.10609611981891        1.06614290485926        0.74690148276158
F            5.94386136425484        2.08735066537898        0.87219396671894
C            4.86509273244770        0.56835700724252       -0.54221258100976
C            3.98803218250350       -0.49559424138278       -0.71579669456389
C            3.34033571949188       -1.07651707739240        0.35897744350420
C            2.36063483193444       -2.19119357135446        0.12153380400291
N            1.08160129977637       -1.56974400286646       -0.17920187273546
C            0.79517177375182       -1.13213423678180       -1.42668893247686
O            1.54186110658324       -1.31395321889735       -2.38596108702681
C           -0.50938566216807       -0.45225829068132       -1.53426526381082
N           -1.17847098435342       -0.22766569051800       -0.36728107128318
C           -2.33295676168307        0.36959580664208       -0.36674447723422
C           -2.97460682524163        0.55958446937347        1.00187828840030
C           -1.93569841098941        0.24706153137266        2.09135233526277
C           -4.16914465427054       -0.39125081888674        1.15612301323374
N           -3.42227089299190        1.93898852544469        1.15813250891358
N           -2.93067489349178        0.76182277592049       -1.53071315100970
C           -4.25569321862445        1.38959237540899       -1.59568728306672
C           -2.34437881718827        0.56743603803428       -2.78423621777929
O           -2.92510975898841        0.90617899242951       -3.80483746203420
C           -1.02732623261819       -0.06107476246417       -2.74154736537021
O           -0.40795223978820       -0.23861845643034       -3.91143873811692
H            1.72093368878515       -1.28974353009706        2.63917654114171
H            1.67497439947774        0.39486774356303        2.07937930663863
H            2.55183102669656       -0.03063071166021        3.56456767867620
H            4.08001372587060       -1.42749196892368        2.25384612612131
H            4.68086796428545        0.97129592376975        2.83474093603784
H            5.36428791144646        1.02411689914162       -1.38967107704100
H            3.79744171246789       -0.87013672921048       -1.71591698746744
H            2.24255866420268       -2.82876470905566        0.99670774624212
H            2.66096362524811       -2.78618822651647       -0.74530124561715
H            0.48178811663821       -1.28198314095952        0.57995671253942
H           -1.05343756695750        0.87024289571480        1.95782759215041
H           -2.36523591580064        0.44773954384661        3.07119069859772
H           -1.63343010833230       -0.79733833224704        2.04199306707808
H           -4.96307683995999       -0.14393807473205        0.45425086710227
H           -4.56358531010885       -0.31404340230357        2.16811604021726
H           -3.84752840676195       -1.41697240447711        0.98141068840256
H           -2.62260685652230        2.55555268951078        1.17867533594336
H           -3.91650503575239        2.03188915799251        2.03411391931965
H           -4.49346756695023        1.85277911857679       -0.64306925095631
H           -4.23623460847895        2.14933880502182       -2.37825960872139
H           -4.99908288834613        0.63290110531630       -1.84942842670934
H            0.46898500065328       -0.65722779392035       -3.76404558321440

          :  Hamiltonian                  GFN1-xTB          :
         :: total energy             -79.486212095766 Eh    ::
         :: gradient norm              0.000672271432 Eh/a0 ::
         :: HOMO-LUMO gap              0.176188130655 eV    ::
         :: SCC energy               -80.364827332531 Eh    ::
         :: -> Gsolv                  -0.117016789143 Eh    ::
         :: repulsion energy           0.910239162800 Eh    ::

    * Orbital Energies and Occupations

         #    Occupation            Energy/Eh            Energy/eV
      -------------------------------------------------------------
         1        2.0000           -0.9137629             -24.8648
       ...           ...                  ...                  ...
        55        2.0000           -0.5219231             -14.2023
        56        2.0000           -0.5182731             -14.1029
        57        2.0000           -0.5089197             -13.8484
        58        2.0000           -0.5033397             -13.6966
        59        2.0000           -0.5016620             -13.6509
        60        2.0000           -0.4951111             -13.4727
        61        2.0000           -0.4861045             -13.2276
        62        2.0000           -0.4782789             -13.0146
        63        2.0000           -0.4672115             -12.7135
        64        2.0000           -0.4621226             -12.5750
        65        2.0000           -0.4463132             -12.1448
        66        1.9999           -0.4295664             -11.6891
        67        1.9359           -0.4233432             -11.5198 (HOMO)
        68        0.0642           -0.4168684             -11.3436 (LUMO)
        69                         -0.3275791              -8.9139
        70                         -0.3230689              -8.7912
        71                         -0.2863862              -7.7930
        72                         -0.2448213              -6.6619
        73                         -0.2398070              -6.5255
        74                         -0.1656449              -4.5074
        75                         -0.1609784              -4.3804
        76                         -0.1565094              -4.2588
        77                         -0.1448383              -3.9413
        78                         -0.1392971              -3.7905
       ...                                ...                  ...
       144                          0.7082791              19.2733
      -------------------------------------------------------------
                  HL-Gap            0.0064748 Eh            0.1762 eV

Wiberg/Mayer (AO) data.
largest (>0.10) Wiberg bond orders for each atom

     #   Z sym  total        # sym  WBO       # sym  WBO       # sym  WBO
 ---------------------------------------------------------------------------
     1   6 C    3.963 --    27 H    0.982    26 H    0.981    28 H    0.980
                             2 C    0.917
     2   6 C    3.987 --     3 C    1.084     8 C    1.081     1 C    0.917
                            29 H    0.836
     3   6 C    3.931 --     4 C    1.539     2 C    1.084    30 H    0.959
     4   6 C    3.882 --     3 C    1.539     6 C    1.288     5 F    0.965
     5   9 F    1.107 --     4 C    0.965
     6   6 C    3.912 --     7 C    1.420     4 C    1.288    31 H    0.961
     7   6 C    3.980 --     8 C    1.475     6 C    1.420    32 H    0.954
     8   6 C    3.897 --     7 C    1.475     2 C    1.081     9 C    1.010
     9   6 C    3.946 --     8 C    1.010    33 H    0.970    34 H    0.961
                            10 N    0.935
    10   7 N    3.346 --    11 C    1.231     9 C    0.935    35 H    0.884
                            12 O    0.147
    11   6 C    3.897 --    12 O    1.548    10 N    1.231    13 C    1.027
    12   8 O    1.922 --    11 C    1.548    10 N    0.147
    13   6 C    3.958 --    24 C    1.469    14 N    1.192    11 C    1.027
    14   7 N    3.043 --    15 C    1.540    13 C    1.192
    15   6 C    3.918 --    14 N    1.540    20 N    1.195    16 C    0.975
    16   6 C    3.958 --    17 C    0.986    18 C    0.983    19 N    0.981
                            15 C    0.975
    17   6 C    3.983 --    16 C    0.986    37 H    0.984    36 H    0.984
                            38 H    0.982
    18   6 C    3.991 --    41 H    0.985    16 C    0.983    40 H    0.982
                            39 H    0.982
    19   7 N    2.971 --    16 C    0.981    42 H    0.934    43 H    0.932
    20   7 N    3.511 --    15 C    1.195    22 C    1.108    21 C    0.927
                            23 O    0.134
    21   6 C    3.913 --    45 H    0.976    46 H    0.976    44 H    0.966
                            20 N    0.927
    22   6 C    3.911 --    23 O    1.584    20 N    1.108    24 C    1.071
    23   8 O    1.894 --    22 C    1.584    20 N    0.134
    24   6 C    3.910 --    13 C    1.469    25 O    1.119    22 C    1.071
    25   8 O    2.083 --    24 C    1.119    47 H    0.783
    26   1 H    0.994 --     1 C    0.981
    27   1 H    0.999 --     1 C    0.982
    28   1 H    0.992 --     1 C    0.980
    29   1 H    0.970 --     2 C    0.836
    30   1 H    0.985 --     3 C    0.959
    31   1 H    0.988 --     6 C    0.961
    32   1 H    1.004 --     7 C    0.954
    33   1 H    0.995 --     9 C    0.970
    34   1 H    0.999 --     9 C    0.961
    35   1 H    0.954 --    10 N    0.884
    36   1 H    1.010 --    17 C    0.984
    37   1 H    1.001 --    17 C    0.984
    38   1 H    1.010 --    17 C    0.982
    39   1 H    1.002 --    18 C    0.982
    40   1 H    0.998 --    18 C    0.982
    41   1 H    1.002 --    18 C    0.985
    42   1 H    0.949 --    19 N    0.934
    43   1 H    0.947 --    19 N    0.932
    44   1 H    1.024 --    21 C    0.966
    45   1 H    1.008 --    21 C    0.976
    46   1 H    1.002 --    21 C    0.976
    47   1 H    0.854 --    25 O    0.783
 ---------------------------------------------------------------------------

           -------------------------------------------------
          | TOTAL ENERGY              -79.486212095766 Eh   |
          | GRADIENT NORM               0.000672271432 Eh/α |
          | HOMO-LUMO GAP               0.176188130655 eV   |
           -------------------------------------------------

 * finished run on 2023/06/20 at 15:28:24.153
