   * xtb version 6.5.1 (579679a) compiled by 'ehlert@majestix' on 2022-07-11
          program call               : /lustre/hpc/kemi/ree/PhD/git/ReactivityQM/dep/xtb-6.5.1/bin/xtb --gfn 1 /lustre/hpc/kemi/ree/PhD/git/ReactivityQM/calculations/RaltegravirCLI/reac02prodN09/conf14/RaltegravirCLI_reac02prodN09_conf14_gfn1.xyz --opt --vfukui --chrg 1 --uhf 0 --alpb DMSO

   ID    Z sym.   atoms
    1    6 C      1-4, 6-9, 11, 13, 15-18, 21, 22, 24
    2    9 F      5
    3    7 N      10, 14, 19, 20
    4    8 O      12, 23, 25
    5    1 H      26-47

      * Solvation model:               ALPB
        Solvent                        DMSO
        Solvent mass                       7.8130E+01 g/mol
          :  Hamiltonian                  GFN1-xTB          :
 * total energy  :   -79.4704242 Eh     change       -0.2899014E-11 Eh
 * total energy  :   -79.4805646 Eh     change       -0.1014043E-01 Eh
 * total energy  :   -79.4833023 Eh     change       -0.2737680E-02 Eh
 * total energy  :   -79.4838565 Eh     change       -0.5541762E-03 Eh
 * total energy  :   -79.4845341 Eh     change       -0.6776404E-03 Eh
 * total energy  :   -79.4851950 Eh     change       -0.6608262E-03 Eh
 * total energy  :   -79.4866614 Eh     change       -0.1466406E-02 Eh
 * total energy  :   -79.4887014 Eh     change       -0.2040073E-02 Eh
 * total energy  :   -79.4921795 Eh     change       -0.3478094E-02 Eh
 * total energy  :   -79.4974528 Eh     change       -0.5273287E-02 Eh
 * total energy  :   -79.5455962 Eh     change       -0.8847820E-04 Eh
 * total energy  :   -79.5456752 Eh     change       -0.7898880E-04 Eh
 * total energy  :   -79.5457597 Eh     change       -0.8451820E-04 Eh
 * total energy  :   -79.5457819 Eh     change       -0.2220898E-04 Eh
 * total energy  :   -79.5458488 Eh     change       -0.6691890E-04 Eh
 * total energy  :   -79.5458792 Eh     change       -0.3037103E-04 Eh
 * total energy  :   -79.5458899 Eh     change       -0.1063950E-04 Eh
 * total energy  :   -79.5459005 Eh     change       -0.1060090E-04 Eh
 * total energy  :   -79.5459054 Eh     change       -0.4972090E-05 Eh
   *** GEOMETRY OPTIMIZATION CONVERGED AFTER 96 ITERATIONS ***

 final structure:
================
47
 xtb: 6.5.1 (579679a)
C            5.73210235596435        1.32880582710717       -1.05927076965495
C            5.18067537525315        0.51244227797470        0.07589134362656
C            6.03949903712200       -0.24764892612526        0.86383984725707
C            5.52185941014175       -0.99225179322962        1.90791300083134
F            6.36238185226637       -1.71852275308083        2.65531581292525
C            4.17294251749717       -1.01387163385682        2.20801566125970
C            3.31912149598398       -0.25527421514656        1.41988938978566
C            3.80779724765538        0.50296315716138        0.36100002840127
C            2.87947670359986        1.33063342296803       -0.50686992395224
N            1.49641127820512        1.25926488305001       -0.05218646482299
C            0.54020524061460        0.53662717510695       -0.57418347154615
O            0.70945698799117       -0.20781068375029       -1.63094902546517
C           -0.79729475795026        0.53004269220211        0.00339920665654
N           -1.71140039258587       -0.24519504358912       -0.65089803202544
C           -2.94276025076047       -0.32917394560055       -0.24887773810286
C           -3.84385665639437       -1.22998339938864       -1.08224860426730
C           -4.57050876160689       -0.36630099794684       -2.12459509266727
C           -2.97477393311081       -2.27532738038071       -1.80314322776970
N           -4.82081844767015       -1.90128901322862       -0.23569558293320
N           -3.40160813202161        0.38190746429926        0.83150680364983
C           -4.80056421920125        0.37149244291047        1.27610275041162
C           -2.54973763576195        1.14924749709734        1.59909555437096
O           -2.90458164078911        1.76185163448939        2.59762818823616
C           -1.17069459284452        1.21029085456818        1.13253090223521
O           -0.33919060946617        1.95797943138766        1.86206342940218
H            5.27168119460585        1.03126125364487       -2.00194581840433
H            6.81059716101448        1.19827332263521       -1.14185094696291
H            5.51947843428127        2.38766566788610       -0.90366905811265
H            1.58139943874370       -0.17477500102108       -2.05037248067999
H            7.10467150931456       -0.26188593604736        0.66717160218708
H            3.79747489355665       -1.60591987251100        3.03196221494638
H            2.25910988649902       -0.25843309566144        1.63807617437953
H            2.93179756130793        1.00170239704973       -1.54723952227516
H            3.16670868944364        2.38551885093697       -0.47306086643291
H            1.27350977273944        1.82716335190768        0.75817532820181
H           -5.22739016033529        0.35731274449719       -1.64514311707459
H           -5.16865610809335       -1.00660061073642       -2.77136586822491
H           -3.84199219715678        0.16880103069176       -2.73242145126241
H           -3.61884741671520       -2.96330024962969       -2.34800647312532
H           -2.38746210666640       -2.83699049960105       -1.07845656411145
H           -2.29601694330243       -1.79083878217403       -2.50323125474611
H           -5.50764573854129       -2.35706264506547       -0.82130131927509
H           -4.35750919784492       -2.61629874873415        0.30973701561973
H           -4.98073598018266       -0.51151496954489        1.88685854165685
H           -4.97219249334729        1.27122863345409        1.86637189305195
H           -5.46262601094873        0.35865457918207        0.41722965154009
H           -0.82949466051050        2.34513760383272        2.61721033326100

          :  Hamiltonian                  GFN1-xTB          :
         :: total energy             -79.545905423018 Eh    ::
         :: gradient norm              0.000762113927 Eh/a0 ::
         :: HOMO-LUMO gap              1.605043562944 eV    ::
         :: SCC energy               -80.449334660225 Eh    ::
         :: -> Gsolv                  -0.108926565876 Eh    ::
         :: repulsion energy           0.933436590773 Eh    ::

    * Orbital Energies and Occupations

         #    Occupation            Energy/Eh            Energy/eV
      -------------------------------------------------------------
         1        2.0000           -0.8825635             -24.0158
       ...           ...                  ...                  ...
        55        2.0000           -0.5141160             -13.9898
        56        2.0000           -0.5110706             -13.9069
        57        2.0000           -0.5064339             -13.7808
        58        2.0000           -0.5044925             -13.7279
        59        2.0000           -0.4966029             -13.5133
        60        2.0000           -0.4865828             -13.2406
        61        2.0000           -0.4844779             -13.1833
        62        2.0000           -0.4792858             -13.0420
        63        2.0000           -0.4667146             -12.6999
        64        2.0000           -0.4577527             -12.4561
        65        2.0000           -0.4482495             -12.1975
        66        2.0000           -0.4467669             -12.1571
        67        2.0000           -0.4225990             -11.4995 (HOMO)
        68                         -0.3636147              -9.8945 (LUMO)
        69                         -0.3019759              -8.2172
        70                         -0.2834163              -7.7122
        71                         -0.2788052              -7.5867
        72                         -0.2773625              -7.5474
        73                         -0.1835007              -4.9933
        74                         -0.1783556              -4.8533
        75                         -0.1571834              -4.2772
        76                         -0.1469511              -3.9987
        77                         -0.1406309              -3.8268
        78                         -0.1321469              -3.5959
       ...                                ...                  ...
       144                          0.6827346              18.5782
      -------------------------------------------------------------
                  HL-Gap            0.0589843 Eh            1.6050 eV

Wiberg/Mayer (AO) data.
largest (>0.10) Wiberg bond orders for each atom

     #   Z sym  total        # sym  WBO       # sym  WBO       # sym  WBO
 ---------------------------------------------------------------------------
     1   6 C    3.994 --     2 C    1.027    27 H    0.982    26 H    0.969
                            28 H    0.968
     2   6 C    3.987 --     3 C    1.423     8 C    1.378     1 C    1.027
                             6 C    0.107
     3   6 C    3.989 --     2 C    1.423     4 C    1.398    30 H    0.966
                             7 C    0.106
     4   6 C    3.864 --     6 C    1.400     3 C    1.398     5 F    0.933
     5   9 F    1.064 --     4 C    0.933
     6   6 C    3.991 --     7 C    1.435     4 C    1.400    31 H    0.968
                             2 C    0.107
     7   6 C    3.994 --     6 C    1.435     8 C    1.429    32 H    0.969
                             3 C    0.106
     8   6 C    3.980 --     7 C    1.429     2 C    1.378     9 C    0.988
     9   6 C    3.916 --     8 C    0.988    33 H    0.959    34 H    0.956
                            10 N    0.926
    10   7 N    3.484 --    11 C    1.466     9 C    0.926    35 H    0.858
                            12 O    0.111
    11   6 C    3.870 --    10 N    1.466    12 O    1.193    13 C    1.087
    12   8 O    2.160 --    11 C    1.193    29 H    0.791    10 N    0.111
    13   6 C    3.964 --    24 C    1.454    14 N    1.185    11 C    1.087
    14   7 N    3.024 --    15 C    1.557    13 C    1.185
    15   6 C    3.914 --    14 N    1.557    20 N    1.176    16 C    0.977
    16   6 C    3.964 --    19 N    0.988    18 C    0.986    17 C    0.978
                            15 C    0.977
    17   6 C    3.992 --    38 H    0.985    37 H    0.982    36 H    0.980
                            16 C    0.978
    18   6 C    3.993 --    16 C    0.986    39 H    0.985    40 H    0.985
                            41 H    0.983
    19   7 N    2.976 --    16 C    0.988    43 H    0.939    42 H    0.936
    20   7 N    3.526 --    15 C    1.176    22 C    1.145    21 C    0.919
                            23 O    0.140
    21   6 C    3.910 --    46 H    0.977    45 H    0.975    44 H    0.973
                            20 N    0.919
    22   6 C    3.921 --    23 O    1.565    20 N    1.145    24 C    1.067
    23   8 O    1.915 --    22 C    1.565    20 N    0.140
    24   6 C    3.915 --    13 C    1.454    25 O    1.111    22 C    1.067
    25   8 O    2.105 --    24 C    1.111    47 H    0.779
    26   1 H    0.999 --     1 C    0.969
    27   1 H    0.999 --     1 C    0.982
    28   1 H    0.999 --     1 C    0.968
    29   1 H    0.820 --    12 O    0.791
    30   1 H    0.996 --     3 C    0.966
    31   1 H    0.996 --     6 C    0.968
    32   1 H    1.000 --     7 C    0.969
    33   1 H    0.999 --     9 C    0.959
    34   1 H    0.997 --     9 C    0.956
    35   1 H    0.922 --    10 N    0.858
    36   1 H    1.003 --    17 C    0.980
    37   1 H    0.998 --    17 C    0.982
    38   1 H    1.003 --    17 C    0.985
    39   1 H    1.002 --    18 C    0.985
    40   1 H    1.006 --    18 C    0.985
    41   1 H    1.012 --    18 C    0.983
    42   1 H    0.950 --    19 N    0.936
    43   1 H    0.954 --    19 N    0.939
    44   1 H    1.014 --    21 C    0.973
    45   1 H    1.005 --    21 C    0.975
    46   1 H    1.021 --    21 C    0.977
    47   1 H    0.823 --    25 O    0.779
 ---------------------------------------------------------------------------

           -------------------------------------------------
          | TOTAL ENERGY              -79.545905423018 Eh   |
          | GRADIENT NORM               0.000762113927 Eh/α |
          | HOMO-LUMO GAP               1.605043562944 eV   |
           -------------------------------------------------

 * finished run on 2023/06/20 at 15:29:05.883
