   * xtb version 6.5.1 (579679a) compiled by 'ehlert@majestix' on 2022-07-11
          program call               : /lustre/hpc/kemi/ree/PhD/git/ReactivityQM/dep/xtb-6.5.1/bin/xtb --gfn 1 /lustre/hpc/kemi/ree/PhD/git/ReactivityQM/calculations/R02oxygendeprot/reac01prodN10/conf07/R02oxygendeprot_reac01prodN10_conf07_gfn1.xyz --opt --vfukui --chrg 0 --uhf 0 --alpb DMSO

   ID    Z sym.   atoms
    1    6 C      1, 3, 5, 6, 8, 11-15, 17, 19, 22, 23
    2    8 O      2, 4, 7, 9, 18, 24
    3    7 N      10, 16, 20, 21, 25
    4    1 H      26-42

      * Solvation model:               ALPB
        Solvent                        DMSO
        Solvent mass                       7.8130E+01 g/mol
          :  Hamiltonian                  GFN1-xTB          :
 * total energy  :   -82.9628060 Eh     change       -0.1452349E-10 Eh
 * total energy  :   -82.9750946 Eh     change       -0.1228862E-01 Eh
 * total energy  :   -82.9806437 Eh     change       -0.5549082E-02 Eh
 * total energy  :   -82.9818690 Eh     change       -0.1225296E-02 Eh
 * total energy  :   -82.9825553 Eh     change       -0.6862772E-03 Eh
 * total energy  :   -82.9828959 Eh     change       -0.3405976E-03 Eh
 * total energy  :   -82.9830901 Eh     change       -0.1941782E-03 Eh
 * total energy  :   -82.9832027 Eh     change       -0.1126914E-03 Eh
 * total energy  :   -82.9832977 Eh     change       -0.9496001E-04 Eh
 * total energy  :   -82.9833841 Eh     change       -0.8640203E-04 Eh
 * total energy  :   -82.9838524 Eh     change       -0.7137277E-05 Eh
 * total energy  :   -82.9838599 Eh     change       -0.7491286E-05 Eh
 * total energy  :   -82.9838668 Eh     change       -0.6875561E-05 Eh
 * total energy  :   -82.9838825 Eh     change       -0.1573078E-04 Eh
 * total energy  :   -82.9838904 Eh     change       -0.7888488E-05 Eh
 * total energy  :   -82.9838973 Eh     change       -0.6853701E-05 Eh
 * total energy  :   -82.9838955 Eh     change        0.1823147E-05 Eh
 * total energy  :   -82.9839002 Eh     change       -0.4763887E-05 Eh
 * total energy  :   -82.9839043 Eh     change       -0.4100633E-05 Eh
   *** GEOMETRY OPTIMIZATION CONVERGED AFTER 38 ITERATIONS ***

 final structure:
================
42
 xtb: 6.5.1 (579679a)
C           -4.24767871962392        3.44718419683608       -0.49834783012267
O           -3.94666903741362        2.07105873855983       -0.23135040991004
C           -2.74683559452929        1.80432387133850        0.24845457521960
O           -1.89520742872066        2.62739538782344        0.46998742823909
C           -2.53390854748368        0.31938244546120        0.47590933773121
C           -3.68354384548949       -0.61005937982285        0.66878435582956
O           -4.77658467031979       -0.26079444582304        1.03396067082608
C           -3.34428607515658       -2.07953101217445        0.40816860400457
O           -4.19048591893628       -2.92062784370547        0.18447083928702
N           -2.02297314681677       -2.35374526147610        0.42995242815601
C           -0.95430179679872       -1.42859745499249        0.75184564043972
C           -0.61374777199685       -1.54831258709727        2.24624929389926
C            0.27372084951595       -1.71205782337670       -0.17368229970751
C            0.92089252928322       -3.06365224344783        0.13057816513226
C           -0.16619663339052       -1.62888978723641       -1.64034491596257
N            1.21993796866936       -0.63237609665807        0.10455887865949
C            2.43438921466631       -0.53076363574644       -0.47933068082391
O            2.96592681280706       -1.37723063449398       -1.17440526654851
C            3.06762141478838        0.77017007274507       -0.14113691453560
N            2.53153184288108        1.72534967860868        0.55731423075774
N            3.44493496219699        2.73458938396079        0.60884493441360
C            4.48032994696961        2.33116941996953       -0.06359622158385
C            5.73986672118114        3.06713858436036       -0.31011588643345
O            4.30209491590650        1.09938018898411       -0.56333118396522
N           -1.31969313303553       -0.06518402556767        0.52850260686564
H           -5.26903190893695        3.47301267240304       -0.87123089618805
H           -4.15864815509221        4.03213758881984        0.41952630879646
H           -3.55657333319056        3.83844643259333       -1.24774245365301
H           -1.77856274718079       -3.33084472341942        0.37692447653766
H           -1.46606576214001       -1.20900193173204        2.83223082457186
H           -0.40415408935014       -2.58589236203537        2.49211171818323
H            0.25347450952167       -0.93537524529917        2.48104858429315
H            0.17684188141935       -3.85656044301038        0.09780543312066
H            1.38910327128804       -3.05402076761132        1.11280924997015
H            1.68446663177993       -3.27976566119519       -0.61489316063633
H           -0.90062333554065       -2.40336881921272       -1.85309631906127
H           -0.60663648773867       -0.65308615976753       -1.84215544685435
H            0.69677087298786       -1.77201435215058       -2.28885683608611
H            0.83365450609982        0.20557531712816        0.52473930008723
H            6.59409809406953        2.43438364151666       -0.07192557732373
H            5.76416703860030        3.96629502969517        0.30133342429403
H            5.80858415424313        3.34476004622509       -1.36268400992421

          :  Hamiltonian                  GFN1-xTB          :
         :: total energy             -82.983904328291 Eh    ::
         :: gradient norm              0.000891222955 Eh/a0 ::
         :: HOMO-LUMO gap              1.751807794507 eV    ::
         :: SCC energy               -83.764458496608 Eh    ::
         :: -> Gsolv                  -0.053566232121 Eh    ::
         :: repulsion energy           0.807868562761 Eh    ::

    * Orbital Energies and Occupations

         #    Occupation            Energy/Eh            Energy/eV
      -------------------------------------------------------------
         1        2.0000           -0.8650648             -23.5396
       ...           ...                  ...                  ...
        55        2.0000           -0.5082525             -13.8303
        56        2.0000           -0.5072436             -13.8028
        57        2.0000           -0.5056802             -13.7603
        58        2.0000           -0.5024486             -13.6723
        59        2.0000           -0.4976061             -13.5406
        60        2.0000           -0.4842640             -13.1775
        61        2.0000           -0.4834978             -13.1566
        62        2.0000           -0.4714574             -12.8290
        63        2.0000           -0.4656772             -12.6717
        64        2.0000           -0.4610518             -12.5459
        65        2.0000           -0.4537597             -12.3474
        66        2.0000           -0.4484710             -12.2035
        67        2.0000           -0.4403191             -11.9817 (HOMO)
        68                         -0.3759414             -10.2299 (LUMO)
        69                         -0.3215816              -8.7507
        70                         -0.3126651              -8.5081
        71                         -0.2582850              -7.0283
        72                         -0.2527093              -6.8766
        73                         -0.2054022              -5.5893
        74                         -0.2008854              -5.4664
        75                         -0.1440280              -3.9192
        76                         -0.1437823              -3.9125
        77                         -0.1433028              -3.8995
        78                         -0.1389408              -3.7808
       ...                                ...                  ...
       134                          0.7657418              20.8369
      -------------------------------------------------------------
                  HL-Gap            0.0643778 Eh            1.7518 eV

Wiberg/Mayer (AO) data.
largest (>0.10) Wiberg bond orders for each atom

     #   Z sym  total        # sym  WBO       # sym  WBO       # sym  WBO
 ---------------------------------------------------------------------------
     1   6 C    3.859 --    26 H    0.985    28 H    0.979    27 H    0.978
                             2 O    0.884
     2   8 O    2.227 --     3 C    1.149     1 C    0.884     4 O    0.147
     3   6 C    3.854 --     4 O    1.684     2 O    1.149     5 C    0.944
     4   8 O    1.948 --     3 C    1.684     2 O    0.147
     5   6 C    3.952 --    25 N    1.788     6 C    0.994     3 C    0.944
     6   6 C    3.857 --     7 O    1.804     5 C    0.994     8 C    0.907
     7   8 O    2.010 --     6 C    1.804
     8   6 C    3.903 --     9 O    1.635    10 N    1.247     6 C    0.907
     9   8 O    1.929 --     8 C    1.635    10 N    0.185
    10   7 N    3.364 --     8 C    1.247    11 C    0.940    29 H    0.882
                             9 O    0.185
    11   6 C    3.913 --    25 N    1.002    12 C    0.947    10 N    0.940
                            13 C    0.927
    12   6 C    3.982 --    30 H    0.982    32 H    0.981    31 H    0.980
                            11 C    0.947
    13   6 C    3.929 --    14 C    1.000    15 C    0.991    16 N    0.934
                            11 C    0.927
    14   6 C    3.989 --    13 C    1.000    34 H    0.982    33 H    0.981
                            35 H    0.974
    15   6 C    3.990 --    13 C    0.991    37 H    0.984    36 H    0.984
                            38 H    0.981
    16   7 N    3.339 --    17 C    1.244    13 C    0.934    39 H    0.886
                            18 O    0.175
    17   6 C    3.916 --    18 O    1.599    16 N    1.244    19 C    0.989
    18   8 O    1.915 --    17 C    1.599    16 N    0.175
    19   6 C    3.875 --    20 N    1.610    24 O    1.064    17 C    0.989
    20   7 N    3.017 --    19 C    1.610    21 N    1.200
    21   7 N    2.981 --    22 C    1.604    20 N    1.200
    22   6 C    3.871 --    21 N    1.604    24 O    1.083    23 C    1.031
    23   6 C    3.986 --    22 C    1.031    41 H    0.982    40 H    0.967
                            42 H    0.960
    24   8 O    2.330 --    22 C    1.083    19 C    1.064
    25   7 N    3.065 --     5 C    1.788    11 C    1.002
    26   1 H    1.008 --     1 C    0.985
    27   1 H    1.004 --     1 C    0.978
    28   1 H    1.004 --     1 C    0.979
    29   1 H    0.930 --    10 N    0.882
    30   1 H    0.999 --    12 C    0.982
    31   1 H    0.999 --    12 C    0.980
    32   1 H    0.999 --    12 C    0.981
    33   1 H    0.998 --    14 C    0.981
    34   1 H    1.001 --    14 C    0.982
    35   1 H    1.009 --    14 C    0.974
    36   1 H    1.002 --    15 C    0.984
    37   1 H    1.004 --    15 C    0.984
    38   1 H    1.004 --    15 C    0.981
    39   1 H    0.970 --    16 N    0.886
    40   1 H    0.997 --    23 C    0.967
    41   1 H    0.998 --    23 C    0.982
    42   1 H    0.997 --    23 C    0.960
 ---------------------------------------------------------------------------

           -------------------------------------------------
          | TOTAL ENERGY              -82.983904328291 Eh   |
          | GRADIENT NORM               0.000891222955 Eh/α |
          | HOMO-LUMO GAP               1.751807794507 eV   |
           -------------------------------------------------

 * finished run on 2023/06/21 at 17:25:35.255
