   * xtb version 6.5.1 (579679a) compiled by 'ehlert@majestix' on 2022-07-11
          program call               : /lustre/hpc/kemi/ree/PhD/git/ReactivityQM/dep/xtb-6.5.1/bin/xtb --gfn 1 /lustre/hpc/kemi/ree/PhD/git/ReactivityQM/calculations/R01/reac02prodN11/conf16/R01_reac02prodN11_conf16_gfn1.xyz --opt --vfukui --chrg 1 --uhf 0 --alpb DMSO

   ID    Z sym.   atoms
    1    6 C      1, 3, 5, 6, 8, 11-15
    2    8 O      2, 4, 7, 9
    3    7 N      10, 16, 17
    4    1 H      18-33

      * Solvation model:               ALPB
        Solvent                        DMSO
        Solvent mass                       7.8130E+01 g/mol
          :  Hamiltonian                  GFN1-xTB          :
 * total energy  :   -57.7887970 Eh     change       -0.3529266E-10 Eh
 * total energy  :   -57.8006504 Eh     change       -0.1185339E-01 Eh
 * total energy  :   -57.8048310 Eh     change       -0.4180609E-02 Eh
 * total energy  :   -57.8057375 Eh     change       -0.9065202E-03 Eh
 * total energy  :   -57.8061766 Eh     change       -0.4390633E-03 Eh
 * total energy  :   -57.8063628 Eh     change       -0.1862225E-03 Eh
 * total energy  :   -57.8064934 Eh     change       -0.1306141E-03 Eh
 * total energy  :   -57.8065830 Eh     change       -0.8958456E-04 Eh
 * total energy  :   -57.8066429 Eh     change       -0.5995074E-04 Eh
 * total energy  :   -57.8066798 Eh     change       -0.3684179E-04 Eh
 * total energy  :   -57.8667626 Eh     change       -0.6071179E-05 Eh
 * total energy  :   -57.8667705 Eh     change       -0.7845430E-05 Eh
 * total energy  :   -57.8667841 Eh     change       -0.1368031E-04 Eh
 * total energy  :   -57.8667972 Eh     change       -0.1305493E-04 Eh
 * total energy  :   -57.8668089 Eh     change       -0.1166479E-04 Eh
 * total energy  :   -57.8668111 Eh     change       -0.2221233E-05 Eh
 * total energy  :   -57.8668240 Eh     change       -0.1290495E-04 Eh
 * total energy  :   -57.8668339 Eh     change       -0.9854751E-05 Eh
 * total energy  :   -57.8668386 Eh     change       -0.4750190E-05 Eh
   *** GEOMETRY OPTIMIZATION CONVERGED AFTER 122 ITERATIONS ***

 final structure:
================
33
 xtb: 6.5.1 (579679a)
C            3.76871686701086        0.36513902512972        2.86879363049481
O            2.68692943246203        0.18392837029809        1.94755684257639
C            2.83522062497555       -0.77764813649904        1.03736362287872
O            3.81722181012645       -1.47517510668838        0.95784064551718
C            1.64876558175154       -0.87651775819192        0.13508372775214
C            1.57587159250565       -1.70743694429967       -0.94768265950889
O            2.54637640940938       -2.53305202733941       -1.33180934458271
C            0.37491947136997       -1.71916038050114       -1.77563698241505
O            0.27242914776071       -2.45392552138191       -2.74686818050483
N           -0.63020424834166       -0.83416738626031       -1.39752852888669
C           -1.80895396463577       -0.84517234131506       -2.26184284203407
C           -0.49259008083215       -0.06023225834502       -0.27024976668668
C           -1.53623065546533        0.94001404607829        0.21238723083669
C           -1.24566180096816        1.30888096643457        1.66983274110016
C           -1.56140878929185        2.19970857210709       -0.65470263682206
N           -2.92531414219396        0.33947406973733        0.21812007558689
N            0.58295571568927       -0.07564488005808        0.44255770519914
H            3.87230664986984       -0.52030999259150        3.50071402840507
H            4.70147415911154        0.53576625495430        2.32531711827947
H            3.51707735823944        1.23378656168105        3.47346720037641
H            2.25867522227211       -3.01698527393657       -2.12872631396560
H           -2.92031645515798       -0.60248859057855        0.59528805716990
H           -1.51635024112882       -1.28540861140401       -3.21563897635405
H           -2.58826148932154       -1.45664054845322       -1.81177796534412
H           -2.16360331396658        0.16573389252598       -2.42821253215382
H           -1.24381110012385        0.41585229430178        2.29208644777419
H           -2.00193285729416        2.00208740373694        2.03293607754827
H           -0.26763780110721        1.78291552968242        1.73578568161727
H           -1.85782973553801        1.97978337689969       -1.67724643731229
H           -2.26052022401982        2.92068926848849       -0.23464612134610
H           -0.56421100217355        2.63894054283534       -0.66613519706152
H           -3.52971251159945        0.90678462025604        0.80430936468433
H           -3.34439062940664        0.32048096269511       -0.70457071282067

          :  Hamiltonian                  GFN1-xTB          :
         :: total energy             -57.866838600719 Eh    ::
         :: gradient norm              0.000452736342 Eh/a0 ::
         :: HOMO-LUMO gap              2.954277960129 eV    ::
         :: SCC energy               -58.446338523606 Eh    ::
         :: -> Gsolv                  -0.137900313104 Eh    ::
         :: repulsion energy           0.598822621921 Eh    ::

    * Orbital Energies and Occupations

         #    Occupation            Energy/Eh            Energy/eV
      -------------------------------------------------------------
         1        2.0000           -0.8981871             -24.4409
       ...           ...                  ...                  ...
        35        2.0000           -0.5533738             -15.0581
        36        2.0000           -0.5484542             -14.9242
        37        2.0000           -0.5466525             -14.8752
        38        2.0000           -0.5450824             -14.8324
        39        2.0000           -0.5349260             -14.5561
        40        2.0000           -0.5290946             -14.3974
        41        2.0000           -0.5202092             -14.1556
        42        2.0000           -0.5034524             -13.6996
        43        2.0000           -0.4958643             -13.4932
        44        2.0000           -0.4928356             -13.4107
        45        2.0000           -0.4790497             -13.0356
        46        2.0000           -0.4629949             -12.5987
        47        2.0000           -0.4463585             -12.1460 (HOMO)
        48                         -0.3377908              -9.1918 (LUMO)
        49                         -0.3074648              -8.3665
        50                         -0.2529162              -6.8822
        51                         -0.2087065              -5.6792
        52                         -0.1756695              -4.7802
        53                         -0.1716398              -4.6706
        54                         -0.1599758              -4.3532
        55                         -0.1470100              -4.0003
        56                         -0.1423793              -3.8743
        57                         -0.1368896              -3.7250
        58                         -0.1195565              -3.2533
       ...                                ...                  ...
       100                          0.7369040              20.0522
      -------------------------------------------------------------
                  HL-Gap            0.1085677 Eh            2.9543 eV

Wiberg/Mayer (AO) data.
largest (>0.10) Wiberg bond orders for each atom

     #   Z sym  total        # sym  WBO       # sym  WBO       # sym  WBO
 ---------------------------------------------------------------------------
     1   6 C    3.867 --    20 H    0.986    19 H    0.979    18 H    0.979
                             2 O    0.893
     2   8 O    2.201 --     3 C    1.116     1 C    0.893     4 O    0.137
     3   6 C    3.855 --     4 O    1.667     2 O    1.116     5 C    0.994
     4   8 O    1.932 --     3 C    1.667     2 O    0.137
     5   6 C    3.960 --     6 C    1.491    17 N    1.182     3 C    0.994
     6   6 C    3.922 --     5 C    1.491     7 O    1.126     8 C    1.066
     7   8 O    2.103 --     6 C    1.126    21 H    0.800
     8   6 C    3.910 --     9 O    1.579    10 N    1.115     6 C    1.066
     9   8 O    1.925 --     8 C    1.579    10 N    0.135
    10   7 N    3.499 --    12 C    1.163     8 C    1.115    11 C    0.928
                             9 O    0.135
    11   6 C    3.917 --    25 H    0.974    24 H    0.974    23 H    0.966
                            10 N    0.928
    12   6 C    3.942 --    17 N    1.586    10 N    1.163    13 C    0.980
    13   6 C    3.884 --    14 C    0.999    15 C    0.991    12 C    0.980
                            16 N    0.874
    14   6 C    3.981 --    13 C    0.999    26 H    0.982    27 H    0.981
                            28 H    0.975
    15   6 C    3.981 --    13 C    0.991    30 H    0.979    31 H    0.976
                            29 H    0.975
    16   7 N    3.564 --    22 H    0.887    33 H    0.887    32 H    0.883
                            13 C    0.874
    17   7 N    3.040 --    12 C    1.586     5 C    1.182
    18   1 H    1.006 --     1 C    0.979
    19   1 H    1.007 --     1 C    0.979
    20   1 H    1.010 --     1 C    0.986
    21   1 H    0.840 --     7 O    0.800
    22   1 H    0.905 --    16 N    0.887
    23   1 H    1.000 --    11 C    0.966
    24   1 H    0.995 --    11 C    0.974
    25   1 H    1.000 --    11 C    0.974
    26   1 H    1.000 --    14 C    0.982
    27   1 H    0.995 --    14 C    0.981
    28   1 H    1.009 --    14 C    0.975
    29   1 H    0.997 --    15 C    0.975
    30   1 H    0.992 --    15 C    0.979
    31   1 H    0.995 --    15 C    0.976
    32   1 H    0.904 --    16 N    0.883
    33   1 H    0.919 --    16 N    0.887
 ---------------------------------------------------------------------------

           -------------------------------------------------
          | TOTAL ENERGY              -57.866838600719 Eh   |
          | GRADIENT NORM               0.000452736342 Eh/α |
          | HOMO-LUMO GAP               2.954277960129 eV   |
           -------------------------------------------------

 * finished run on 2023/06/20 at 15:11:29.960
