   * xtb version 6.5.1 (579679a) compiled by 'ehlert@majestix' on 2022-07-11
          program call               : /lustre/hpc/kemi/ree/PhD/git/ReactivityQM/dep/xtb-6.5.1/bin/xtb --gfn 1 /lustre/hpc/kemi/ree/PhD/git/ReactivityQM/calculations/R02oxygendeprot/reac01prodE08/conf19/R02oxygendeprot_reac01prodE08_conf19_gfn1.xyz --opt --vfukui --chrg -2 --uhf 0 --alpb DMSO

   ID    Z sym.   atoms
    1    6 C      1, 3, 5, 7-10, 12, 14, 15, 18, 19, 22, 24
    2    8 O      2, 4, 13, 20, 23, 25
    3    7 N      6, 11, 16, 17, 21
    4    1 H      26-42

      * Solvation model:               ALPB
        Solvent                        DMSO
        Solvent mass                       7.8130E+01 g/mol
          :  Hamiltonian                  GFN1-xTB          :
 * total energy  :   -83.6197188 Eh     change       -0.2286953E-09 Eh
 * total energy  :   -83.6344192 Eh     change       -0.1470043E-01 Eh
 * total energy  :   -83.6405163 Eh     change       -0.6097050E-02 Eh
 * total energy  :   -83.6419415 Eh     change       -0.1425201E-02 Eh
 * total energy  :   -83.6429820 Eh     change       -0.1040517E-02 Eh
 * total energy  :   -83.6435046 Eh     change       -0.5226472E-03 Eh
 * total energy  :   -83.6440068 Eh     change       -0.5021418E-03 Eh
 * total energy  :   -83.6444316 Eh     change       -0.4248113E-03 Eh
 * total energy  :   -83.6448840 Eh     change       -0.4523886E-03 Eh
 * total energy  :   -83.6455087 Eh     change       -0.6246859E-03 Eh
 * total energy  :   -83.6718831 Eh     change       -0.3094428E-04 Eh
 * total energy  :   -83.6719400 Eh     change       -0.5693160E-04 Eh
 * total energy  :   -83.6719959 Eh     change       -0.5594980E-04 Eh
 * total energy  :   -83.6720265 Eh     change       -0.3051728E-04 Eh
 * total energy  :   -83.6720610 Eh     change       -0.3449843E-04 Eh
 * total energy  :   -83.6720776 Eh     change       -0.1661577E-04 Eh
 * total energy  :   -83.6720892 Eh     change       -0.1162912E-04 Eh
 * total energy  :   -83.6720957 Eh     change       -0.6540030E-05 Eh
 * total energy  :   -83.6721003 Eh     change       -0.4575610E-05 Eh
   *** GEOMETRY OPTIMIZATION CONVERGED AFTER 46 ITERATIONS ***

 final structure:
================
42
 xtb: 6.5.1 (579679a)
C            6.37228300151068        1.10753532778166        1.39172876273736
O            5.26942208779753        1.19346099991896        0.50620663966010
C            4.24662070061353        0.32200993817448        0.74870807942592
O            4.31997601057169       -0.45888408595007        1.69514975389852
C            3.13847591997727        0.40774456252999       -0.18173505269240
N            2.13809107535426       -0.51508608117277        0.08636863224465
C            1.09458248447169       -0.59098747317550       -0.65957905322771
C            0.02286096098925       -1.63590460739684       -0.37678116758360
C            0.41014109680343       -2.38975889343474        0.90696612241246
C           -0.02339978007013       -2.64412603120066       -1.54300016743964
N           -1.27937819537762       -1.02566932026964       -0.10070805577855
C           -1.99762271473632       -0.52666225242256       -1.06100134215624
O           -1.76489889625047       -0.39640755744184       -2.29207654769943
C           -3.40099325393843       -0.02947118302360       -0.55549478328032
C           -4.49844795462472       -0.45953155854963       -1.52942779341086
N           -3.70187636436045       -0.51581906787704        0.80346695811676
N           -3.79945507581327        0.63936084001666        1.63363351082202
C           -3.66063842503298        1.65294457371804        0.87830580905702
C           -3.75548998828007        3.07181976188414        1.31738191597970
O           -3.42111568231635        1.40529940848418       -0.42675273949283
N            0.93036272726015        0.23871741604965       -1.74590460502002
C            1.82107275426323        1.19821032345692       -2.11868879746331
O            1.59909131302006        1.90620447238053       -3.10631007307725
C            3.06447674361776        1.31805402721043       -1.26653401245127
O            3.91629664385246        2.18255525080182       -1.56786495513000
H            6.81238849445199        0.10483150932411        1.37266248517597
H            6.06919519680722        1.33585454991283        2.41914188149356
H            7.11061300805586        1.83635833213433        1.05847449689527
H            1.37894932969635       -2.87714544074126        0.79535864849212
H            0.46146392741614       -1.69278226511819        1.74413479645229
H           -0.34589418427714       -3.14250069975595        1.12613878063565
H            0.92634851954181       -3.17678479572117       -1.60423182742705
H           -0.81958331833242       -3.36826563616879       -1.37253053612022
H           -0.20341924974080       -2.14640013172780       -2.49425393733279
H           -2.88718177594302       -1.04910779332522        1.14843543773476
H           -5.45035928110222       -0.01612466090133       -1.24359231153061
H           -4.23748135239617       -0.14142708565320       -2.53821994331296
H           -4.58926222406023       -1.54387522829525       -1.50692480750065
H           -4.58802980908928        3.56067026778257        0.81092973591857
H           -2.84237703729008        3.61085949115713        1.06219023192314
H           -3.91590664705891        3.11382172339638        2.39213253282118
H            0.08010021401173        0.13641107321471       -2.30156270275452

          :  Hamiltonian                  GFN1-xTB          :
         :: total energy             -83.672100318132 Eh    ::
         :: gradient norm              0.000814877174 Eh/a0 ::
         :: HOMO-LUMO gap              2.480812915481 eV    ::
         :: SCC energy               -84.409543578333 Eh    ::
         :: -> Gsolv                  -0.265337708077 Eh    ::
         :: repulsion energy           0.763776588104 Eh    ::

    * Orbital Energies and Occupations

         #    Occupation            Energy/Eh            Energy/eV
      -------------------------------------------------------------
         1        2.0000           -0.7906255             -21.5140
       ...           ...                  ...                  ...
        56        2.0000           -0.4449478             -12.1076
        57        2.0000           -0.4420299             -12.0282
        58        2.0000           -0.4336459             -11.8001
        59        2.0000           -0.4240184             -11.5381
        60        2.0000           -0.4224814             -11.4963
        61        2.0000           -0.4135068             -11.2521
        62        2.0000           -0.3935683             -10.7095
        63        2.0000           -0.3928634             -10.6904
        64        2.0000           -0.3645612              -9.9202
        65        2.0000           -0.3584388              -9.7536
        66        2.0000           -0.3506407              -9.5414
        67        2.0000           -0.3482764              -9.4771
        68        2.0000           -0.3431569              -9.3378 (HOMO)
        69                         -0.2519887              -6.8570 (LUMO)
        70                         -0.2152126              -5.8562
        71                         -0.2112897              -5.7495
        72                         -0.1789439              -4.8693
        73                         -0.1679648              -4.5706
        74                         -0.1261174              -3.4318
        75                         -0.1166736              -3.1749
        76                         -0.0966463              -2.6299
        77                         -0.0910788              -2.4784
        78                         -0.0884404              -2.4066
        79                         -0.0848902              -2.3100
       ...                                ...                  ...
       134                          0.7620294              20.7359
      -------------------------------------------------------------
                  HL-Gap            0.0911682 Eh            2.4808 eV

Wiberg/Mayer (AO) data.
largest (>0.10) Wiberg bond orders for each atom

     #   Z sym  total        # sym  WBO       # sym  WBO       # sym  WBO
 ---------------------------------------------------------------------------
     1   6 C    3.905 --    28 H    0.987    27 H    0.980    26 H    0.980
                             2 O    0.933
     2   8 O    2.148 --     3 C    1.029     1 C    0.933     4 O    0.104
     3   6 C    3.847 --     4 O    1.560     5 C    1.135     2 O    1.029
     4   8 O    1.839 --     3 C    1.560     2 O    0.104
     5   6 C    3.919 --    24 C    1.280     6 N    1.142     3 C    1.135
                            25 O    0.128
     6   7 N    3.018 --     7 C    1.625     5 C    1.142
     7   6 C    3.926 --     6 N    1.625    21 N    1.109     8 C    0.968
     8   6 C    3.973 --     9 C    0.996    10 C    0.977    11 N    0.970
                             7 C    0.968
     9   6 C    3.997 --     8 C    0.996    31 H    0.988    29 H    0.987
                            30 H    0.985
    10   6 C    3.994 --    32 H    0.988    33 H    0.986    34 H    0.980
                             8 C    0.977
    11   7 N    2.931 --    12 C    1.558     8 C    0.970    13 O    0.211
    12   6 C    3.936 --    11 N    1.558    13 O    1.402    14 C    0.889
    13   8 O    1.807 --    12 C    1.402    11 N    0.211
    14   6 C    3.840 --    15 C    0.992    16 N    0.960    12 C    0.889
                            20 O    0.881
    15   6 C    3.996 --    14 C    0.992    36 H    0.987    38 H    0.986
                            37 H    0.983
    16   7 N    3.032 --    17 N    1.006    14 C    0.960    35 H    0.908
    17   7 N    2.968 --    18 C    1.747    16 N    1.006    20 O    0.124
    18   6 C    3.904 --    17 N    1.747    20 O    1.050    19 C    1.017
    19   6 C    3.994 --    18 C    1.017    41 H    0.986    40 H    0.972
                            39 H    0.971
    20   8 O    2.144 --    18 C    1.050    14 C    0.881    17 N    0.124
    21   7 N    3.451 --    22 C    1.197     7 C    1.109    42 H    0.858
                            23 O    0.138
    22   6 C    3.889 --    23 O    1.547    21 N    1.197    24 C    0.974
    23   8 O    1.828 --    22 C    1.547    21 N    0.138
    24   6 C    3.944 --    25 O    1.498     5 C    1.280    22 C    0.974
    25   8 O    1.801 --    24 C    1.498     5 C    0.128
    26   1 H    1.016 --     1 C    0.980
    27   1 H    1.016 --     1 C    0.980
    28   1 H    1.017 --     1 C    0.987
    29   1 H    1.017 --     9 C    0.987
    30   1 H    1.022 --     9 C    0.985
    31   1 H    1.014 --     9 C    0.988
    32   1 H    1.008 --    10 C    0.988
    33   1 H    1.007 --    10 C    0.986
    34   1 H    1.022 --    10 C    0.980
    35   1 H    1.013 --    16 N    0.908
    36   1 H    1.011 --    15 C    0.987
    37   1 H    1.019 --    15 C    0.983
    38   1 H    1.011 --    15 C    0.986
    39   1 H    1.003 --    19 C    0.971
    40   1 H    1.002 --    19 C    0.972
    41   1 H    1.005 --    19 C    0.986
    42   1 H    0.957 --    21 N    0.858
 ---------------------------------------------------------------------------

           -------------------------------------------------
          | TOTAL ENERGY              -83.672100318132 Eh   |
          | GRADIENT NORM               0.000814877174 Eh/α |
          | HOMO-LUMO GAP               2.480812915481 eV   |
           -------------------------------------------------

 * finished run on 2023/06/21 at 17:10:24.906
