   * xtb version 6.5.1 (579679a) compiled by 'ehlert@majestix' on 2022-07-11
          program call               : /lustre/hpc/kemi/ree/PhD/git/ReactivityQM/dep/xtb-6.5.1/bin/xtb --gfn 1 /lustre/hpc/kemi/ree/PhD/git/ReactivityQM/calculations/R03/reac02prodN12/conf07/R03_reac02prodN12_conf07_gfn1.xyz --opt --vfukui --chrg 1 --uhf 0 --alpb DMSO

   ID    Z sym.   atoms
    1    6 C      1, 3, 5, 7-10, 12, 14, 15, 18, 19, 22, 23, 25
    2    8 O      2, 4, 13, 20, 24, 26
    3    7 N      6, 11, 16, 17, 21
    4    1 H      27-46

      * Solvation model:               ALPB
        Solvent                        DMSO
        Solvent mass                       7.8130E+01 g/mol
          :  Hamiltonian                  GFN1-xTB          :
 * total energy  :   -86.2957836 Eh     change       -0.4406644E-09 Eh
 * total energy  :   -86.3094906 Eh     change       -0.1370704E-01 Eh
 * total energy  :   -86.3150832 Eh     change       -0.5592570E-02 Eh
 * total energy  :   -86.3165187 Eh     change       -0.1435504E-02 Eh
 * total energy  :   -86.3177602 Eh     change       -0.1241502E-02 Eh
 * total energy  :   -86.3185038 Eh     change       -0.7435816E-03 Eh
 * total energy  :   -86.3191864 Eh     change       -0.6826060E-03 Eh
 * total energy  :   -86.3198285 Eh     change       -0.6420812E-03 Eh
 * total energy  :   -86.3204015 Eh     change       -0.5730807E-03 Eh
 * total energy  :   -86.3207650 Eh     change       -0.3634759E-03 Eh
 * total energy  :   -86.3224218 Eh     change       -0.2184572E-04 Eh
 * total energy  :   -86.3224442 Eh     change       -0.2236624E-04 Eh
 * total energy  :   -86.3224598 Eh     change       -0.1558486E-04 Eh
 * total energy  :   -86.3224686 Eh     change       -0.8853444E-05 Eh
 * total energy  :   -86.3224749 Eh     change       -0.6301138E-05 Eh
 * total energy  :   -86.3224818 Eh     change       -0.6903135E-05 Eh
 * total energy  :   -86.3224901 Eh     change       -0.8249483E-05 Eh
 * total energy  :   -86.3224953 Eh     change       -0.5250579E-05 Eh
 * total energy  :   -86.3225001 Eh     change       -0.4793355E-05 Eh
   *** GEOMETRY OPTIMIZATION CONVERGED AFTER 43 ITERATIONS ***

 final structure:
================
46
 xtb: 6.5.1 (579679a)
C           -5.18698366786363        2.95867682193810       -1.33670950406504
O           -4.14225936021846        2.01860688558022       -1.06577926826306
C           -4.45181967812284        0.99511467551006       -0.27100888037688
O           -5.54623708494800        0.83625250839326        0.21534122276203
C           -3.28761716785057        0.08256820781203       -0.06227844737041
N           -2.11516916515519        0.44918830520840       -0.66010356147732
C           -1.04231241602501       -0.26219587334680       -0.54532329571325
C            0.17474067447091        0.27442716980447       -1.27840608233781
C            0.42198709553566       -0.49061145466726       -2.58126378131173
C           -0.01920620010420        1.76449821826886       -1.58248079561489
N            1.38162451558699        0.14064541832173       -0.43117192206756
C            1.36919642448651        0.58148553186933        0.81335092829926
O            0.44739518084200        1.01159867063937        1.45066640099033
C            2.80200929977086        0.48943864082180        1.53722578214087
C            3.15685113534622        1.89939910111419        2.00368887647059
N            2.65001590218093       -0.47281911319871        2.55322804056518
N            3.40229084169002       -1.46670366827476        2.32111122051696
C            4.10393054187218       -1.20275447343953        1.17996662974858
C            5.08595298891308       -2.08597782173067        0.56228484204506
O            3.77728553107559       -0.05696973712977        0.68840276273380
N           -1.02076035212986       -1.44000215712300        0.15800716445185
C            0.14767919102913       -2.30296451073759        0.31131741039976
C           -2.14431524652504       -1.88265493699335        0.83806048176476
O           -2.13988418579380       -2.90581454120400        1.51182740118482
C           -3.33687679370432       -1.05818267744586        0.69253685979460
O           -4.42289129285414       -1.49612458672660        1.33030761478583
H           -6.04836657458863        2.44773482338484       -1.77360551183612
H           -4.77789243879774        3.68099766517131       -2.03982661018327
H           -5.49050982088492        3.45789251374273       -0.41334317982484
H           -0.45505461462533       -0.39576818441331       -3.22046078781343
H            1.28151004270779       -0.06471731731094       -3.09518576526456
H            0.61185135175085       -1.54558649555115       -2.40137610519328
H           -0.22664334269482        2.31296735643180       -0.66515369486110
H            0.88408607621487        2.15862870696470       -2.04229616815126
H           -0.85755906892183        1.89060324122543       -2.26543120596299
H            2.24547034758827       -0.10061350331354       -0.88277434068914
H            3.28216042572357        2.53980834228027        1.13410515165367
H            4.08608642960956        1.86031756277874        2.56759010409151
H            2.34728643502400        2.27094549244919        2.62965394680946
H            4.58186996363546       -2.99177046969465        0.21431479778227
H            5.57692175423941       -1.59374949632755       -0.27401643390582
H            5.81421012759007       -2.40148032525285        1.31283934626238
H            0.66953346973047       -2.04988607508836        1.23440866670760
H           -0.20284701387515       -3.33363792344695        0.36774723609417
H            0.82074502169264       -2.19110793171545       -0.52827623321047
H           -4.20749028262353       -2.32970358560109        1.78828868742319

          :  Hamiltonian                  GFN1-xTB          :
         :: total energy             -86.322500124720 Eh    ::
         :: gradient norm              0.000971115722 Eh/a0 ::
         :: HOMO-LUMO gap              0.323053718403 eV    ::
         :: SCC energy               -87.152589893673 Eh    ::
         :: -> Gsolv                  -0.130909891369 Eh    ::
         :: repulsion energy           0.861298312849 Eh    ::

    * Orbital Energies and Occupations

         #    Occupation            Energy/Eh            Energy/eV
      -------------------------------------------------------------
         1        2.0000           -0.9370486             -25.4984
       ...           ...                  ...                  ...
        58        2.0000           -0.5348980             -14.5553
        59        2.0000           -0.5272142             -14.3462
        60        2.0000           -0.5232125             -14.2373
        61        2.0000           -0.5186435             -14.1130
        62        2.0000           -0.5163416             -14.0504
        63        2.0000           -0.5068656             -13.7925
        64        2.0000           -0.5016324             -13.6501
        65        2.0000           -0.4965546             -13.5119
        66        2.0000           -0.4925558             -13.4031
        67        2.0000           -0.4868034             -13.2466
        68        2.0000           -0.4715257             -12.8309
        69        2.0000           -0.4576294             -12.4527
        70        1.9961           -0.4404984             -11.9866 (HOMO)
        71        0.0039           -0.4286263             -11.6635 (LUMO)
        72                         -0.3331033              -9.0642
        73                         -0.3319335              -9.0324
        74                         -0.3040946              -8.2748
        75                         -0.2974704              -8.0946
        76                         -0.2490043              -6.7758
        77                         -0.1770129              -4.8168
        78                         -0.1681520              -4.5756
        79                         -0.1599773              -4.3532
        80                         -0.1561943              -4.2503
        81                         -0.1450576              -3.9472
       ...                                ...                  ...
       144                          0.7359265              20.0256
      -------------------------------------------------------------
                  HL-Gap            0.0118720 Eh            0.3231 eV

Wiberg/Mayer (AO) data.
largest (>0.10) Wiberg bond orders for each atom

     #   Z sym  total        # sym  WBO       # sym  WBO       # sym  WBO
 ---------------------------------------------------------------------------
     1   6 C    3.869 --    28 H    0.986    27 H    0.979    29 H    0.979
                             2 O    0.895
     2   8 O    2.202 --     3 C    1.116     1 C    0.895     4 O    0.136
     3   6 C    3.853 --     4 O    1.664     2 O    1.116     5 C    0.995
     4   8 O    1.928 --     3 C    1.664     2 O    0.136
     5   6 C    3.955 --    25 C    1.482     6 N    1.195     3 C    0.995
     6   7 N    3.024 --     7 C    1.569     5 C    1.195
     7   6 C    3.932 --     6 N    1.569    21 N    1.167     8 C    0.980
     8   6 C    3.910 --    10 C    0.989     9 C    0.983     7 C    0.980
                            11 N    0.884
     9   6 C    3.979 --     8 C    0.983    31 H    0.980    30 H    0.979
                            32 H    0.977
    10   6 C    3.985 --     8 C    0.989    34 H    0.984    33 H    0.981
                            35 H    0.980
    11   7 N    3.378 --    12 C    1.346     8 C    0.884    36 H    0.879
                            13 O    0.178
    12   6 C    3.909 --    13 O    1.661    11 N    1.346    14 C    0.746
    13   8 O    2.044 --    12 C    1.661    11 N    0.178
    14   6 C    3.839 --    16 N    1.102    15 C    0.919    20 O    0.910
                            12 C    0.746
    15   6 C    3.946 --    37 H    0.978    39 H    0.975    38 H    0.975
                            14 C    0.919
    16   7 N    2.987 --    17 N    1.622    14 C    1.102
    17   7 N    3.013 --    16 N    1.622    18 C    1.222
    18   6 C    3.795 --    20 O    1.264    17 N    1.222    19 C    1.079
    19   6 C    3.962 --    18 C    1.079    41 H    0.971    42 H    0.929
                            40 H    0.914
    20   8 O    2.366 --    18 C    1.264    14 C    0.910
    21   7 N    3.509 --     7 C    1.167    23 C    1.126    22 C    0.931
                            24 O    0.134
    22   6 C    3.922 --    45 H    0.979    43 H    0.975    44 H    0.972
                            21 N    0.931
    23   6 C    3.911 --    24 O    1.565    21 N    1.126    25 C    1.071
    24   8 O    1.904 --    23 C    1.565    21 N    0.134
    25   6 C    3.909 --     5 C    1.482    26 O    1.120    23 C    1.071
    26   8 O    2.092 --    25 C    1.120    46 H    0.803
    27   1 H    1.007 --     1 C    0.979
    28   1 H    1.010 --     1 C    0.986
    29   1 H    1.006 --     1 C    0.979
    30   1 H    0.996 --     9 C    0.979
    31   1 H    0.994 --     9 C    0.980
    32   1 H    0.998 --     9 C    0.977
    33   1 H    1.006 --    10 C    0.981
    34   1 H    0.999 --    10 C    0.984
    35   1 H    1.009 --    10 C    0.980
    36   1 H    0.921 --    11 N    0.879
    37   1 H    0.991 --    15 C    0.978
    38   1 H    0.990 --    15 C    0.975
    39   1 H    0.996 --    15 C    0.975
    40   1 H    0.976 --    19 C    0.914
    41   1 H    0.985 --    19 C    0.971
    42   1 H    0.978 --    19 C    0.929
    43   1 H    1.005 --    22 C    0.975
    44   1 H    1.003 --    22 C    0.972
    45   1 H    1.007 --    22 C    0.979
    46   1 H    0.844 --    26 O    0.803
 ---------------------------------------------------------------------------

           -------------------------------------------------
          | TOTAL ENERGY              -86.322500124720 Eh   |
          | GRADIENT NORM               0.000971115722 Eh/α |
          | HOMO-LUMO GAP               0.323053718403 eV   |
           -------------------------------------------------

 * finished run on 2023/06/20 at 15:47:38.722
