   * xtb version 6.5.1 (579679a) compiled by 'ehlert@majestix' on 2022-07-11
          program call               : /lustre/hpc/kemi/ree/PhD/git/ReactivityQM/dep/xtb-6.5.1/bin/xtb --gfn 1 /lustre/hpc/kemi/ree/PhD/git/ReactivityQM/calculations/R03/reac01prodN03/conf04/R03_reac01prodN03_conf04_gfn1.xyz --opt --vfukui --chrg 1 --uhf 0 --alpb DMSO

   ID    Z sym.   atoms
    1    6 C      1-4, 6-9
    2    9 F      5
    3    7 N      10
    4    1 H      11-21

      * Solvation model:               ALPB
        Solvent                        DMSO
        Solvent mass                       7.8130E+01 g/mol
          :  Hamiltonian                  GFN1-xTB          :
 * total energy  :   -30.7587590 Eh     change       -0.3058176E-10 Eh
 * total energy  :   -30.7637463 Eh     change       -0.4987280E-02 Eh
 * total energy  :   -30.7652263 Eh     change       -0.1479977E-02 Eh
 * total energy  :   -30.7653327 Eh     change       -0.1064385E-03 Eh
 * total energy  :   -30.7653852 Eh     change       -0.5250067E-04 Eh
 * total energy  :   -30.7654082 Eh     change       -0.2299271E-04 Eh
 * total energy  :   -30.7654504 Eh     change       -0.4217764E-04 Eh
 * total energy  :   -30.7655368 Eh     change       -0.8642765E-04 Eh
 * total energy  :   -30.7655939 Eh     change       -0.5708864E-04 Eh
 * total energy  :   -30.7656605 Eh     change       -0.6663450E-04 Eh
 * total energy  :   -30.7657144 Eh     change       -0.5388209E-04 Eh
 * total energy  :   -30.7657491 Eh     change       -0.3468923E-04 Eh
 * total energy  :   -30.7658025 Eh     change       -0.5342822E-04 Eh
 * total energy  :   -30.7658297 Eh     change       -0.2720999E-04 Eh
 * total energy  :   -30.7658717 Eh     change       -0.4196134E-04 Eh
 * total energy  :   -30.7659017 Eh     change       -0.2999366E-04 Eh
 * total energy  :   -30.7659120 Eh     change       -0.1033067E-04 Eh
 * total energy  :   -30.7659180 Eh     change       -0.5956097E-05 Eh
 * total energy  :   -30.7659193 Eh     change       -0.1321861E-05 Eh
   *** GEOMETRY OPTIMIZATION CONVERGED AFTER 19 ITERATIONS ***

 final structure:
================
21
 xtb: 6.5.1 (579679a)
C           -0.11030550984279       -1.98860802948855        0.28674483906694
C           -0.57019171669451       -0.64254711328784       -0.31161927303543
C           -1.97132849495160       -0.32465131752477        0.00950860011386
C           -2.35562056643357        0.96359195056669        0.22022524051904
F           -3.62667869760671        1.23675568739036        0.47935520190800
C           -1.44258746304039        2.02722122260644        0.19890794682120
C           -0.09897552677474        1.77457247325847       -0.03517741273238
C            0.37931076331701        0.48896661836421       -0.24357890751897
C            1.84365094035726        0.27040756226362       -0.44982704010065
N            2.37116476893021       -0.60861814745449        0.58919357788850
H            0.82313087383671       -2.30032400854465       -0.17255178901438
H            0.04701592320136       -1.86409975465478        1.35515594179528
H           -0.87313491659177       -2.74530770185828        0.11351084530709
H           -0.60657926027015       -0.83430392318394       -1.40556693214517
H           -2.68916523171180       -1.13486929063517        0.04776251580978
H           -1.79516813255528        3.03513576292084        0.38497186066325
H            0.59943735989144        2.60365097215160       -0.02382479882604
H            2.36673194409939        1.23436935317018       -0.46901151744625
H            1.99563866988756       -0.22584894456526       -1.41334544519016
H            3.31551837031334       -0.86250210482650        0.33732071017675
H            2.39813890263919       -0.10299126666792        1.46347183593959

          :  Hamiltonian                  GFN1-xTB          :
         :: total energy             -30.765919284993 Eh    ::
         :: gradient norm              0.000486594848 Eh/a0 ::
         :: HOMO-LUMO gap              0.605595476892 eV    ::
         :: SCC energy               -31.157423867680 Eh    ::
         :: -> Gsolv                  -0.084432883749 Eh    ::
         :: repulsion energy           0.401849759113 Eh    ::

    * Orbital Energies and Occupations

         #    Occupation            Energy/Eh            Energy/eV
      -------------------------------------------------------------
         1        2.0000           -0.9169303             -24.9509
       ...           ...                  ...                  ...
        15        2.0000           -0.6001830             -16.3318
        16        2.0000           -0.5892905             -16.0354
        17        2.0000           -0.5854988             -15.9322
        18        2.0000           -0.5699503             -15.5091
        19        2.0000           -0.5661634             -15.4061
        20        2.0000           -0.5602011             -15.2438
        21        2.0000           -0.5497958             -14.9607
        22        2.0000           -0.5409173             -14.7191
        23        2.0000           -0.5360049             -14.5854
        24        2.0000           -0.5275195             -14.3545
        25        2.0000           -0.5230760             -14.2336
        26        2.0000           -0.5011048             -13.6358
        27        2.0000           -0.4387471             -11.9389 (HOMO)
        28        0.0000           -0.4164919             -11.3333 (LUMO)
        29                         -0.3282532              -8.9322
        30                         -0.2421129              -6.5882
        31                         -0.1592606              -4.3337
        32                         -0.1548502              -4.2137
        33                         -0.1460117              -3.9732
        34                         -0.1386412              -3.7726
        35                         -0.1348005              -3.6681
        36                         -0.1206042              -3.2818
        37                         -0.1123222              -3.0564
        38                         -0.0878209              -2.3897
       ...                                ...                  ...
        62                          0.5341767              14.5357
      -------------------------------------------------------------
                  HL-Gap            0.0222552 Eh            0.6056 eV

Wiberg/Mayer (AO) data.
largest (>0.10) Wiberg bond orders for each atom

     #   Z sym  total        # sym  WBO       # sym  WBO       # sym  WBO
 ---------------------------------------------------------------------------
     1   6 C    3.970 --    13 H    0.982    11 H    0.979    12 H    0.978
                             2 C    0.935
     2   6 C    3.987 --     3 C    1.090     8 C    1.083     1 C    0.935
                            14 H    0.804
     3   6 C    3.966 --     4 C    1.532     2 C    1.090    15 H    0.959
     4   6 C    3.884 --     3 C    1.532     6 C    1.291     5 F    0.967
     5   9 F    1.110 --     4 C    0.967
     6   6 C    3.956 --     7 C    1.441     4 C    1.291    16 H    0.959
     7   6 C    3.985 --     8 C    1.449     6 C    1.441    17 H    0.959
     8   6 C    3.921 --     7 C    1.449     2 C    1.083     9 C    1.034
     9   6 C    3.975 --     8 C    1.034    10 N    0.986    18 H    0.966
                            19 H    0.937
    10   7 N    2.973 --     9 C    0.986    21 H    0.935    20 H    0.924
    11   1 H    1.014 --     1 C    0.979
    12   1 H    1.007 --     1 C    0.978
    13   1 H    0.994 --     1 C    0.982
    14   1 H    0.979 --     2 C    0.804
    15   1 H    0.986 --     3 C    0.959
    16   1 H    0.986 --     6 C    0.959
    17   1 H    0.990 --     7 C    0.959
    18   1 H    0.996 --     9 C    0.966
    19   1 H    0.999 --     9 C    0.937
    20   1 H    0.939 --    10 N    0.924
    21   1 H    0.948 --    10 N    0.935
 ---------------------------------------------------------------------------

           -------------------------------------------------
          | TOTAL ENERGY              -30.765919284993 Eh   |
          | GRADIENT NORM               0.000486594848 Eh/α |
          | HOMO-LUMO GAP               0.605595476892 eV   |
           -------------------------------------------------

 * finished run on 2023/06/20 at 15:14:12.423
