   * xtb version 6.5.1 (579679a) compiled by 'ehlert@majestix' on 2022-07-11
          program call               : /lustre/hpc/kemi/ree/PhD/git/ReactivityQM/dep/xtb-6.5.1/bin/xtb --gfn 1 /lustre/hpc/kemi/ree/PhD/git/ReactivityQM/calculations/RaltegravirCLI/reac02prodE07/conf20/RaltegravirCLI_reac02prodE07_conf20_gfn1.xyz --opt --vfukui --chrg -1 --uhf 0 --alpb DMSO

   ID    Z sym.   atoms
    1    6 C      1-4, 6-9, 11, 13, 15-18, 21, 22, 24
    2    9 F      5
    3    7 N      10, 14, 19, 20
    4    8 O      12, 23, 25
    5    1 H      26-47

      * Solvation model:               ALPB
        Solvent                        DMSO
        Solvent mass                       7.8130E+01 g/mol
          :  Hamiltonian                  GFN1-xTB          :
 * total energy  :   -80.1829868 Eh     change       -0.1461444E-09 Eh
 * total energy  :   -80.1917756 Eh     change       -0.8788804E-02 Eh
 * total energy  :   -80.1942777 Eh     change       -0.2502040E-02 Eh
 * total energy  :   -80.1947159 Eh     change       -0.4382082E-03 Eh
 * total energy  :   -80.1951575 Eh     change       -0.4415638E-03 Eh
 * total energy  :   -80.1953884 Eh     change       -0.2309805E-03 Eh
 * total energy  :   -80.1956170 Eh     change       -0.2285566E-03 Eh
 * total energy  :   -80.1958012 Eh     change       -0.1842502E-03 Eh
 * total energy  :   -80.1959475 Eh     change       -0.1462815E-03 Eh
 * total energy  :   -80.1960761 Eh     change       -0.1286024E-03 Eh
 * total energy  :   -80.1971808 Eh     change       -0.2045000E-04 Eh
 * total energy  :   -80.1972011 Eh     change       -0.2024784E-04 Eh
 * total energy  :   -80.1972179 Eh     change       -0.1686570E-04 Eh
 * total energy  :   -80.1972321 Eh     change       -0.1419149E-04 Eh
 * total energy  :   -80.1972439 Eh     change       -0.1177420E-04 Eh
 * total energy  :   -80.1972545 Eh     change       -0.1061140E-04 Eh
 * total energy  :   -80.1972665 Eh     change       -0.1203708E-04 Eh
 * total energy  :   -80.1972813 Eh     change       -0.1473623E-04 Eh
 * total energy  :   -80.1972862 Eh     change       -0.4932972E-05 Eh
   *** GEOMETRY OPTIMIZATION CONVERGED AFTER 44 ITERATIONS ***

 final structure:
================
47
 xtb: 6.5.1 (579679a)
C            4.82114863444312       -2.12698636957926        0.50258346605294
C            3.60500453557084       -1.22340877637496        0.86371272320947
C            3.88839771225968       -0.46131284841747        2.13878603638190
C            4.17693353232837        0.85906346573967        2.09182192244728
F            4.52090247773605        1.47859963415483        3.26318591661854
C            4.08723769533729        1.67408924484384        0.95296964870676
C            3.56677815151476        1.06636547138428       -0.20307566000427
C            3.29289744888213       -0.27225242794461       -0.28004281685971
C            2.60606813870460       -0.84383998439361       -1.49099787977280
N            1.16065321609016       -0.56059718947276       -1.41707238000522
C            0.59328402295937        0.46240414206077       -2.07948522192848
O            1.15469893429549        1.06421889571900       -3.01768491215118
C           -0.77725247622899        0.79230858650747       -1.66266920650181
N           -1.30566388218464        0.11414723815610       -0.59690035715711
C           -2.52437751381382        0.33151787385761       -0.21397342264033
C           -3.00704980426593       -0.51485542108679        0.96039781066617
C           -3.75412335995105       -1.74026860982215        0.41290966635773
C           -1.78937178335705       -0.99133975784315        1.77045110317857
N           -3.89857756595628        0.24728958358335        1.83137386134752
N           -3.33929610446358        1.22367744285416       -0.86465575713939
C           -4.72986390195272        1.45529476160641       -0.47651230965918
C           -2.88214038164273        2.01270244998012       -1.93965811935917
O           -3.62965783300775        2.84269870995786       -2.46379239857682
C           -1.52494503862077        1.73958028785462       -2.33578752793205
O           -1.02598836403780        2.43741760191130       -3.37907770543053
H            5.03119088583691       -2.81454090765762        1.32237633003538
H            4.61314254294940       -2.70821308352788       -0.39615319577423
H            5.70381240883726       -1.51158448248108        0.32556102662864
H            2.75201862828873       -1.90675071667325        1.02668515286720
H            3.90954493095657       -1.01309535214234        3.07005500616249
H            4.32274285778752        2.72801823891755        0.99694965659157
H            3.35893824594792        1.69479429789728       -1.06787652028733
H            2.97227830748251       -0.39993039453492       -2.42358273702736
H            2.72728542112884       -1.93040338073741       -1.55279798319227
H            0.66853037819698       -0.90984763071934       -0.60558819869397
H           -4.03533242091682       -2.39574018509677        1.23572390043268
H           -4.65751493500453       -1.44759115964103       -0.11956113880352
H           -3.10830914782021       -2.29165005896586       -0.26980388184836
H           -2.13034199602713       -1.55141772892872        2.63927124076277
H           -1.15276247968395       -1.63223939465435        1.16192766854805
H           -1.20552148423888       -0.13570704676130        2.10737679455547
H           -4.37127269375613       -0.38984276531999        2.45577073965542
H           -3.35477124462339        0.88136293207721        2.40310644995116
H           -4.77369142025138        2.13029269181795        0.37823242169027
H           -5.21225792538459        0.51918628438835       -0.21480091516349
H           -5.25274988924339        1.90637034888648       -1.32097462653489
H           -0.09065646111565        2.11201548860833       -3.51870467040825

          :  Hamiltonian                  GFN1-xTB          :
         :: total energy             -80.197286204303 Eh    ::
         :: gradient norm              0.000450474747 Eh/a0 ::
         :: HOMO-LUMO gap              0.223004841933 eV    ::
         :: SCC energy               -81.050815990862 Eh    ::
         :: -> Gsolv                  -0.098085985734 Eh    ::
         :: repulsion energy           0.884096001506 Eh    ::

    * Orbital Energies and Occupations

         #    Occupation            Energy/Eh            Energy/eV
      -------------------------------------------------------------
         1        2.0000           -0.8067136             -21.9518
       ...           ...                  ...                  ...
        56        2.0000           -0.4543011             -12.3622
        57        2.0000           -0.4467015             -12.1554
        58        2.0000           -0.4435240             -12.0689
        59        2.0000           -0.4415460             -12.0151
        60        2.0000           -0.4316401             -11.7455
        61        2.0000           -0.4238169             -11.5326
        62        2.0000           -0.4186561             -11.3922
        63        2.0000           -0.4106100             -11.1733
        64        2.0000           -0.4069877             -11.0747
        65        2.0000           -0.4048799             -11.0173
        66        2.0000           -0.3943408             -10.7306
        67        2.0000           -0.3810257             -10.3682
        68        1.9736           -0.2993671              -8.1462 (HOMO)
        69        0.0264           -0.2911719              -7.9232 (LUMO)
        70                         -0.2544630              -6.9243
        71                         -0.2067111              -5.6249
        72                         -0.1978963              -5.3850
        73                         -0.1277385              -3.4759
        74                         -0.1255150              -3.4154
        75                         -0.1222746              -3.3273
        76                         -0.1172365              -3.1902
        77                         -0.1124271              -3.0593
        78                         -0.0981102              -2.6697
        79                         -0.0969334              -2.6377
       ...                                ...                  ...
       144                          0.7073633              19.2483
      -------------------------------------------------------------
                  HL-Gap            0.0081953 Eh            0.2230 eV

Wiberg/Mayer (AO) data.
largest (>0.10) Wiberg bond orders for each atom

     #   Z sym  total        # sym  WBO       # sym  WBO       # sym  WBO
 ---------------------------------------------------------------------------
     1   6 C    3.973 --    28 H    0.989    26 H    0.987    27 H    0.985
                             2 C    0.966
     2   6 C    3.992 --     3 C    1.008     8 C    0.999     1 C    0.966
                            29 H    0.966
     3   6 C    3.844 --     4 C    1.607     2 C    1.008    30 H    0.974
     4   6 C    3.835 --     3 C    1.607     6 C    1.275     5 F    0.870
     5   9 F    0.982 --     4 C    0.870
     6   6 C    3.819 --     7 C    1.327     4 C    1.275    31 H    0.977
     7   6 C    3.995 --     8 C    1.584     6 C    1.327    32 H    0.971
     8   6 C    3.867 --     7 C    1.584     9 C    1.003     2 C    0.999
     9   6 C    3.937 --     8 C    1.003    34 H    0.978    33 H    0.974
                            10 N    0.909
    10   7 N    3.354 --    11 C    1.274     9 C    0.909    35 H    0.906
                            12 O    0.150
    11   6 C    3.896 --    12 O    1.457    10 N    1.274    13 C    1.054
    12   8 O    1.862 --    11 C    1.457    10 N    0.150
    13   6 C    3.913 --    24 C    1.415    14 N    1.179    11 C    1.054
    14   7 N    3.040 --    15 C    1.562    13 C    1.179
    15   6 C    3.914 --    14 N    1.562    20 N    1.172    16 C    0.975
    16   6 C    3.966 --    18 C    0.990    17 C    0.984    19 N    0.983
                            15 C    0.975
    17   6 C    3.993 --    38 H    0.985    16 C    0.984    36 H    0.983
                            37 H    0.980
    18   6 C    3.995 --    16 C    0.990    39 H    0.986    41 H    0.985
                            40 H    0.982
    19   7 N    2.977 --    16 C    0.983    43 H    0.943    42 H    0.942
    20   7 N    3.441 --    15 C    1.172    22 C    1.071    21 C    0.939
                            23 O    0.119
    21   6 C    3.935 --    45 H    0.979    44 H    0.978    46 H    0.976
                            20 N    0.939
    22   6 C    3.872 --    23 O    1.524    24 C    1.134    20 N    1.071
    23   8 O    1.823 --    22 C    1.524    20 N    0.119
    24   6 C    3.850 --    13 C    1.415    22 C    1.134    25 O    1.084
    25   8 O    2.023 --    24 C    1.084    47 H    0.763
    26   1 H    1.011 --     1 C    0.987
    27   1 H    1.009 --     1 C    0.985
    28   1 H    1.017 --     1 C    0.989
    29   1 H    1.011 --     2 C    0.966
    30   1 H    1.003 --     3 C    0.974
    31   1 H    1.004 --     6 C    0.977
    32   1 H    1.007 --     7 C    0.971
    33   1 H    1.018 --     9 C    0.974
    34   1 H    1.014 --     9 C    0.978
    35   1 H    0.974 --    10 N    0.906
    36   1 H    1.000 --    17 C    0.983
    37   1 H    1.005 --    17 C    0.980
    38   1 H    1.005 --    17 C    0.985
    39   1 H    1.004 --    18 C    0.986
    40   1 H    1.016 --    18 C    0.982
    41   1 H    1.008 --    18 C    0.985
    42   1 H    0.957 --    19 N    0.942
    43   1 H    0.959 --    19 N    0.943
    44   1 H    1.019 --    21 C    0.978
    45   1 H    1.024 --    21 C    0.979
    46   1 H    1.014 --    21 C    0.976
    47   1 H    0.871 --    25 O    0.763
 ---------------------------------------------------------------------------

           -------------------------------------------------
          | TOTAL ENERGY              -80.197286204303 Eh   |
          | GRADIENT NORM               0.000450474747 Eh/α |
          | HOMO-LUMO GAP               0.223004841933 eV   |
           -------------------------------------------------

 * finished run on 2023/06/20 at 15:06:15.837
