   * xtb version 6.5.1 (579679a) compiled by 'ehlert@majestix' on 2022-07-11
          program call               : /lustre/hpc/kemi/ree/PhD/git/ReactivityQM/dep/xtb-6.5.1/bin/xtb --gfn 1 /lustre/hpc/kemi/ree/PhD/git/ReactivityQM/calculations/R02oxygendeprot/reac01prodN11/conf16/R02oxygendeprot_reac01prodN11_conf16_gfn1.xyz --opt --vfukui --chrg 0 --uhf 0 --alpb DMSO

   ID    Z sym.   atoms
    1    6 C      1, 3, 5, 7-10, 12, 13, 15, 18, 19, 22, 24
    2    8 O      2, 4, 14, 20, 23, 25
    3    7 N      6, 11, 16, 17, 21
    4    1 H      26-42

      * Solvation model:               ALPB
        Solvent                        DMSO
        Solvent mass                       7.8130E+01 g/mol
          :  Hamiltonian                  GFN1-xTB          :
 * total energy  :   -82.8629508 Eh     change       -0.1590294E-08 Eh
 * total energy  :   -82.8767416 Eh     change       -0.1379077E-01 Eh
 * total energy  :   -82.8834951 Eh     change       -0.6753507E-02 Eh
 * total energy  :   -82.8846871 Eh     change       -0.1191949E-02 Eh
 * total energy  :   -82.8853288 Eh     change       -0.6417165E-03 Eh
 * total energy  :   -82.8856986 Eh     change       -0.3697787E-03 Eh
 * total energy  :   -82.8859506 Eh     change       -0.2520515E-03 Eh
 * total energy  :   -82.8861301 Eh     change       -0.1794855E-03 Eh
 * total energy  :   -82.8862665 Eh     change       -0.1364405E-03 Eh
 * total energy  :   -82.8863703 Eh     change       -0.1037256E-03 Eh
 * total energy  :   -82.8877829 Eh     change       -0.1544916E-04 Eh
 * total energy  :   -82.8877984 Eh     change       -0.1550867E-04 Eh
 * total energy  :   -82.8878139 Eh     change       -0.1549045E-04 Eh
 * total energy  :   -82.8878285 Eh     change       -0.1464289E-04 Eh
 * total energy  :   -82.8878371 Eh     change       -0.8592695E-05 Eh
 * total energy  :   -82.8878564 Eh     change       -0.1928189E-04 Eh
 * total energy  :   -82.8878700 Eh     change       -0.1359281E-04 Eh
 * total energy  :   -82.8878802 Eh     change       -0.1023503E-04 Eh
 * total energy  :   -82.8878845 Eh     change       -0.4301922E-05 Eh
   *** GEOMETRY OPTIMIZATION CONVERGED AFTER 68 ITERATIONS ***

 final structure:
================
42
 xtb: 6.5.1 (579679a)
C            6.66095677409556        0.28080141247885       -1.69752446710085
O            5.31592135171825        0.72014631001387       -1.48519855538978
C            4.54881917759076       -0.06082600677829       -0.73674158954310
O            4.92645373744472       -1.09877508223215       -0.24181437082673
C            3.15617258927165        0.46010460134568       -0.55800029092014
N            2.32082591242608       -0.41237532811795       -0.00164077700577
C            1.06297160134166       -0.10520098835363        0.23682179122438
C            0.20521214402155       -1.06645036475467        1.02814839141825
C            0.81387047359962       -2.47732304735381        0.95194339144410
C            0.16055886254398       -0.58191951970546        2.48361237103783
N           -1.07829940037799       -1.07668071414263        0.37294568182987
C           -2.41630613044376       -0.97481757221417        0.96798622317533
C           -3.22229117902814       -2.16316356524435        0.29202459839912
O           -2.51885847670659       -0.97576964713811        2.24083713149912
C           -2.99791361766234        0.29889705121632        0.30051637211171
N           -2.32214331525473        1.34177788100647       -0.05505779578906
N           -3.23429758975424        2.25526762572546       -0.51434524752522
C           -4.39829781609676        1.70105236555607       -0.40912724277552
C           -5.71349505438601        2.27082305661493       -0.77417114093668
O           -4.31169166398077        0.45556975653467        0.10328841504804
N            0.51356109594777        1.03198428591056       -0.22648048280121
C            1.23041369962663        2.04156586424732       -0.84837523732997
O            0.67937011336336        3.05493035906784       -1.21695693337449
C            2.72419496169331        1.78385783750438       -0.97809143860572
O            3.45154577275978        2.65237383710463       -1.43272533556829
H            7.12238707423592        1.00320966042452       -2.36746177127192
H            7.19676582991710        0.24598790443806       -0.74634949873342
H            6.66243145201661       -0.71373368023537       -2.14900101386215
H            0.18994531205676       -3.16784613235164        1.51438203492888
H            1.81744737028524       -2.45825999265299        1.37351421449890
H            0.86905523768738       -2.80484970958247       -0.08396640851166
H           -0.33871384683718       -1.31620593681094        3.11095391102556
H            1.18366857241167       -0.45238512648392        2.83491434242940
H           -0.36459482284055        0.36852604151565        2.55332606991124
H           -1.05481841773080       -1.21150127293742       -0.62421925028352
H           -4.25119451097631       -2.07225202865171        0.62790477668577
H           -2.78616964578825       -3.09127165600303        0.64766786227102
H           -3.16529156458191       -2.09717355520242       -0.78894837605787
H           -6.18065725243270        1.66084488023891       -1.54707374907068
H           -5.58142640722150        3.28598144301010       -1.14126469250870
H           -6.37209241128081        2.27670147082817        0.09416329054009
H           -0.50399599266741        1.18837528217406       -0.12096520366713

          :  Hamiltonian                  GFN1-xTB          :
         :: total energy             -82.887884542079 Eh    ::
         :: gradient norm              0.000416913289 Eh/a0 ::
         :: HOMO-LUMO gap              0.142566601625 eV    ::
         :: SCC energy               -83.650105813014 Eh    ::
         :: -> Gsolv                  -0.061790160620 Eh    ::
         :: repulsion energy           0.789135324484 Eh    ::

    * Orbital Energies and Occupations

         #    Occupation            Energy/Eh            Energy/eV
      -------------------------------------------------------------
         1        2.0000           -0.8708011             -23.6957
       ...           ...                  ...                  ...
        55        2.0000           -0.5126381             -13.9496
        56        2.0000           -0.5091168             -13.8538
        57        2.0000           -0.5048511             -13.7377
        58        2.0000           -0.5001390             -13.6095
        59        2.0000           -0.4904610             -13.3461
        60        2.0000           -0.4881200             -13.2824
        61        2.0000           -0.4808157             -13.0837
        62        2.0000           -0.4677840             -12.7290
        63        2.0000           -0.4618462             -12.5675
        64        2.0000           -0.4503872             -12.2557
        65        2.0000           -0.4467280             -12.1561
        66        2.0000           -0.4393944             -11.9565
        67        1.8807           -0.4232359             -11.5168 (HOMO)
        68        0.1193           -0.4179967             -11.3743 (LUMO)
        69                         -0.3244877              -8.8298
        70                         -0.3026052              -8.2343
        71                         -0.2767917              -7.5319
        72                         -0.2602579              -7.0820
        73                         -0.2496364              -6.7930
        74                         -0.1771041              -4.8192
        75                         -0.1440955              -3.9210
        76                         -0.1394685              -3.7951
        77                         -0.1363147              -3.7093
        78                         -0.1308765              -3.5613
       ...                                ...                  ...
       134                          0.7473961              20.3377
      -------------------------------------------------------------
                  HL-Gap            0.0052392 Eh            0.1426 eV

Wiberg/Mayer (AO) data.
largest (>0.10) Wiberg bond orders for each atom

     #   Z sym  total        # sym  WBO       # sym  WBO       # sym  WBO
 ---------------------------------------------------------------------------
     1   6 C    3.866 --    26 H    0.986    27 H    0.978    28 H    0.978
                             2 O    0.893
     2   8 O    2.208 --     3 C    1.129     1 C    0.893     4 O    0.140
     3   6 C    3.847 --     4 O    1.653     2 O    1.129     5 C    0.992
     4   8 O    1.903 --     3 C    1.653     2 O    0.140
     5   6 C    3.786 --     6 N    1.400    24 C    1.107     3 C    0.992
     6   7 N    3.007 --     5 C    1.400     7 C    1.380
     7   6 C    3.883 --     6 N    1.380    21 N    1.253     8 C    0.974
     8   6 C    3.931 --     7 C    0.974    10 C    0.965    11 N    0.963
                             9 C    0.952
     9   6 C    3.974 --    31 H    0.984    29 H    0.984    30 H    0.979
                             8 C    0.952
    10   6 C    3.980 --    33 H    0.985    34 H    0.983    32 H    0.976
                             8 C    0.965
    11   7 N    3.273 --     8 C    0.963    12 C    0.911    35 H    0.904
                            14 O    0.164
    12   6 C    3.889 --    14 O    1.268    11 N    0.911    15 C    0.841
                            13 C    0.793
    13   6 C    3.843 --    38 H    0.987    37 H    0.982    36 H    0.978
                            12 C    0.793
    14   8 O    1.628 --    12 C    1.268    11 N    0.164
    15   6 C    3.800 --    16 N    1.636    20 O    1.085    12 C    0.841
    16   7 N    3.086 --    15 C    1.636    17 N    1.157
    17   7 N    2.982 --    18 C    1.637    16 N    1.157
    18   6 C    3.859 --    17 N    1.637    20 O    1.052    19 C    1.031
    19   6 C    3.984 --    18 C    1.031    40 H    0.982    41 H    0.964
                            39 H    0.962
    20   8 O    2.325 --    15 C    1.085    18 C    1.052
    21   7 N    3.475 --     7 C    1.253    22 C    1.102    42 H    0.811
                            23 O    0.105
    22   6 C    3.854 --    23 O    1.677    21 N    1.102    24 C    0.935
    23   8 O    1.918 --    22 C    1.677    21 N    0.105
    24   6 C    3.860 --    25 O    1.670     5 C    1.107    22 C    0.935
    25   8 O    1.833 --    24 C    1.670
    26   1 H    1.010 --     1 C    0.986
    27   1 H    1.005 --     1 C    0.978
    28   1 H    1.005 --     1 C    0.978
    29   1 H    0.999 --     9 C    0.984
    30   1 H    1.007 --     9 C    0.979
    31   1 H    1.000 --     9 C    0.984
    32   1 H    1.013 --    10 C    0.976
    33   1 H    1.001 --    10 C    0.985
    34   1 H    1.007 --    10 C    0.983
    35   1 H    0.937 --    11 N    0.904
    36   1 H    1.001 --    13 C    0.978
    37   1 H    0.996 --    13 C    0.982
    38   1 H    0.996 --    13 C    0.987
    39   1 H    0.997 --    19 C    0.962
    40   1 H    0.997 --    19 C    0.982
    41   1 H    0.996 --    19 C    0.964
    42   1 H    0.957 --    21 N    0.811
 ---------------------------------------------------------------------------

           -------------------------------------------------
          | TOTAL ENERGY              -82.887884542079 Eh   |
          | GRADIENT NORM               0.000416913289 Eh/α |
          | HOMO-LUMO GAP               0.142566601625 eV   |
           -------------------------------------------------

 * finished run on 2023/06/21 at 17:27:13.712
