   * xtb version 6.5.1 (579679a) compiled by 'ehlert@majestix' on 2022-07-11
          program call               : /lustre/hpc/kemi/ree/PhD/git/ReactivityQM/dep/xtb-6.5.1/bin/xtb --gfn 1 /lustre/hpc/kemi/ree/PhD/git/ReactivityQM/calculations/R02methylcation/reac01prodE07/conf17/R02methylcation_reac01prodE07_conf17_gfn1.xyz --opt --vfukui --chrg -2 --uhf 0 --alpb DMSO

   ID    Z sym.   atoms
    1    6 C      1, 3, 5, 7-10, 12, 14, 15, 18, 19, 22, 24
    2    8 O      2, 4, 13, 20, 23, 25
    3    7 N      6, 11, 16, 17, 21
    4    1 H      26-42

      * Solvation model:               ALPB
        Solvent                        DMSO
        Solvent mass                       7.8130E+01 g/mol
          :  Hamiltonian                  GFN1-xTB          :
 * total energy  :   -83.5821861 Eh     change       -0.1915197E-09 Eh
 * total energy  :   -83.5974489 Eh     change       -0.1526287E-01 Eh
 * total energy  :   -83.6043217 Eh     change       -0.6872774E-02 Eh
 * total energy  :   -83.6056381 Eh     change       -0.1316344E-02 Eh
 * total energy  :   -83.6066365 Eh     change       -0.9984255E-03 Eh
 * total energy  :   -83.6070338 Eh     change       -0.3973049E-03 Eh
 * total energy  :   -83.6073374 Eh     change       -0.3036224E-03 Eh
 * total energy  :   -83.6075979 Eh     change       -0.2605351E-03 Eh
 * total energy  :   -83.6078685 Eh     change       -0.2705964E-03 Eh
 * total energy  :   -83.6081724 Eh     change       -0.3038386E-03 Eh
 * total energy  :   -83.6183658 Eh     change       -0.8882766E-05 Eh
 * total energy  :   -83.6183872 Eh     change       -0.2138864E-04 Eh
 * total energy  :   -83.6183971 Eh     change       -0.9969275E-05 Eh
 * total energy  :   -83.6184042 Eh     change       -0.7046974E-05 Eh
 * total energy  :   -83.6184186 Eh     change       -0.1445145E-04 Eh
 * total energy  :   -83.6184266 Eh     change       -0.7945498E-05 Eh
 * total energy  :   -83.6184329 Eh     change       -0.6284464E-05 Eh
 * total energy  :   -83.6184390 Eh     change       -0.6086569E-05 Eh
 * total energy  :   -83.6184428 Eh     change       -0.3843876E-05 Eh
   *** GEOMETRY OPTIMIZATION CONVERGED AFTER 75 ITERATIONS ***

 final structure:
================
42
 xtb: 6.5.1 (579679a)
C            6.67065760563113        1.56846520849144        0.45487257218969
O            5.59019564998358        0.78213531314421        0.92942405404227
C            4.45266189015632        0.82891835921952        0.18200595958253
O            4.41104060665527        1.51917804425163       -0.83256860066516
C            3.35793273613248        0.01882645984266        0.68514381980886
N            2.22337980566804        0.10020249481736       -0.10820323635319
C            1.16467779164252       -0.55165286030042        0.20550471083112
C           -0.06767207323830       -0.53426012033195       -0.67738509136794
C            0.08450056133759       -1.65009980577074       -1.72385921068842
C           -0.19111687961371        0.83211721087057       -1.36975027215429
N           -1.24149390837053       -0.82227258084611        0.16955076780831
C           -2.47975232915368       -0.95133484019133       -0.59278812317693
O           -2.84505767382237       -2.28006544026464       -0.89925339469833
C           -3.62653896994371       -2.94477688408774        0.08482928801137
C           -3.45458506237251        0.01377227725509       -0.48528265267374
N           -4.74477649560379       -0.04347339378242       -0.88435762328869
N           -5.25727218163972        1.22773834736735       -0.69505019779246
C           -4.32017980974116        1.96794477458566       -0.22157518983184
C           -4.39866235477064        3.40732985299843        0.14732352935182
O           -3.13329959990882        1.29348632780925       -0.05409554968444
N            1.11499614238703       -1.36069039873296        1.31984527093268
C            2.15369029741209       -1.53851703248468        2.18631039761841
O            2.02326654447079       -2.27821948929564        3.16432354606013
C            3.42130194991288       -0.78403314437006        1.85344077493233
O            4.40783889595603       -0.91467776971747        2.60809911162693
H            7.49181071874939        1.44567174911167        1.16041963160314
H            6.38861740331330        2.62512819080028        0.39808170161984
H            6.98745665722157        1.23694902639261       -0.53971418376080
H            0.99451688146195       -1.49814016462142       -2.30399145278483
H           -0.77118765605939       -1.64782072388781       -2.39935736501131
H            0.13587166246845       -2.62012594374214       -1.22874943274954
H           -0.38174693456341        1.60953316295317       -0.63030564267351
H            0.73299979240012        1.06607957846973       -1.89867388084706
H           -1.01669529841850        0.81569763752841       -2.08050381812918
H           -1.34947773562261       -0.04017801861408        0.81576531012191
H           -3.78949463072362       -3.96973839130066       -0.25864135784622
H           -3.11536214884885       -2.97126306756498        1.05686876398845
H           -4.60186636373378       -2.45251582528400        0.21283145734318
H           -4.11932498108625        3.55242370528181        1.19214307862075
H           -3.72287136573968        4.00483837094609       -0.46764147388868
H           -5.41704955176320        3.76136489538664       -0.00074288328780
H            0.23807241174549       -1.82394409236718        1.52570788729870

          :  Hamiltonian                  GFN1-xTB          :
         :: total energy             -83.618442797133 Eh    ::
         :: gradient norm              0.000718374238 Eh/a0 ::
         :: HOMO-LUMO gap              0.598510795343 eV    ::
         :: SCC energy               -84.349329821660 Eh    ::
         :: -> Gsolv                  -0.255391533078 Eh    ::
         :: repulsion energy           0.756661194590 Eh    ::

    * Orbital Energies and Occupations

         #    Occupation            Energy/Eh            Energy/eV
      -------------------------------------------------------------
         1        2.0000           -0.7900132             -21.4974
       ...           ...                  ...                  ...
        56        2.0000           -0.4416041             -12.0167
        57        2.0000           -0.4267474             -11.6124
        58        2.0000           -0.4232727             -11.5178
        59        2.0000           -0.4151419             -11.2966
        60        2.0000           -0.4092486             -11.1362
        61        2.0000           -0.3994386             -10.8693
        62        2.0000           -0.3950281             -10.7493
        63        2.0000           -0.3843111             -10.4576
        64        2.0000           -0.3718783             -10.1193
        65        2.0000           -0.3658299              -9.9547
        66        2.0000           -0.3620557              -9.8520
        67        2.0000           -0.3515971              -9.5674
        68        2.0000           -0.2804988              -7.6328 (HOMO)
        69        0.0000           -0.2585039              -7.0342 (LUMO)
        70                         -0.2199363              -5.9848
        71                         -0.1854535              -5.0464
        72                         -0.1816526              -4.9430
        73                         -0.1399333              -3.8078
        74                         -0.1177577              -3.2044
        75                         -0.1124545              -3.0600
        76                         -0.1017758              -2.7695
        77                         -0.0975418              -2.6542
        78                         -0.0939687              -2.5570
        79                         -0.0893279              -2.4307
       ...                                ...                  ...
       134                          0.7582512              20.6331
      -------------------------------------------------------------
                  HL-Gap            0.0219949 Eh            0.5985 eV

Wiberg/Mayer (AO) data.
largest (>0.10) Wiberg bond orders for each atom

     #   Z sym  total        # sym  WBO       # sym  WBO       # sym  WBO
 ---------------------------------------------------------------------------
     1   6 C    3.903 --    26 H    0.987    28 H    0.980    27 H    0.980
                             2 O    0.930
     2   8 O    2.153 --     3 C    1.036     1 C    0.930     4 O    0.106
     3   6 C    3.848 --     4 O    1.566     5 C    1.127     2 O    1.036
     4   8 O    1.844 --     3 C    1.566     2 O    0.106
     5   6 C    3.919 --    24 C    1.279     6 N    1.145     3 C    1.127
                            25 O    0.130
     6   7 N    3.020 --     7 C    1.631     5 C    1.145
     7   6 C    3.926 --     6 N    1.631    21 N    1.099     8 C    0.978
     8   6 C    3.973 --    10 C    0.987     9 C    0.982     7 C    0.978
                            11 N    0.965
     9   6 C    3.994 --    29 H    0.989    31 H    0.986     8 C    0.982
                            30 H    0.981
    10   6 C    3.996 --     8 C    0.987    34 H    0.985    32 H    0.985
                            33 H    0.985
    11   7 N    3.035 --     8 C    0.965    12 C    0.946    35 H    0.945
    12   6 C    3.660 --    15 C    1.452    11 N    0.946    13 O    0.921
                            16 N    0.151
    13   8 O    1.994 --    14 C    0.949    12 C    0.921
    14   6 C    3.939 --    36 H    0.986    37 H    0.982    38 H    0.980
                            13 O    0.949
    15   6 C    3.862 --    12 C    1.452    16 N    1.306    20 O    0.961
    16   7 N    2.818 --    15 C    1.306    17 N    1.147    12 C    0.151
                            18 C    0.112
    17   7 N    2.986 --    18 C    1.678    16 N    1.147
    18   6 C    3.886 --    17 N    1.678    19 C    1.018    20 O    0.995
                            16 N    0.112
    19   6 C    3.996 --    18 C    1.018    41 H    0.987    39 H    0.976
                            40 H    0.975
    20   8 O    2.190 --    18 C    0.995    15 C    0.961
    21   7 N    3.442 --    22 C    1.181     7 C    1.099    42 H    0.889
                            23 O    0.136
    22   6 C    3.884 --    23 O    1.557    21 N    1.181    24 C    0.973
    23   8 O    1.837 --    22 C    1.557    21 N    0.136
    24   6 C    3.944 --    25 O    1.503     5 C    1.279    22 C    0.973
    25   8 O    1.808 --    24 C    1.503     5 C    0.130
    26   1 H    1.016 --     1 C    0.987
    27   1 H    1.015 --     1 C    0.980
    28   1 H    1.015 --     1 C    0.980
    29   1 H    1.009 --     9 C    0.989
    30   1 H    1.018 --     9 C    0.981
    31   1 H    1.012 --     9 C    0.986
    32   1 H    1.013 --    10 C    0.985
    33   1 H    1.019 --    10 C    0.985
    34   1 H    1.015 --    10 C    0.985
    35   1 H    0.980 --    11 N    0.945
    36   1 H    1.023 --    14 C    0.986
    37   1 H    1.019 --    14 C    0.982
    38   1 H    1.031 --    14 C    0.980
    39   1 H    1.007 --    19 C    0.976
    40   1 H    1.007 --    19 C    0.975
    41   1 H    1.008 --    19 C    0.987
    42   1 H    0.971 --    21 N    0.889
 ---------------------------------------------------------------------------

           -------------------------------------------------
          | TOTAL ENERGY              -83.618442797133 Eh   |
          | GRADIENT NORM               0.000718374238 Eh/α |
          | HOMO-LUMO GAP               0.598510795343 eV   |
           -------------------------------------------------

 * finished run on 2023/06/21 at 17:16:09.783
