   * xtb version 6.5.1 (579679a) compiled by 'ehlert@majestix' on 2022-07-11
          program call               : /lustre/hpc/kemi/ree/PhD/git/ReactivityQM/dep/xtb-6.5.1/bin/xtb --gfn 1 /lustre/hpc/kemi/ree/PhD/git/ReactivityQM/calculations/R03/reac02prodN04/conf06/R03_reac02prodN04_conf06_gfn1.xyz --opt --vfukui --chrg 1 --uhf 0 --alpb DMSO

   ID    Z sym.   atoms
    1    6 C      1, 3, 5, 7-10, 12, 14, 17, 18, 21, 22, 24, 26
    2    8 O      2, 4, 13, 19, 23, 25
    3    7 N      6, 11, 15, 16, 20
    4    1 H      27-46

      * Solvation model:               ALPB
        Solvent                        DMSO
        Solvent mass                       7.8130E+01 g/mol
          :  Hamiltonian                  GFN1-xTB          :
 * total energy  :   -86.2899136 Eh     change       -0.1155342E-10 Eh
 * total energy  :   -86.3078492 Eh     change       -0.1793552E-01 Eh
 * total energy  :   -86.3164488 Eh     change       -0.8599643E-02 Eh
 * total energy  :   -86.3192594 Eh     change       -0.2810568E-02 Eh
 * total energy  :   -86.3221462 Eh     change       -0.2886842E-02 Eh
 * total energy  :   -86.3240865 Eh     change       -0.1940292E-02 Eh
 * total energy  :   -86.3261860 Eh     change       -0.2099514E-02 Eh
 * total energy  :   -86.3302399 Eh     change       -0.4053828E-02 Eh
 * total energy  :   -86.3322268 Eh     change       -0.1986937E-02 Eh
 * total energy  :   -86.3340989 Eh     change       -0.1872086E-02 Eh
 * total energy  :   -86.3439243 Eh     change       -0.1513583E-04 Eh
 * total energy  :   -86.3439375 Eh     change       -0.1312420E-04 Eh
 * total energy  :   -86.3439602 Eh     change       -0.2273876E-04 Eh
 * total energy  :   -86.3439783 Eh     change       -0.1809088E-04 Eh
 * total energy  :   -86.3439907 Eh     change       -0.1243726E-04 Eh
 * total energy  :   -86.3440051 Eh     change       -0.1435485E-04 Eh
 * total energy  :   -86.3440162 Eh     change       -0.1109406E-04 Eh
 * total energy  :   -86.3440221 Eh     change       -0.5959291E-05 Eh
 * total energy  :   -86.3440260 Eh     change       -0.3869570E-05 Eh
   *** GEOMETRY OPTIMIZATION CONVERGED AFTER 35 ITERATIONS ***

 final structure:
================
46
 xtb: 6.5.1 (579679a)
C           -4.22639799428835        2.54427238386584       -2.86478452021691
O           -3.32691948039590        1.74498501150776       -2.07311221562173
C           -3.70818143301553        1.28636086818456       -0.94022636977362
O           -4.90442476987040        1.56563409591930       -0.54321395871446
C           -2.77495687255115        0.48575025208689       -0.18229454839563
N           -1.56590830081215        0.29087305977280       -0.78350278484290
C           -0.64339413033767       -0.41641070433654       -0.21210710734388
C            0.62884064197930       -0.61298994041461       -1.02485167925958
C            0.65439836436290       -2.05638180311094       -1.55291053853066
C            0.64020046486564        0.37086893798313       -2.20390775286727
N            1.78322533285065       -0.32441562398185       -0.17055674245761
C            3.06603720406234       -0.49131325318463       -0.58859202799695
O            3.40922318198268       -1.03780698158285       -1.61774975888437
C            4.01427286362108        0.06162390753317        0.40792074249996
N            3.70055625195170        0.67793144736956        1.50865659687849
N            4.87097694804918        1.01772503010445        2.11456640274577
C            5.82600400152224        0.58766760612629        1.34408219696304
C            7.28451550003627        0.70909826005145        1.55910884914812
O            5.34697370869588       -0.02315961890511        0.25124713875539
N           -0.84592597407488       -0.99605875120592        1.01089368930973
C            0.13019518297164       -1.83082944165687        1.72400932033665
C           -2.03214397259378       -0.86478560008484        1.72239513769824
O           -2.15792401157504       -1.40159422793359        2.80956927860827
C           -3.06254255535321       -0.06049881793049        1.05729611782568
O           -4.25658220188253        0.15756681699347        1.59430582383733
C           -4.65158193802853       -0.36000814424794        2.88146405301769
H           -4.51082366863254        3.43335464836635       -2.30153970736720
H           -5.11363205556267        1.95794955140428       -3.10502736266215
H           -3.67619842825504        2.80943474408996       -3.76429569392515
H           -0.29403860504738       -2.26753255985497       -2.04452627768927
H            0.79880289194417       -2.77084789733407       -0.74641863044778
H            1.45971041446872       -2.17407242155865       -2.27539654462390
H           -0.20688936577929        0.17535796224601       -2.85809962949252
H            1.56374815609995        0.24703779308989       -2.76710612607621
H            0.57515635101651        1.39389369118490       -1.83802431189894
H            1.63445206276553        0.30287675028962        0.60550310404210
H            7.74069786987475       -0.28068214384292        1.57646117717645
H            7.73453022286058        1.27378372841815        0.74241779571831
H            7.47475401447243        1.21625037087833        2.50181728903106
H           -0.30723004392108       -2.81922363899246        1.86436567091286
H            0.31040623743128       -1.38038791197278        2.70007729647364
H            1.05714114138863       -1.90210237737010        1.16994906210567
H           -5.14804966352217        1.18764483221337        0.32927357637750
H           -4.62695638164406       -1.44996559621162        2.87224332621775
H           -5.66925525617829       -0.00482313239105        3.03094196209272
H           -3.99486390595705        0.02794983842641        3.66037068131355

          :  Hamiltonian                  GFN1-xTB          :
         :: total energy             -86.344026008502 Eh    ::
         :: gradient norm              0.000511899937 Eh/a0 ::
         :: HOMO-LUMO gap              1.877520677051 eV    ::
         :: SCC energy               -87.173060044024 Eh    ::
         :: -> Gsolv                  -0.104056115052 Eh    ::
         :: repulsion energy           0.857605510533 Eh    ::

    * Orbital Energies and Occupations

         #    Occupation            Energy/Eh            Energy/eV
      -------------------------------------------------------------
         1        2.0000           -0.9131429             -24.8479
       ...           ...                  ...                  ...
        58        2.0000           -0.5261528             -14.3173
        59        2.0000           -0.5181841             -14.1005
        60        2.0000           -0.5129206             -13.9573
        61        2.0000           -0.5112282             -13.9112
        62        2.0000           -0.5029288             -13.6854
        63        2.0000           -0.4891738             -13.3111
        64        2.0000           -0.4863789             -13.2350
        65        2.0000           -0.4809808             -13.0882
        66        2.0000           -0.4732508             -12.8778
        67        2.0000           -0.4673993             -12.7186
        68        2.0000           -0.4600123             -12.5176
        69        2.0000           -0.4582983             -12.4709
        70        2.0000           -0.4540691             -12.3559 (HOMO)
        71                         -0.3850715             -10.4783 (LUMO)
        72                         -0.3193655              -8.6904
        73                         -0.3172017              -8.6315
        74                         -0.2918041              -7.9404
        75                         -0.2615432              -7.1170
        76                         -0.2069636              -5.6318
        77                         -0.2006448              -5.4598
        78                         -0.1667702              -4.5380
        79                         -0.1509747              -4.1082
        80                         -0.1477178              -4.0196
        81                         -0.1441240              -3.9218
       ...                                ...                  ...
       144                          0.7219134              19.6443
      -------------------------------------------------------------
                  HL-Gap            0.0689976 Eh            1.8775 eV

Wiberg/Mayer (AO) data.
largest (>0.10) Wiberg bond orders for each atom

     #   Z sym  total        # sym  WBO       # sym  WBO       # sym  WBO
 ---------------------------------------------------------------------------
     1   6 C    3.820 --    29 H    0.982    27 H    0.972    28 H    0.972
                             2 O    0.852
     2   8 O    2.319 --     3 C    1.286     1 C    0.852
     3   6 C    3.811 --     2 O    1.286     4 O    1.250     5 C    1.120
     4   8 O    2.195 --     3 C    1.250    43 H    0.746
     5   6 C    3.958 --    24 C    1.398     6 N    1.179     3 C    1.120
     6   7 N    3.028 --     7 C    1.561     5 C    1.179
     7   6 C    3.921 --     6 N    1.561    20 N    1.181     8 C    0.977
     8   6 C    3.933 --    10 C    0.989     7 C    0.977     9 C    0.977
                            11 N    0.927
     9   6 C    3.985 --    30 H    0.984    31 H    0.981     8 C    0.977
                            32 H    0.975
    10   6 C    3.988 --     8 C    0.989    35 H    0.985    33 H    0.984
                            34 H    0.981
    11   7 N    3.323 --    12 C    1.217     8 C    0.927    36 H    0.895
                            13 O    0.168
    12   6 C    3.913 --    13 O    1.614    11 N    1.217    14 C    0.994
    13   8 O    1.928 --    12 C    1.614    11 N    0.168
    14   6 C    3.877 --    15 N    1.605    19 O    1.065    12 C    0.994
    15   7 N    3.019 --    14 C    1.605    16 N    1.205
    16   7 N    2.981 --    17 C    1.599    15 N    1.205
    17   6 C    3.869 --    16 N    1.599    19 O    1.085    18 C    1.032
    18   6 C    3.985 --    17 C    1.032    39 H    0.982    37 H    0.963
                            38 H    0.962
    19   8 O    2.334 --    17 C    1.085    14 C    1.065
    20   7 N    3.523 --     7 C    1.181    22 C    1.128    21 C    0.919
                            23 O    0.143
    21   6 C    3.906 --    42 H    0.976    41 H    0.972    40 H    0.971
                            20 N    0.919
    22   6 C    3.918 --    23 O    1.593    20 N    1.128    24 C    1.054
    23   8 O    1.939 --    22 C    1.593    20 N    0.143
    24   6 C    3.908 --     5 C    1.398    25 O    1.136    22 C    1.054
    25   8 O    2.248 --    24 C    1.136    26 C    0.855
    26   6 C    3.829 --    45 H    0.983    46 H    0.974    44 H    0.974
                            25 O    0.855
    27   1 H    0.997 --     1 C    0.972
    28   1 H    0.996 --     1 C    0.972
    29   1 H    1.002 --     1 C    0.982
    30   1 H    1.000 --     9 C    0.984
    31   1 H    1.000 --     9 C    0.981
    32   1 H    1.009 --     9 C    0.975
    33   1 H    1.009 --    10 C    0.984
    34   1 H    1.004 --    10 C    0.981
    35   1 H    1.005 --    10 C    0.985
    36   1 H    0.950 --    11 N    0.895
    37   1 H    0.996 --    18 C    0.963
    38   1 H    0.996 --    18 C    0.962
    39   1 H    0.998 --    18 C    0.982
    40   1 H    0.999 --    21 C    0.971
    41   1 H    1.000 --    21 C    0.972
    42   1 H    1.008 --    21 C    0.976
    43   1 H    0.807 --     4 O    0.746
    44   1 H    1.008 --    26 C    0.974
    45   1 H    1.005 --    26 C    0.983
    46   1 H    1.008 --    26 C    0.974
 ---------------------------------------------------------------------------

           -------------------------------------------------
          | TOTAL ENERGY              -86.344026008502 Eh   |
          | GRADIENT NORM               0.000511899937 Eh/α |
          | HOMO-LUMO GAP               1.877520677051 eV   |
           -------------------------------------------------

 * finished run on 2023/06/20 at 15:38:58.745
