   * xtb version 6.5.1 (579679a) compiled by 'ehlert@majestix' on 2022-07-11
          program call               : /lustre/hpc/kemi/ree/PhD/git/ReactivityQM/dep/xtb-6.5.1/bin/xtb --gfn 1 /lustre/hpc/kemi/ree/PhD/git/ReactivityQM/calculations/R01/reac01prodN06/conf09/R01_reac01prodN06_conf09_gfn1.xyz --opt --vfukui --chrg 1 --uhf 0 --alpb DMSO

   ID    Z sym.   atoms
    1    6 C      1, 3, 5, 6, 9, 10
    2    8 O      2, 4, 11
    3    7 N      7, 8
    4    1 H      12-20

      * Solvation model:               ALPB
        Solvent                        DMSO
        Solvent mass                       7.8130E+01 g/mol
          :  Hamiltonian                  GFN1-xTB          :
 * total energy  :   -37.5805099 Eh     change       -0.1101341E-11 Eh
 * total energy  :   -37.5919057 Eh     change       -0.1139583E-01 Eh
 * total energy  :   -37.5962632 Eh     change       -0.4357502E-02 Eh
 * total energy  :   -37.5969338 Eh     change       -0.6705647E-03 Eh
 * total energy  :   -37.5973824 Eh     change       -0.4485933E-03 Eh
 * total energy  :   -37.5975261 Eh     change       -0.1436962E-03 Eh
 * total energy  :   -37.5976672 Eh     change       -0.1411549E-03 Eh
 * total energy  :   -37.5977782 Eh     change       -0.1109235E-03 Eh
 * total energy  :   -37.5978629 Eh     change       -0.8473158E-04 Eh
 * total energy  :   -37.5979429 Eh     change       -0.7998076E-04 Eh
 * total energy  :   -37.5981837 Eh     change       -0.7821208E-05 Eh
 * total energy  :   -37.5981899 Eh     change       -0.6208155E-05 Eh
 * total energy  :   -37.5981972 Eh     change       -0.7341685E-05 Eh
 * total energy  :   -37.5982009 Eh     change       -0.3724344E-05 Eh
 * total energy  :   -37.5982187 Eh     change       -0.1776946E-04 Eh
 * total energy  :   -37.5982273 Eh     change       -0.8642056E-05 Eh
 * total energy  :   -37.5982355 Eh     change       -0.8193006E-05 Eh
 * total energy  :   -37.5982430 Eh     change       -0.7433737E-05 Eh
 * total energy  :   -37.5982467 Eh     change       -0.3695796E-05 Eh
   *** GEOMETRY OPTIMIZATION CONVERGED AFTER 24 ITERATIONS ***

 final structure:
================
20
 xtb: 6.5.1 (579679a)
C           -2.63122191468127        1.42535025036945        0.60935822413072
O           -1.37502572968562        0.77745438503425        0.29006594098577
C           -1.38793187105756       -0.48869265733597        0.05341645376956
O           -2.29391115069504       -1.25637246464170        0.01556970564867
C            0.10379708378968       -1.00675729641949       -0.26072008613626
C            0.21336164691267       -2.48882524008515        0.06301638875591
N            0.31407421630510       -0.64256555708117       -1.61308729916165
N            1.17444354412007        0.27373708833451       -1.68045420597368
C            1.61583402736331        0.53311915490737       -0.39978171419793
C            2.62042990578824        1.52434340552860       -0.04449283584928
O            1.02588178023076       -0.21830771738097        0.45004134560442
H           -3.38119607553124        1.14990345305072       -0.13252565675145
H           -2.94752320909347        1.11128673421415        1.60399154603978
H           -2.42524390099380        2.49224351158196        0.58586089762133
H            0.05351803444055       -2.63154372463141        1.12943865722658
H           -0.54832153896727       -3.02477942722350       -0.49972271384522
H            1.20464631417677       -2.84105333615208       -0.21232099019995
H            3.58730868265791        1.19395079892672       -0.43694190641606
H            2.68489546174807        1.64607858062841        1.03440596444479
H            2.39218569317180        2.47143305837520       -0.53689371569627

          :  Hamiltonian                  GFN1-xTB          :
         :: total energy             -37.598246670186 Eh    ::
         :: gradient norm              0.000719044742 Eh/a0 ::
         :: HOMO-LUMO gap              2.231506348586 eV    ::
         :: SCC energy               -37.939267330923 Eh    ::
         :: -> Gsolv                  -0.080551877781 Eh    ::
         :: repulsion energy           0.349877110844 Eh    ::

    * Orbital Energies and Occupations

         #    Occupation            Energy/Eh            Energy/eV
      -------------------------------------------------------------
         1        2.0000           -0.9437521             -25.6808
       ...           ...                  ...                  ...
        18        2.0000           -0.6164938             -16.7757
        19        2.0000           -0.6119243             -16.6513
        20        2.0000           -0.6012556             -16.3610
        21        2.0000           -0.6011533             -16.3582
        22        2.0000           -0.5856329             -15.9359
        23        2.0000           -0.5805198             -15.7967
        24        2.0000           -0.5720731             -15.5669
        25        2.0000           -0.5669510             -15.4275
        26        2.0000           -0.5646037             -15.3636
        27        2.0000           -0.5505425             -14.9810
        28        2.0000           -0.5400279             -14.6949
        29        2.0000           -0.5357886             -14.5795
        30        2.0000           -0.5167332             -14.0610 (HOMO)
        31                         -0.4347268             -11.8295 (LUMO)
        32                         -0.3417647              -9.2999
        33                         -0.3171463              -8.6300
        34                         -0.1810912              -4.9277
        35                         -0.1647405              -4.4828
        36                         -0.1600199              -4.3544
        37                         -0.1132421              -3.0815
        38                         -0.1096654              -2.9841
        39                         -0.1014782              -2.7614
        40                         -0.0985533              -2.6818
        41                         -0.0978448              -2.6625
       ...                                ...                  ...
        62                          0.7475325              20.3414
      -------------------------------------------------------------
                  HL-Gap            0.0820063 Eh            2.2315 eV

Wiberg/Mayer (AO) data.
largest (>0.10) Wiberg bond orders for each atom

     #   Z sym  total        # sym  WBO       # sym  WBO       # sym  WBO
 ---------------------------------------------------------------------------
     1   6 C    3.814 --    14 H    0.981    12 H    0.979    13 H    0.976
                             2 O    0.836
     2   8 O    2.265 --     3 C    1.230     1 C    0.836     4 O    0.154
     3   6 C    3.864 --     4 O    1.743     2 O    1.230     5 C    0.747
     4   8 O    2.073 --     3 C    1.743     2 O    0.154
     5   6 C    3.837 --     7 N    1.076     6 C    0.934    11 O    0.905
                             3 C    0.747
     6   6 C    3.949 --    15 H    0.976    17 H    0.975    16 H    0.973
                             5 C    0.934
     7   7 N    3.010 --     8 N    1.682     5 C    1.076
     8   7 N    3.022 --     7 N    1.682     9 C    1.175
     9   6 C    3.800 --    11 O    1.307     8 N    1.175    10 C    1.086
    10   6 C    3.962 --     9 C    1.086    19 H    0.969    20 H    0.930
                            18 H    0.905
    11   8 O    2.395 --     9 C    1.307     5 C    0.905
    12   1 H    0.997 --     1 C    0.979
    13   1 H    0.996 --     1 C    0.976
    14   1 H    1.002 --     1 C    0.981
    15   1 H    0.990 --     6 C    0.976
    16   1 H    0.995 --     6 C    0.973
    17   1 H    0.989 --     6 C    0.975
    18   1 H    0.977 --    10 C    0.905
    19   1 H    0.984 --    10 C    0.969
    20   1 H    0.980 --    10 C    0.930
 ---------------------------------------------------------------------------

           -------------------------------------------------
          | TOTAL ENERGY              -37.598246670186 Eh   |
          | GRADIENT NORM               0.000719044742 Eh/α |
          | HOMO-LUMO GAP               2.231506348586 eV   |
           -------------------------------------------------

 * finished run on 2023/06/20 at 14:56:08.569
