   * xtb version 6.5.1 (579679a) compiled by 'ehlert@majestix' on 2022-07-11
          program call               : /lustre/hpc/kemi/ree/PhD/git/ReactivityQM/dep/xtb-6.5.1/bin/xtb --gfn 1 /lustre/hpc/kemi/ree/PhD/git/ReactivityQM/calculations/R02/reac01prodN05/conf17/R02_reac01prodN05_conf17_gfn1.xyz --opt --vfukui --chrg 1 --uhf 0 --alpb DMSO

   ID    Z sym.   atoms
    1    6 C      1, 3, 5, 6, 8, 11-14, 16, 18, 21, 22, 25
    2    8 O      2, 4, 7, 9, 17, 23
    3    7 N      10, 15, 19, 20, 24
    4    1 H      26-43

      * Solvation model:               ALPB
        Solvent                        DMSO
        Solvent mass                       7.8130E+01 g/mol
          :  Hamiltonian                  GFN1-xTB          :
 * total energy  :   -83.1433961 Eh     change       -0.2030731E-10 Eh
 * total energy  :   -83.1625730 Eh     change       -0.1917686E-01 Eh
 * total energy  :   -83.1700429 Eh     change       -0.7469898E-02 Eh
 * total energy  :   -83.1723855 Eh     change       -0.2342607E-02 Eh
 * total energy  :   -83.1742237 Eh     change       -0.1838262E-02 Eh
 * total energy  :   -83.1752832 Eh     change       -0.1059475E-02 Eh
 * total energy  :   -83.1759649 Eh     change       -0.6817073E-03 Eh
 * total energy  :   -83.1763564 Eh     change       -0.3914691E-03 Eh
 * total energy  :   -83.1766022 Eh     change       -0.2458770E-03 Eh
 * total energy  :   -83.1768032 Eh     change       -0.2009375E-03 Eh
 * total energy  :   -83.1785848 Eh     change       -0.1878735E-04 Eh
 * total energy  :   -83.1785950 Eh     change       -0.1023966E-04 Eh
 * total energy  :   -83.1786047 Eh     change       -0.9663493E-05 Eh
 * total energy  :   -83.1786150 Eh     change       -0.1030131E-04 Eh
 * total energy  :   -83.1786229 Eh     change       -0.7888332E-05 Eh
 * total energy  :   -83.1786306 Eh     change       -0.7719071E-05 Eh
 * total energy  :   -83.1786306 Eh     change        0.1722849E-07 Eh
 * total energy  :   -83.1786355 Eh     change       -0.4875337E-05 Eh
 * total energy  :   -83.1786395 Eh     change       -0.4027915E-05 Eh
   *** GEOMETRY OPTIMIZATION CONVERGED AFTER 44 ITERATIONS ***

 final structure:
================
43
 xtb: 6.5.1 (579679a)
C           -4.69773290001958        1.17205632371365        3.08284749012996
O           -4.17313444412327        0.65012993378437        1.84987905350713
C           -2.88807580176893        0.81570758924017        1.63203464058497
O           -2.12640230994989        1.36765427180325        2.38589038630637
C           -2.47281095685142        0.26124373500485        0.28653108301451
C           -3.23995923031899        0.44532926130538       -0.82376394216311
O           -4.42373781431566        1.04330880802833       -0.79602092719524
C           -2.76440305683605        0.00342285625854       -2.13288274218921
O           -3.40112803338634        0.09150882914202       -3.15601610811970
N           -1.48202408654272       -0.52546684183005       -2.09875181426046
C           -0.71416440143551       -0.68262447456370       -1.00942264616833
C            0.65572037717655       -1.31351831062903       -1.22722256931397
C            1.13683171677537       -1.16009811199136       -2.67892793699518
C            0.61810156497934       -2.80378624805930       -0.86575257668557
N            1.61127611049905       -0.61141443427472       -0.37946508292621
C            1.61788975216008        0.74735058327720       -0.41410096612877
O            0.74388505117120        1.39286089177328       -0.97173638324989
C            2.73062249019842        1.34506326767712        0.33930223908323
N            2.99866185562775        2.60045878992918        0.52490538099364
N            4.10853726073592        2.65267513684443        1.30607036617980
C            4.45315250516661        1.42534731479757        1.55450850924695
C            5.59167527371564        0.94540875623668        2.36515868689024
O            3.62105616292814        0.54926715065620        0.97037325726585
N           -1.22119369837007       -0.35371273100768        0.17156594523433
C           -0.51051945809070       -0.61090465797946        1.43158985286550
H           -4.53403748543306        2.25050354169164        3.12641655776374
H           -4.19848187667540        0.69053844212468        3.92535910711506
H           -5.76061014208515        0.94175353927049        3.08276288367579
H           -4.81595993613873        1.06577605387423       -1.68786686712011
H           -1.12783791441766       -0.81376543469726       -3.00083008715887
H            1.05498811529401       -0.12426612709207       -3.00453315867465
H            2.18341523802269       -1.45669163549351       -2.71750578325141
H            0.57635864373964       -1.80799836814812       -3.34980256031560
H           -0.10382659070359       -3.31186978621352       -1.50288384210612
H            0.34430862806992       -2.96698288612820        0.17326570352584
H            1.60382440507617       -3.23114702575853       -1.03941425879991
H            2.41450263960644       -1.11783604390734       -0.04603900492252
H            5.23078006740695        0.27572745405602        3.14506697588816
H            6.28263150452246        0.38380060818882        1.73632263264406
H            6.10895800133819        1.79066351345798        2.81317250372069
H            0.25492256362185       -1.35899987828735        1.28208539529681
H           -0.05715235591175        0.31580806121845        1.78163433630723
H           -1.22890443444976       -0.97227871730194        2.16324727050863

          :  Hamiltonian                  GFN1-xTB          :
         :: total energy             -83.178639477999 Eh    ::
         :: gradient norm              0.000530500574 Eh/a0 ::
         :: HOMO-LUMO gap              2.790946178151 eV    ::
         :: SCC energy               -83.981298804971 Eh    ::
         :: -> Gsolv                  -0.119268735641 Eh    ::
         :: repulsion energy           0.831041759805 Eh    ::

    * Orbital Energies and Occupations

         #    Occupation            Energy/Eh            Energy/eV
      -------------------------------------------------------------
         1        2.0000           -0.8916289             -24.2625
       ...           ...                  ...                  ...
        55        2.0000           -0.5359917             -14.5851
        56        2.0000           -0.5343450             -14.5403
        57        2.0000           -0.5296521             -14.4126
        58        2.0000           -0.5220399             -14.2054
        59        2.0000           -0.5200086             -14.1502
        60        2.0000           -0.5173293             -14.0772
        61        2.0000           -0.5000827             -13.6079
        62        2.0000           -0.4971653             -13.5286
        63        2.0000           -0.4884910             -13.2925
        64        2.0000           -0.4811354             -13.0924
        65        2.0000           -0.4765582             -12.9678
        66        2.0000           -0.4649058             -12.6507
        67        2.0000           -0.4636233             -12.6158 (HOMO)
        68                         -0.3610579              -9.8249 (LUMO)
        69                         -0.3535042              -9.6193
        70                         -0.3313041              -9.0152
        71                         -0.2864061              -7.7935
        72                         -0.2668105              -7.2603
        73                         -0.2188036              -5.9539
        74                         -0.2164811              -5.8908
        75                         -0.1650317              -4.4907
        76                         -0.1578105              -4.2942
        77                         -0.1518451              -4.1319
        78                         -0.1495972              -4.0707
       ...                                ...                  ...
       136                          0.7089100              19.2904
      -------------------------------------------------------------
                  HL-Gap            0.1025654 Eh            2.7909 eV

Wiberg/Mayer (AO) data.
largest (>0.10) Wiberg bond orders for each atom

     #   Z sym  total        # sym  WBO       # sym  WBO       # sym  WBO
 ---------------------------------------------------------------------------
     1   6 C    3.848 --    28 H    0.984    27 H    0.978    26 H    0.978
                             2 O    0.874
     2   8 O    2.237 --     3 C    1.166     1 C    0.874     4 O    0.147
     3   6 C    3.864 --     4 O    1.667     2 O    1.166     5 C    0.959
     4   8 O    1.958 --     3 C    1.667     2 O    0.147
     5   6 C    3.923 --     6 C    1.540    24 N    1.080     3 C    0.959
     6   6 C    3.927 --     5 C    1.540     7 O    1.137     8 C    1.040
     7   8 O    2.107 --     6 C    1.137    29 H    0.792
     8   6 C    3.902 --     9 O    1.653    10 N    1.081     6 C    1.040
     9   8 O    1.962 --     8 C    1.653    10 N    0.118
    10   7 N    3.493 --    11 C    1.272     8 C    1.081    30 H    0.863
                             9 O    0.118
    11   6 C    3.897 --    24 N    1.391    10 N    1.272    12 C    0.975
    12   6 C    3.933 --    13 C    0.985    11 C    0.975    14 C    0.973
                            15 N    0.942
    13   6 C    3.982 --    12 C    0.985    31 H    0.979    33 H    0.978
                            32 H    0.977
    14   6 C    3.980 --    34 H    0.981    36 H    0.976    35 H    0.976
                            12 C    0.973
    15   7 N    3.320 --    16 C    1.220    12 C    0.942    37 H    0.880
                            17 O    0.161
    16   6 C    3.909 --    17 O    1.582    15 N    1.220    18 C    1.013
    17   8 O    1.912 --    16 C    1.582    15 N    0.161
    18   6 C    3.879 --    19 N    1.608    23 O    1.046    16 C    1.013
    19   7 N    3.008 --    18 C    1.608    20 N    1.212
    20   7 N    2.983 --    21 C    1.595    19 N    1.212
    21   6 C    3.863 --    20 N    1.595    23 O    1.077    22 C    1.034
    22   6 C    3.984 --    21 C    1.034    40 H    0.982    38 H    0.962
                            39 H    0.959
    23   8 O    2.319 --    21 C    1.077    18 C    1.046
    24   7 N    3.582 --    11 C    1.391     5 C    1.080    25 C    0.908
    25   6 C    3.892 --    43 H    0.975    41 H    0.973    42 H    0.965
                            24 N    0.908
    26   1 H    1.002 --     1 C    0.978
    27   1 H    1.003 --     1 C    0.978
    28   1 H    1.007 --     1 C    0.984
    29   1 H    0.823 --     7 O    0.792
    30   1 H    0.916 --    10 N    0.863
    31   1 H    0.998 --    13 C    0.979
    32   1 H    0.995 --    13 C    0.977
    33   1 H    0.994 --    13 C    0.978
    34   1 H    0.996 --    14 C    0.981
    35   1 H    0.997 --    14 C    0.976
    36   1 H    0.991 --    14 C    0.976
    37   1 H    0.920 --    15 N    0.880
    38   1 H    0.995 --    22 C    0.962
    39   1 H    0.995 --    22 C    0.959
    40   1 H    0.997 --    22 C    0.982
    41   1 H    1.005 --    25 C    0.973
    42   1 H    1.004 --    25 C    0.965
    43   1 H    0.996 --    25 C    0.975
 ---------------------------------------------------------------------------

           -------------------------------------------------
          | TOTAL ENERGY              -83.178639477999 Eh   |
          | GRADIENT NORM               0.000530500574 Eh/α |
          | HOMO-LUMO GAP               2.790946178151 eV   |
           -------------------------------------------------

 * finished run on 2023/06/20 at 15:23:45.882
