   * xtb version 6.5.1 (579679a) compiled by 'ehlert@majestix' on 2022-07-11
          program call               : /lustre/hpc/kemi/ree/PhD/git/ReactivityQM/dep/xtb-6.5.1/bin/xtb --gfn 1 /lustre/hpc/kemi/ree/PhD/git/ReactivityQM/calculations/R02methylcation/reac01prodE08/conf03/R02methylcation_reac01prodE08_conf03_gfn1.xyz --opt --vfukui --chrg -2 --uhf 0 --alpb DMSO

   ID    Z sym.   atoms
    1    6 C      1, 3, 5, 7-10, 12, 14, 15, 18, 19, 22, 24
    2    8 O      2, 4, 13, 20, 23, 25
    3    7 N      6, 11, 16, 17, 21
    4    1 H      26-42

      * Solvation model:               ALPB
        Solvent                        DMSO
        Solvent mass                       7.8130E+01 g/mol
          :  Hamiltonian                  GFN1-xTB          :
 * total energy  :   -83.6250189 Eh     change       -0.1151193E-08 Eh
 * total energy  :   -83.6386069 Eh     change       -0.1358802E-01 Eh
 * total energy  :   -83.6438603 Eh     change       -0.5253378E-02 Eh
 * total energy  :   -83.6447291 Eh     change       -0.8687981E-03 Eh
 * total energy  :   -83.6452868 Eh     change       -0.5577407E-03 Eh
 * total energy  :   -83.6455183 Eh     change       -0.2314811E-03 Eh
 * total energy  :   -83.6457054 Eh     change       -0.1871454E-03 Eh
 * total energy  :   -83.6458249 Eh     change       -0.1195171E-03 Eh
 * total energy  :   -83.6459219 Eh     change       -0.9695834E-04 Eh
 * total energy  :   -83.6459927 Eh     change       -0.7083031E-04 Eh
 * total energy  :   -83.6475025 Eh     change       -0.2268714E-04 Eh
 * total energy  :   -83.6475130 Eh     change       -0.1048869E-04 Eh
 * total energy  :   -83.6475219 Eh     change       -0.8921143E-05 Eh
 * total energy  :   -83.6475308 Eh     change       -0.8889175E-05 Eh
 * total energy  :   -83.6475442 Eh     change       -0.1339987E-04 Eh
 * total energy  :   -83.6475519 Eh     change       -0.7703039E-05 Eh
 * total energy  :   -83.6475593 Eh     change       -0.7341137E-05 Eh
 * total energy  :   -83.6475680 Eh     change       -0.8728384E-05 Eh
 * total energy  :   -83.6475716 Eh     change       -0.3542718E-05 Eh
   *** GEOMETRY OPTIMIZATION CONVERGED AFTER 51 ITERATIONS ***

 final structure:
================
42
 xtb: 6.5.1 (579679a)
C            5.84282259485691        2.80262902902411       -0.33612740898745
O            5.02329621450505        1.67517071488648       -0.59779743080519
C            3.89640865267233        1.57545742474804        0.15944837465141
O            3.63332434430617        2.43826571761033        0.99181539613034
C            3.08760628200714        0.39873074089476       -0.10558323751335
N            1.95975856899672        0.33153567278229        0.69456215117162
C            1.14536384749930       -0.65609543934694        0.60480128722223
C           -0.08023240824107       -0.70886511101313        1.50909221686320
C           -0.00098653192669        0.45517687653819        2.50192163288951
C           -0.12913793089529       -2.03403302997104        2.28505519580255
N           -1.30283613119649       -0.50985973855220        0.72398664783046
C           -1.88397976900838       -1.42488370715984       -0.09241028301706
O           -1.35822759916299       -2.49876484944376       -0.40540032040311
C           -3.16603418150986       -0.92028196851496       -0.78123906610789
C           -4.17685905264469       -2.06839754640315       -0.94924581917581
N           -2.68722345569818       -0.40068016205258       -2.06655053537023
N           -2.99420858433440        0.92700366314648       -2.05968705890616
C           -3.58684223771981        1.25212654980417       -0.97328180588119
C           -4.12662994613343        2.58150206793027       -0.57709954033797
O           -3.74338311529371        0.17182057471786       -0.07538859668224
N            1.35594267896461       -1.68267483442357       -0.28678988425155
C            2.42047022581595       -1.74722049327996       -1.13871275403772
O            2.54434131866790       -2.70678763752942       -1.90220716672676
C            3.39755977910519       -0.59446269715481       -1.06989766083988
O            4.37951386814385       -0.59807658942759       -1.83983641371227
H            5.29839530721111        3.73403993956651       -0.52282626487095
H            6.18633006603079        2.80072129604635        0.70333269165887
H            6.70032400036868        2.73874113828589       -1.00495150116066
H            0.90810025593406        0.37317515284529        3.09556583815772
H            0.01937886320889        1.40617350559092        1.96992143718748
H           -0.86075194307089        0.43741965655211        3.16886377764493
H            0.76994051695625       -2.13069221043372        2.89203157635758
H           -0.19254845951662       -2.88827190242780        1.61390329405752
H           -0.99819612442212       -2.04255469259867        2.94066375500976
H           -1.91852838091863        0.21066995171430        1.07459404651870
H           -3.68211081383509       -2.91964996777950       -1.41397196798670
H           -4.57136937204975       -2.36404777667808        0.02141979518251
H           -4.99690684603537       -1.73720616821636       -1.58296166969601
H           -3.98738706501103        3.28396980721865       -1.39786248088901
H           -5.19224342760320        2.51492265283394       -0.34668989238088
H           -3.62058987930519        2.97142508896331        0.30961903397213
H            0.68833787032147       -2.44716769931342       -0.31760438854016

          :  Hamiltonian                  GFN1-xTB          :
         :: total energy             -83.647571553489 Eh    ::
         :: gradient norm              0.000358734660 Eh/a0 ::
         :: HOMO-LUMO gap              0.395329844925 eV    ::
         :: SCC energy               -84.385176499346 Eh    ::
         :: -> Gsolv                  -0.276576787771 Eh    ::
         :: repulsion energy           0.764179025676 Eh    ::

    * Orbital Energies and Occupations

         #    Occupation            Energy/Eh            Energy/eV
      -------------------------------------------------------------
         1        2.0000           -0.7934881             -21.5919
       ...           ...                  ...                  ...
        56        2.0000           -0.4479062             -12.1881
        57        2.0000           -0.4455573             -12.1242
        58        2.0000           -0.4309793             -11.7275
        59        2.0000           -0.4270712             -11.6212
        60        2.0000           -0.4122586             -11.2181
        61        2.0000           -0.4044039             -11.0044
        62        2.0000           -0.4022159             -10.9449
        63        2.0000           -0.3990457             -10.8586
        64        2.0000           -0.3786048             -10.3024
        65        2.0000           -0.3694446             -10.0531
        66        2.0000           -0.3569562              -9.7133
        67        2.0000           -0.3498352              -9.5195
        68        1.9990           -0.2762662              -7.5176 (HOMO)
        69        0.0010           -0.2617381              -7.1223 (LUMO)
        70                         -0.2275849              -6.1929
        71                         -0.2082759              -5.6675
        72                         -0.1887455              -5.1360
        73                         -0.1623767              -4.4185
        74                         -0.1201648              -3.2699
        75                         -0.1092018              -2.9715
        76                         -0.1073135              -2.9201
        77                         -0.1046687              -2.8482
        78                         -0.0996705              -2.7122
        79                         -0.0888196              -2.4169
       ...                                ...                  ...
       134                          0.7572169              20.6049
      -------------------------------------------------------------
                  HL-Gap            0.0145281 Eh            0.3953 eV

Wiberg/Mayer (AO) data.
largest (>0.10) Wiberg bond orders for each atom

     #   Z sym  total        # sym  WBO       # sym  WBO       # sym  WBO
 ---------------------------------------------------------------------------
     1   6 C    3.902 --    28 H    0.987    27 H    0.980    26 H    0.980
                             2 O    0.929
     2   8 O    2.154 --     3 C    1.038     1 C    0.929     4 O    0.107
     3   6 C    3.848 --     4 O    1.569     5 C    1.124     2 O    1.038
     4   8 O    1.845 --     3 C    1.569     2 O    0.107
     5   6 C    3.917 --    24 C    1.275     6 N    1.149     3 C    1.124
                            25 O    0.128
     6   7 N    3.025 --     7 C    1.629     5 C    1.149
     7   6 C    3.933 --     6 N    1.629    21 N    1.109     8 C    0.970
     8   6 C    3.952 --     9 C    1.002    10 C    0.987     7 C    0.970
                            11 N    0.930
     9   6 C    3.995 --     8 C    1.002    31 H    0.986    29 H    0.985
                            30 H    0.984
    10   6 C    3.992 --    32 H    0.987     8 C    0.987    34 H    0.985
                            33 H    0.978
    11   7 N    3.299 --    12 C    1.227     8 C    0.930    35 H    0.902
                            13 O    0.140
    12   6 C    3.866 --    13 O    1.535    11 N    1.227    14 C    0.922
    13   8 O    1.872 --    12 C    1.535    11 N    0.140
    14   6 C    3.896 --    16 N    0.978    15 C    0.972    20 O    0.922
                            12 C    0.922
    15   6 C    3.996 --    37 H    0.988    38 H    0.987    36 H    0.986
                            14 C    0.972
    16   7 N    2.622 --    17 N    1.191    14 C    0.978    18 C    0.206
    17   7 N    3.019 --    18 C    1.668    16 N    1.191
    18   6 C    3.862 --    17 N    1.668    19 C    1.017    20 O    0.918
                            16 N    0.206
    19   6 C    3.996 --    18 C    1.017    39 H    0.987    40 H    0.977
                            41 H    0.976
    20   8 O    2.063 --    14 C    0.922    18 C    0.918
    21   7 N    3.447 --    22 C    1.182     7 C    1.109    42 H    0.874
                            23 O    0.137
    22   6 C    3.885 --    23 O    1.560    21 N    1.182    24 C    0.971
    23   8 O    1.840 --    22 C    1.560    21 N    0.137
    24   6 C    3.943 --    25 O    1.508     5 C    1.275    22 C    0.971
    25   8 O    1.812 --    24 C    1.508     5 C    0.128
    26   1 H    1.015 --     1 C    0.980
    27   1 H    1.015 --     1 C    0.980
    28   1 H    1.016 --     1 C    0.987
    29   1 H    1.012 --     9 C    0.985
    30   1 H    1.014 --     9 C    0.984
    31   1 H    1.002 --     9 C    0.986
    32   1 H    1.005 --    10 C    0.987
    33   1 H    1.016 --    10 C    0.978
    34   1 H    1.003 --    10 C    0.985
    35   1 H    0.961 --    11 N    0.902
    36   1 H    1.018 --    15 C    0.986
    37   1 H    1.011 --    15 C    0.988
    38   1 H    1.020 --    15 C    0.987
    39   1 H    1.009 --    19 C    0.987
    40   1 H    1.009 --    19 C    0.977
    41   1 H    1.010 --    19 C    0.976
    42   1 H    0.962 --    21 N    0.874
 ---------------------------------------------------------------------------

           -------------------------------------------------
          | TOTAL ENERGY              -83.647571553489 Eh   |
          | GRADIENT NORM               0.000358734660 Eh/α |
          | HOMO-LUMO GAP               0.395329844925 eV   |
           -------------------------------------------------

 * finished run on 2023/06/21 at 17:18:51.457
