   * xtb version 6.5.1 (579679a) compiled by 'ehlert@majestix' on 2022-07-11
          program call               : /lustre/hpc/kemi/ree/PhD/git/ReactivityQM/dep/xtb-6.5.1/bin/xtb --gfn 1 /lustre/hpc/kemi/ree/PhD/git/ReactivityQM/calculations/RaltegravirCLI/reac02prodE05/conf08/RaltegravirCLI_reac02prodE05_conf08_gfn1.xyz --opt --vfukui --chrg -1 --uhf 0 --alpb DMSO

   ID    Z sym.   atoms
    1    6 C      1, 3, 5-9, 11-13, 15-18, 21, 22, 24
    2    8 O      2, 23, 25
    3    7 N      4, 14, 19, 20
    4    9 F      10
    5    1 H      26-47

      * Solvation model:               ALPB
        Solvent                        DMSO
        Solvent mass                       7.8130E+01 g/mol
          :  Hamiltonian                  GFN1-xTB          :
 * total energy  :   -80.1488265 Eh     change       -0.6252776E-12 Eh
 * total energy  :   -80.1623691 Eh     change       -0.1354255E-01 Eh
 * total energy  :   -80.1671463 Eh     change       -0.4777252E-02 Eh
 * total energy  :   -80.1682222 Eh     change       -0.1075871E-02 Eh
 * total energy  :   -80.1693792 Eh     change       -0.1157031E-02 Eh
 * total energy  :   -80.1700715 Eh     change       -0.6922476E-03 Eh
 * total energy  :   -80.1708001 Eh     change       -0.7286392E-03 Eh
 * total energy  :   -80.1721548 Eh     change       -0.1354634E-02 Eh
 * total energy  :   -80.1738914 Eh     change       -0.1736592E-02 Eh
 * total energy  :   -80.1746661 Eh     change       -0.7747369E-03 Eh
 * total energy  :   -80.1820336 Eh     change       -0.9570238E-05 Eh
 * total energy  :   -80.1820455 Eh     change       -0.1182485E-04 Eh
 * total energy  :   -80.1820579 Eh     change       -0.1241377E-04 Eh
 * total energy  :   -80.1820661 Eh     change       -0.8252658E-05 Eh
 * total energy  :   -80.1820750 Eh     change       -0.8916618E-05 Eh
 * total energy  :   -80.1820843 Eh     change       -0.9298838E-05 Eh
 * total energy  :   -80.1820904 Eh     change       -0.6074885E-05 Eh
 * total energy  :   -80.1820962 Eh     change       -0.5813295E-05 Eh
 * total energy  :   -80.1820992 Eh     change       -0.2933889E-05 Eh
   *** GEOMETRY OPTIMIZATION CONVERGED AFTER 68 ITERATIONS ***

 final structure:
================
47
 xtb: 6.5.1 (579679a)
C            0.26589991056982        0.42845536642521       -2.94293413810608
O            0.55100948368009       -0.59665025912699       -2.00271407897998
C            0.71912791236986       -0.17105568934016       -0.67668426882156
N            2.09867596330674       -0.02265996081651       -0.30766656870178
C            2.79375056327940       -1.32144403606193       -0.25138738515256
C            4.24223711793047       -1.12341540709499        0.11236541918748
C            4.90852394562697       -2.05430004248929        0.90708761589197
C            6.24502626177188       -1.87819928764301        1.24041404650812
C            6.89488028220817       -0.75305068118932        0.76794794448235
F            8.19198254747603       -0.57231978982271        1.08779581860819
C            6.26713100276165        0.19469680487331       -0.01988273914898
C            4.93296487857136       -0.00153241134225       -0.34538946636967
C           -0.34989882382944        0.12840850479859        0.12012164197524
N           -1.62309405359410        0.06001361151523       -0.47439378136984
C           -2.69625231410400        0.35940795218709        0.17456105733342
C           -3.99094294885790        0.26993861344704       -0.64027327197375
C           -4.34854586555629        1.66807213251669       -1.16640801355122
C           -3.77513157781319       -0.66926657607668       -1.84026975832235
N           -5.09934110595620       -0.23925093164685        0.16948931197830
N           -2.69884715554424        0.79291174211792        1.47095229350761
C           -3.89542607803612        1.14817213522667        2.22173309191875
C           -1.46368482217880        0.81130243644572        2.21939957602517
O           -1.49435888734326        1.12238553602344        3.44608488665287
C           -0.33224909463206        0.49294394717341        1.50395572548086
O            0.88584330956539        0.49123044224813        2.22043829500834
H            0.21166007350083       -0.03862862149181       -3.92927401872929
H            1.05133002879395        1.19671575964297       -2.95214370853182
H           -0.69719817122576        0.90830225595665       -2.72134163488872
H            2.14941310115348        0.39854314788051        0.62044743223463
H            2.31069611202099       -2.00177547111164        0.46795195309214
H            2.72741165788173       -1.78311956672243       -1.24471570805491
H            4.38298660449197       -2.93040733613404        1.27084387292767
H            6.77157754714780       -2.59603410855100        1.85540443577417
H            6.81310681066756        1.06183795031485       -0.36810086630524
H            4.41398255513059        0.72914962477386       -0.95756136020661
H           -4.55929455075962        2.35715079547743       -0.34978669393060
H           -3.51755665923620        2.06368470798252       -1.75072898324353
H           -5.22910890099109        1.61216662617506       -1.80565851865255
H           -3.45416582170477       -1.65212676198289       -1.49611410388439
H           -3.01177968593104       -0.26740896242014       -2.50613762943830
H           -4.70741149304291       -0.77571772066674       -2.39298703477431
H           -4.98611323090385       -1.23602962434650        0.30745646873674
H           -5.96317954984380       -0.10680030604101       -0.33623294060822
H           -3.59143745996687        1.73069960730130        3.09513466529929
H           -4.57350171172935        1.74770677604692        1.61790792146417
H           -4.42576653801050        0.25505350697431        2.56202057870386
H            0.65507183086836        0.76224356858662        3.12440061896584

          :  Hamiltonian                  GFN1-xTB          :
         :: total energy             -80.182099167500 Eh    ::
         :: gradient norm              0.000232056169 Eh/a0 ::
         :: HOMO-LUMO gap              0.807177424146 eV    ::
         :: SCC energy               -81.036543921752 Eh    ::
         :: -> Gsolv                  -0.103764299150 Eh    ::
         :: repulsion energy           0.884269587009 Eh    ::

    * Orbital Energies and Occupations

         #    Occupation            Energy/Eh            Energy/eV
      -------------------------------------------------------------
         1        2.0000           -0.8541264             -23.2420
       ...           ...                  ...                  ...
        56        2.0000           -0.4550084             -12.3814
        57        2.0000           -0.4544797             -12.3670
        58        2.0000           -0.4518241             -12.2948
        59        2.0000           -0.4398506             -11.9689
        60        2.0000           -0.4234869             -11.5237
        61        2.0000           -0.4216238             -11.4730
        62        2.0000           -0.4099568             -11.1555
        63        2.0000           -0.3954085             -10.7596
        64        2.0000           -0.3874243             -10.5424
        65        2.0000           -0.3799648             -10.3394
        66        2.0000           -0.3755881             -10.2203
        67        2.0000           -0.3557591              -9.6807
        68        2.0000           -0.2914236              -7.9300 (HOMO)
        69        0.0000           -0.2617604              -7.1229 (LUMO)
        70                         -0.2518654              -6.8536
        71                         -0.2157098              -5.8698
        72                         -0.1813181              -4.9339
        73                         -0.1322443              -3.5986
        74                         -0.1169462              -3.1823
        75                         -0.1122568              -3.0547
        76                         -0.1030985              -2.8055
        77                         -0.1019500              -2.7742
        78                         -0.0985142              -2.6807
        79                         -0.0913607              -2.4861
       ...                                ...                  ...
       144                          0.7005709              19.0635
      -------------------------------------------------------------
                  HL-Gap            0.0296632 Eh            0.8072 eV

Wiberg/Mayer (AO) data.
largest (>0.10) Wiberg bond orders for each atom

     #   Z sym  total        # sym  WBO       # sym  WBO       # sym  WBO
 ---------------------------------------------------------------------------
     1   6 C    3.923 --    26 H    0.986    27 H    0.982    28 H    0.979
                             2 O    0.942
     2   8 O    2.006 --     1 C    0.942     3 C    0.933
     3   6 C    3.801 --    13 C    1.536     4 N    0.988     2 O    0.933
     4   7 N    3.043 --     3 C    0.988     5 C    0.966    29 H    0.931
     5   6 C    3.976 --     6 C    1.010    30 H    0.971     4 N    0.966
                            31 H    0.963
     6   6 C    3.986 --     7 C    1.415    12 C    1.408     5 C    1.010
     7   6 C    3.993 --     8 C    1.442     6 C    1.415    32 H    0.972
                            11 C    0.109
     8   6 C    3.991 --     7 C    1.442     9 C    1.403    33 H    0.970
                            12 C    0.110
     9   6 C    3.854 --     8 C    1.403    11 C    1.400    10 F    0.914
    10   9 F    1.038 --     9 C    0.914
    11   6 C    3.992 --    12 C    1.446     9 C    1.400    34 H    0.971
                             7 C    0.109
    12   6 C    3.992 --    11 C    1.446     6 C    1.408    35 H    0.971
                             8 C    0.110
    13   6 C    3.952 --     3 C    1.536    24 C    1.162    14 N    1.071
    14   7 N    3.012 --    15 C    1.610    13 C    1.071    20 N    0.131
    15   6 C    3.943 --    14 N    1.610    20 N    1.183    16 C    0.968
    16   6 C    3.964 --    18 C    0.991    17 C    0.988    19 N    0.978
                            15 C    0.968
    17   6 C    3.995 --    16 C    0.988    37 H    0.986    38 H    0.985
                            36 H    0.980
    18   6 C    3.996 --    16 C    0.991    41 H    0.987    39 H    0.985
                            40 H    0.982
    19   7 N    2.977 --    16 C    0.978    42 H    0.947    43 H    0.947
    20   7 N    3.395 --    15 C    1.183    21 C    0.955    22 C    0.949
                            14 N    0.131
    21   6 C    3.956 --    46 H    0.981    45 H    0.981    44 H    0.977
                            20 N    0.955
    22   6 C    3.912 --    24 C    1.421    23 O    1.366    20 N    0.949
    23   8 O    1.727 --    22 C    1.366    24 C    0.136
    24   6 C    3.838 --    22 C    1.421    13 C    1.162    25 O    0.947
                            23 O    0.136
    25   8 O    1.943 --    24 C    0.947    47 H    0.848
    26   1 H    1.021 --     1 C    0.986
    27   1 H    1.018 --     1 C    0.982
    28   1 H    1.035 --     1 C    0.979
    29   1 H    0.985 --     4 N    0.931
    30   1 H    1.011 --     5 C    0.971
    31   1 H    1.026 --     5 C    0.963
    32   1 H    1.002 --     7 C    0.972
    33   1 H    0.999 --     8 C    0.970
    34   1 H    1.000 --    11 C    0.971
    35   1 H    1.016 --    12 C    0.971
    36   1 H    1.008 --    17 C    0.980
    37   1 H    1.008 --    17 C    0.986
    38   1 H    1.003 --    17 C    0.985
    39   1 H    1.013 --    18 C    0.985
    40   1 H    1.023 --    18 C    0.982
    41   1 H    1.006 --    18 C    0.987
    42   1 H    0.964 --    19 N    0.947
    43   1 H    0.963 --    19 N    0.947
    44   1 H    1.024 --    21 C    0.977
    45   1 H    1.025 --    21 C    0.981
    46   1 H    1.023 --    21 C    0.981
    47   1 H    0.894 --    25 O    0.848
 ---------------------------------------------------------------------------

           -------------------------------------------------
          | TOTAL ENERGY              -80.182099167500 Eh   |
          | GRADIENT NORM               0.000232056169 Eh/α |
          | HOMO-LUMO GAP               0.807177424146 eV   |
           -------------------------------------------------

 * finished run on 2023/06/20 at 15:02:39.817
