                         Program Version 5.0.1 -  RELEASE  -
|  1> # ORCA input file
|  2> ! SP r2SCAN-3c CPCM
|  3>
|  4> %maxcore 1875.0
|  5> %pal nprocs 4 end
|  6> %cpcm smd true SMDsolvent "DMSO" end
|  7>
|  8> *xyz -1 1
|  9> C       4.200242    3.523597   -0.388699
| 10> O       3.981168    2.126301   -0.351142
| 11> C       2.724654    1.741932    0.117671
| 12> O       1.904298    2.629359    0.443905
| 13> C       2.548461    0.357125    0.161558
| 14> C       3.501060   -0.667162   -0.250735
| 15> O       4.864527   -0.469900   -0.005549
| 16> C       3.079583   -1.858248   -0.758291
| 17> O       3.712998   -2.886465   -1.106748
| 18> N       1.598160   -1.919439   -0.893470
| 19> C       0.804518   -1.275036   -0.020209
| 20> C      -0.554333   -1.903785    0.291412
| 21> C      -1.014804   -2.837149   -0.841276
| 22> C      -0.418708   -2.714128    1.590987
| 23> N      -1.540488   -0.826190    0.396644
| 24> C      -2.819440   -1.038871    0.872311
| 25> O      -3.161022   -2.008969    1.550601
| 26> C      -3.728014    0.047279    0.539272
| 27> N      -4.991056    0.172518    0.883053
| 28> N      -5.437021    1.331706    0.318096
| 29> C      -4.442758    1.846901   -0.331548
| 30> C      -4.434599    3.102014   -1.118121
| 31> O      -3.325507    1.096451   -0.239207
| 32> N       1.256017   -0.164830    0.521756
| 33> C       0.530496    0.575807    1.556154
| 34> H       5.204938    3.681977   -0.783995
| 35> H       4.130228    3.964738    0.613223
| 36> H       3.472317    4.023542   -1.039373
| 37> H       5.320530   -1.272331   -0.297005
| 38> H       1.294985   -2.821825   -1.223309
| 39> H      -0.408212   -3.739792   -0.879405
| 40> H      -2.045607   -3.131231   -0.648792
| 41> H      -0.970045   -2.327626   -1.802143
| 42> H      -0.386146   -2.066160    2.464179
| 43> H       0.500924   -3.296294    1.548064
| 44> H      -1.257390   -3.398088    1.699121
| 45> H      -1.481342   -0.147514   -0.349855
| 46> H      -5.438085    3.519466   -1.146760
| 47> H      -4.092601    2.904305   -2.133638
| 48> H      -3.755471    3.826321   -0.667858
| 49> H      -0.097180    1.339933    1.097939
| 50> H       1.255082    1.056273    2.211505
| 51> H      -0.085352   -0.096510    2.145249
| 52> **                         ****END OF INPUT****

CARTESIAN COORDINATES (ANGSTROEM)
---------------------------------
  C      4.200242    3.523597   -0.388699
  O      3.981168    2.126301   -0.351142
  C      2.724654    1.741932    0.117671
  O      1.904298    2.629359    0.443905
  C      2.548461    0.357125    0.161558
  C      3.501060   -0.667162   -0.250735
  O      4.864527   -0.469900   -0.005549
  C      3.079583   -1.858248   -0.758291
  O      3.712998   -2.886465   -1.106748
  N      1.598160   -1.919439   -0.893470
  C      0.804518   -1.275036   -0.020209
  C     -0.554333   -1.903785    0.291412
  C     -1.014804   -2.837149   -0.841276
  C     -0.418708   -2.714128    1.590987
  N     -1.540488   -0.826190    0.396644
  C     -2.819440   -1.038871    0.872311
  O     -3.161022   -2.008969    1.550601
  C     -3.728014    0.047279    0.539272
  N     -4.991056    0.172518    0.883053
  N     -5.437021    1.331706    0.318096
  C     -4.442758    1.846901   -0.331548
  C     -4.434599    3.102014   -1.118121
  O     -3.325507    1.096451   -0.239207
  N      1.256017   -0.164830    0.521756
  C      0.530496    0.575807    1.556154
  H      5.204938    3.681977   -0.783995
  H      4.130228    3.964738    0.613223
  H      3.472317    4.023542   -1.039373
  H      5.320530   -1.272331   -0.297005
  H      1.294985   -2.821825   -1.223309
  H     -0.408212   -3.739792   -0.879405
  H     -2.045607   -3.131231   -0.648792
  H     -0.970045   -2.327626   -1.802143
  H     -0.386146   -2.066160    2.464179
  H      0.500924   -3.296294    1.548064
  H     -1.257390   -3.398088    1.699121
  H     -1.481342   -0.147514   -0.349855
  H     -5.438085    3.519466   -1.146760
  H     -4.092601    2.904305   -2.133638
  H     -3.755471    3.826321   -0.667858
  H     -0.097180    1.339933    1.097939
  H      1.255082    1.056273    2.211505
  H     -0.085352   -0.096510    2.145249

 Total Charge           Charge          ....   -1
 Multiplicity           Mult            ....    1
 Number of Electrons    NEL             ....  186
 Basis Dimension        Dim             ....  620

ORBITAL ENERGIES
----------------

  NO   OCC          E(Eh)            E(eV)
   0   2.0000     -19.050588      -518.3928
   1   2.0000     -18.942637      -515.4554
   2   2.0000     -18.938669      -515.3474
   3   2.0000     -18.921084      -514.8689
   4   2.0000     -18.870034      -513.4797
   5   2.0000     -18.869467      -513.4643
   6   2.0000     -14.224222      -387.0608
   7   2.0000     -14.190914      -386.1544
   8   2.0000     -14.188585      -386.0910
   9   2.0000     -14.187186      -386.0530
  10   2.0000     -14.182340      -385.9211
  11   2.0000     -10.141302      -275.9588
  12   2.0000     -10.135476      -275.8003
  13   2.0000     -10.126498      -275.5560
  14   2.0000     -10.123658      -275.4787
  15   2.0000     -10.106178      -275.0031
  16   2.0000     -10.092332      -274.6263
  17   2.0000     -10.068762      -273.9849
  18   2.0000     -10.052146      -273.5328
  19   2.0000     -10.046196      -273.3709
  20   2.0000     -10.040564      -273.2176
  21   2.0000     -10.036026      -273.0942
  22   2.0000     -10.023951      -272.7656
  23   2.0000     -10.023543      -272.7545
  24   2.0000     -10.019624      -272.6478
  25   2.0000      -1.134738       -30.8778
  26   2.0000      -1.005683       -27.3660
  27   2.0000      -1.003867       -27.3166
  28   2.0000      -0.982291       -26.7295
  29   2.0000      -0.967511       -26.3273
  30   2.0000      -0.961013       -26.1505
  31   2.0000      -0.932031       -25.3618
  32   2.0000      -0.910796       -24.7840
  33   2.0000      -0.898461       -24.4484
  34   2.0000      -0.865893       -23.5621
  35   2.0000      -0.817913       -22.2565
  36   2.0000      -0.764903       -20.8141
  37   2.0000      -0.719101       -19.5677
  38   2.0000      -0.704672       -19.1751
  39   2.0000      -0.682468       -18.5709
  40   2.0000      -0.662288       -18.0218
  41   2.0000      -0.659426       -17.9439
  42   2.0000      -0.657518       -17.8920
  43   2.0000      -0.620355       -16.8807
  44   2.0000      -0.600835       -16.3496
  45   2.0000      -0.588010       -16.0006
  46   2.0000      -0.566090       -15.4041
  47   2.0000      -0.529382       -14.4052
  48   2.0000      -0.527330       -14.3494
  49   2.0000      -0.519202       -14.1282
  50   2.0000      -0.513429       -13.9711
  51   2.0000      -0.482370       -13.1260
  52   2.0000      -0.479361       -13.0441
  53   2.0000      -0.458871       -12.4865
  54   2.0000      -0.450626       -12.2622
  55   2.0000      -0.444664       -12.0999
  56   2.0000      -0.439883       -11.9698
  57   2.0000      -0.426511       -11.6059
  58   2.0000      -0.409911       -11.1542
  59   2.0000      -0.405324       -11.0294
  60   2.0000      -0.403548       -10.9811
  61   2.0000      -0.402377       -10.9492
  62   2.0000      -0.398521       -10.8443
  63   2.0000      -0.388221       -10.5640
  64   2.0000      -0.387532       -10.5453
  65   2.0000      -0.384989       -10.4761
  66   2.0000      -0.375668       -10.2224
  67   2.0000      -0.372003       -10.1227
  68   2.0000      -0.363022        -9.8783
  69   2.0000      -0.360219        -9.8020
  70   2.0000      -0.356286        -9.6950
  71   2.0000      -0.348746        -9.4899
  72   2.0000      -0.347008        -9.4426
  73   2.0000      -0.342362        -9.3161
  74   2.0000      -0.332477        -9.0472
  75   2.0000      -0.325502        -8.8574
  76   2.0000      -0.323798        -8.8110
  77   2.0000      -0.318117        -8.6564
  78   2.0000      -0.309942        -8.4340
  79   2.0000      -0.307923        -8.3790
  80   2.0000      -0.304398        -8.2831
  81   2.0000      -0.281349        -7.6559
  82   2.0000      -0.275916        -7.5080
  83   2.0000      -0.258035        -7.0215
  84   2.0000      -0.250487        -6.8161
  85   2.0000      -0.239788        -6.5250
  86   2.0000      -0.237574        -6.4647
  87   2.0000      -0.226805        -6.1717
  88   2.0000      -0.223267        -6.0754
  89   2.0000      -0.200936        -5.4678
  90   2.0000      -0.189423        -5.1545
  91   2.0000      -0.167569        -4.5598
  92   2.0000      -0.083416        -2.2699
  93   0.0000      -0.084346        -2.2952
  94   0.0000      -0.034431        -0.9369
  95   0.0000      -0.011750        -0.3197
  96   0.0000       0.047955         1.3049
  97   0.0000       0.056648         1.5415

MULLIKEN ATOMIC CHARGES
-----------------------
   0 C :   -0.350738
   1 O :   -0.180550
   2 C :    0.246588
   3 O :   -0.508079
   4 C :   -0.313647
   5 C :   -0.097134
   6 O :   -0.399720
   7 C :   -0.137316
   8 O :   -0.499050
   9 N :   -0.146092
  10 C :    0.224200
  11 C :   -0.051228
  12 C :   -0.607555
  13 C :   -0.543953
  14 N :   -0.119136
  15 C :   -0.186494
  16 O :   -0.429590
  17 C :    0.396968
  18 N :   -0.193220
  19 N :   -0.284729
  20 C :    0.373353
  21 C :   -0.639583
  22 O :   -0.070010
  23 N :    0.264782
  24 C :   -0.445196
  25 H :    0.152973
  26 H :    0.151495
  27 H :    0.152486
  28 H :    0.312962
  29 H :    0.309067
  30 H :    0.184855
  31 H :    0.195698
  32 H :    0.197005
  33 H :    0.182247
  34 H :    0.187391
  35 H :    0.200338
  36 H :    0.321360
  37 H :    0.201541
  38 H :    0.194923
  39 H :    0.198176
  40 H :    0.200242
  41 H :    0.181726
  42 H :    0.172648
Sum of atomic charges:   -1.0000000

LOEWDIN ATOMIC CHARGES
----------------------
   0 C :   -0.069693
   1 O :   -0.655138
   2 C :    0.338009
   3 O :   -0.602198
   4 C :    0.094976
   5 C :    0.148525
   6 O :   -0.533756
   7 C :    0.264703
   8 O :   -0.622954
   9 N :   -0.541856
  10 C :    0.388860
  11 C :    0.109291
  12 C :   -0.343163
  13 C :   -0.340800
  14 N :   -0.618214
  15 C :    0.365871
  16 O :   -0.482235
  17 C :    0.395381
  18 N :   -0.361096
  19 N :   -0.381895
  20 C :    0.365716
  21 C :   -0.321862
  22 O :   -0.412328
  23 N :   -0.692628
  24 C :   -0.070344
  25 H :    0.170842
  26 H :    0.164504
  27 H :    0.164975
  28 H :    0.281739
  29 H :    0.293419
  30 H :    0.170109
  31 H :    0.181355
  32 H :    0.175177
  33 H :    0.172304
  34 H :    0.171535
  35 H :    0.183960
  36 H :    0.298797
  37 H :    0.188823
  38 H :    0.187766
  39 H :    0.188863
  40 H :    0.195972
  41 H :    0.199524
  42 H :    0.189164

  Mayer bond orders larger than 0.100000
B(  0-C ,  1-O ) :   0.8601 B(  0-C , 25-H ) :   0.9714 B(  0-C , 26-H ) :   0.9670
B(  0-C , 27-H ) :   0.9690 B(  1-O ,  2-C ) :   1.0102 B(  2-C ,  3-O ) :   1.6623
B(  2-C ,  4-C ) :   1.3426 B(  4-C ,  5-C ) :   0.9557 B(  4-C , 23-N ) :   0.9813
B(  5-C ,  6-O ) :   0.9310 B(  5-C ,  7-C ) :   1.3217 B(  5-C ,  8-O ) :  -0.1163
B(  6-O , 28-H ) :   0.8554 B(  7-C ,  8-O ) :   1.9948 B(  7-C ,  9-N ) :   0.7927
B(  9-N , 10-C ) :   1.2964 B(  9-N , 23-N ) :   0.1307 B(  9-N , 29-H ) :   0.8732
B( 10-C , 11-C ) :   0.8806 B( 10-C , 14-N ) :  -0.1307 B( 10-C , 23-N ) :   1.5462
B( 11-C , 12-C ) :   0.8955 B( 11-C , 13-C ) :   0.9251 B( 11-C , 14-N ) :   0.9152
B( 12-C , 30-H ) :   0.9584 B( 12-C , 31-H ) :   0.9578 B( 12-C , 32-H ) :   0.9653
B( 13-C , 33-H ) :   0.9510 B( 13-C , 34-H ) :   0.9575 B( 13-C , 35-H ) :   0.9553
B( 14-N , 15-C ) :   1.0717 B( 14-N , 36-H ) :   0.8780 B( 15-C , 16-O ) :   1.9075
B( 15-C , 17-C ) :   0.7979 B( 16-O , 17-C ) :  -0.1155 B( 17-C , 18-N ) :   1.6490
B( 17-C , 20-C ) :   0.1005 B( 17-C , 22-O ) :   1.0564 B( 18-N , 19-N ) :   1.2853
B( 19-N , 20-C ) :   1.6461 B( 20-C , 21-C ) :   0.8239 B( 20-C , 22-O ) :   1.0585
B( 21-C , 37-H ) :   0.9924 B( 21-C , 38-H ) :   0.9487 B( 21-C , 39-H ) :   0.9408
B( 23-N , 24-C ) :   0.8718 B( 24-C , 40-H ) :   0.9401 B( 24-C , 41-H ) :   0.9364
B( 24-C , 42-H ) :   0.9289

Dispersion correction           -0.019992108
FINAL SINGLE POINT ENERGY     -1269.285096583960

DIPOLE MOMENT
-------------
                                X             Y             Z
Electronic contribution:     -4.37524      -2.13598       0.08521
Nuclear contribution   :      1.11714       3.00778      -1.14850
                        -----------------------------------------
Total Dipole Moment    :     -3.25810       0.87180      -1.06329
                        -----------------------------------------
Magnitude (a.u.)       :      3.53636
Magnitude (Debye)      :      8.98870

Rotational constants in cm-1:     0.011191     0.004322     0.003383
Rotational constants in MHz :   335.499542   129.559716   101.428336

                             ****ORCA TERMINATED NORMALLY****
TOTAL RUN TIME: 0 days 0 hours 11 minutes 57 seconds 626 msec
