   * xtb version 6.5.1 (579679a) compiled by 'ehlert@majestix' on 2022-07-11
          program call               : /lustre/hpc/kemi/ree/PhD/git/ReactivityQM/dep/xtb-6.5.1/bin/xtb --gfn 1 /lustre/hpc/kemi/ree/PhD/git/ReactivityQM/calculations/R02/reac01prodE05/conf03/R02_reac01prodE05_conf03_gfn1.xyz --opt --vfukui --chrg -1 --uhf 0 --alpb DMSO

   ID    Z sym.   atoms
    1    6 C      1, 3, 5, 6, 8, 11-14, 16, 18, 21, 22, 25
    2    8 O      2, 4, 7, 9, 17, 23
    3    7 N      10, 15, 19, 20, 24
    4    1 H      26-43

      * Solvation model:               ALPB
        Solvent                        DMSO
        Solvent mass                       7.8130E+01 g/mol
          :  Hamiltonian                  GFN1-xTB          :
 * total energy  :   -83.7985900 Eh     change       -0.3849721E-10 Eh
 * total energy  :   -83.8126752 Eh     change       -0.1408521E-01 Eh
 * total energy  :   -83.8205046 Eh     change       -0.7829364E-02 Eh
 * total energy  :   -83.8219122 Eh     change       -0.1407632E-02 Eh
 * total energy  :   -83.8233253 Eh     change       -0.1413088E-02 Eh
 * total energy  :   -83.8238757 Eh     change       -0.5503342E-03 Eh
 * total energy  :   -83.8244780 Eh     change       -0.6023501E-03 Eh
 * total energy  :   -83.8249922 Eh     change       -0.5141410E-03 Eh
 * total energy  :   -83.8254359 Eh     change       -0.4437749E-03 Eh
 * total energy  :   -83.8258546 Eh     change       -0.4186620E-03 Eh
 * total energy  :   -83.8277799 Eh     change       -0.1756487E-04 Eh
 * total energy  :   -83.8278056 Eh     change       -0.2573913E-04 Eh
 * total energy  :   -83.8278248 Eh     change       -0.1915715E-04 Eh
 * total energy  :   -83.8278359 Eh     change       -0.1114700E-04 Eh
 * total energy  :   -83.8278529 Eh     change       -0.1696325E-04 Eh
 * total energy  :   -83.8278626 Eh     change       -0.9725631E-05 Eh
 * total energy  :   -83.8278685 Eh     change       -0.5825105E-05 Eh
 * total energy  :   -83.8278690 Eh     change       -0.5899490E-06 Eh
 * total energy  :   -83.8278740 Eh     change       -0.4919961E-05 Eh
   *** GEOMETRY OPTIMIZATION CONVERGED AFTER 37 ITERATIONS ***

 final structure:
================
43
 xtb: 6.5.1 (579679a)
C            4.20024162923734        3.52359661358367       -0.38869873266718
O            3.98116813198843        2.12630077426437       -0.35114229174034
C            2.72465432455033        1.74193153730718        0.11767065378555
O            1.90429832265870        2.62935890483537        0.44390504154172
C            2.54846120153253        0.35712461651721        0.16155816849544
C            3.50105971030831       -0.66716180945903       -0.25073505559183
O            4.86452664533042       -0.46990032006240       -0.00554855591096
C            3.07958347495369       -1.85824780953492       -0.75829133879202
O            3.71299813876978       -2.88646474235866       -1.10674770522069
N            1.59816011914141       -1.91943909458837       -0.89347035740763
C            0.80451764480902       -1.27503565433194       -0.02020893248635
C           -0.55433323416762       -1.90378524832948        0.29141158111271
C           -1.01480427475196       -2.83714869404666       -0.84127557619696
C           -0.41870774164028       -2.71412809266083        1.59098746279850
N           -1.54048800046122       -0.82619026761647        0.39664409545598
C           -2.81943981603149       -1.03887115726214        0.87231131790187
O           -3.16102175543040       -2.00896870375875        1.55060142215572
C           -3.72801444647585        0.04727922802708        0.53927181434056
N           -4.99105596176222        0.17251845825216        0.88305335133658
N           -5.43702121881656        1.33170611771051        0.31809585119668
C           -4.44275799718165        1.84690060267842       -0.33154826587134
C           -4.43459859825729        3.10201430192749       -1.11812135302490
O           -3.32550693350203        1.09645147310923       -0.23920733007692
N            1.25601664407292       -0.16482951434666        0.52175550523260
C            0.53049556421314        0.57580719980303        1.55615379416696
H            5.20493755861270        3.68197676502031       -0.78399521724180
H            4.13022779555879        3.96473763681151        0.61322327337879
H            3.47231680831872        4.02354188342533       -1.03937265216029
H            5.32052961612531       -1.27233072791795       -0.29700524681356
H            1.29498502201532       -2.82182510089798       -1.22330920704102
H           -0.40821227190902       -3.73979184251395       -0.87940460622466
H           -2.04560740176311       -3.13123079929058       -0.64879245327489
H           -0.97004508642791       -2.32762644186161       -1.80214255581420
H           -0.38614606327524       -2.06616017458238        2.46417928906721
H            0.50092438542498       -3.29629378586282        1.54806381716473
H           -1.25739048294583       -3.39808750087866        1.69912145270480
H           -1.48134198369914       -0.14751353870109       -0.34985538768348
H           -5.43808540641111        3.51946551596399       -1.14675983209602
H           -4.09260061833275        2.90430487689757       -2.13363779731682
H           -3.75547146100075        3.82632071253132       -0.66785816161200
H           -0.09718049528957        1.33993282463820        1.09793937461731
H            1.25508168230074        1.05627284091281        2.21150516926783
H           -0.08535217040075       -0.09650986335419        2.14524917654197

          :  Hamiltonian                  GFN1-xTB          :
         :: total energy             -83.827873963899 Eh    ::
         :: gradient norm              0.000847611946 Eh/a0 ::
         :: HOMO-LUMO gap              0.085579528501 eV    ::
         :: SCC energy               -84.585330181241 Eh    ::
         :: -> Gsolv                  -0.115116557065 Eh    ::
         :: repulsion energy           0.784896198085 Eh    ::

    * Orbital Energies and Occupations

         #    Occupation            Energy/Eh            Energy/eV
      -------------------------------------------------------------
         1        2.0000           -0.8383951             -22.8139
       ...           ...                  ...                  ...
        56        2.0000           -0.4769573             -12.9787
        57        2.0000           -0.4633809             -12.6092
        58        2.0000           -0.4574628             -12.4482
        59        2.0000           -0.4437119             -12.0740
        60        2.0000           -0.4433037             -12.0629
        61        2.0000           -0.4375372             -11.9060
        62        2.0000           -0.4342814             -11.8174
        63        2.0000           -0.4301808             -11.7058
        64        2.0000           -0.4233288             -11.5194
        65        2.0000           -0.4137452             -11.2586
        66        2.0000           -0.3965544             -10.7908
        67        2.0000           -0.3730223             -10.1505
        68        1.6792           -0.2977413              -8.1020 (HOMO)
        69        0.3208           -0.2945964              -8.0164 (LUMO)
        70                         -0.2667389              -7.2583
        71                         -0.2368830              -6.4459
        72                         -0.1754716              -4.7748
        73                         -0.1753468              -4.7714
        74                         -0.1343966              -3.6571
        75                         -0.1273028              -3.4641
        76                         -0.1224138              -3.3310
        77                         -0.1152349              -3.1357
        78                         -0.1129743              -3.0742
        79                         -0.1090295              -2.9668
       ...                                ...                  ...
       136                          0.7240854              19.7034
      -------------------------------------------------------------
                  HL-Gap            0.0031450 Eh            0.0856 eV

Wiberg/Mayer (AO) data.
largest (>0.10) Wiberg bond orders for each atom

     #   Z sym  total        # sym  WBO       # sym  WBO       # sym  WBO
 ---------------------------------------------------------------------------
     1   6 C    3.913 --    26 H    0.987    27 H    0.981    28 H    0.981
                             2 O    0.944
     2   8 O    2.076 --     3 C    0.958     1 C    0.944
     3   6 C    3.840 --     4 O    1.418     5 C    1.346     2 O    0.958
     4   8 O    1.738 --     3 C    1.418     5 C    0.117
     5   6 C    3.696 --     3 C    1.346     6 C    1.083    24 N    0.953
                             4 O    0.117
     6   6 C    3.732 --     8 C    1.468     5 C    1.083     7 O    0.972
                             9 O    0.143
     7   8 O    1.925 --     6 C    0.972    29 H    0.856
     8   6 C    3.829 --     6 C    1.468     9 O    1.388    10 N    0.837
     9   8 O    1.690 --     8 C    1.388     6 C    0.143
    10   7 N    3.309 --    11 C    1.270    30 H    0.903     8 C    0.837
                            24 N    0.132
    11   6 C    3.927 --    24 N    1.445    10 N    1.270    12 C    0.972
    12   6 C    3.945 --    13 C    0.988    14 C    0.981    11 C    0.972
                            15 N    0.939
    13   6 C    3.990 --    12 C    0.988    33 H    0.985    32 H    0.980
                            31 H    0.980
    14   6 C    3.988 --    35 H    0.986    12 C    0.981    34 H    0.978
                            36 H    0.977
    15   7 N    3.227 --    16 C    1.144    12 C    0.939    37 H    0.907
                            17 O    0.136
    16   6 C    3.809 --    17 O    1.528    15 N    1.144    18 C    1.066
    17   8 O    1.796 --    16 C    1.528    15 N    0.136
    18   6 C    3.773 --    19 N    1.513    16 C    1.066    23 O    1.008
    19   7 N    2.853 --    18 C    1.513    20 N    1.194
    20   7 N    2.981 --    21 C    1.620    19 N    1.194
    21   6 C    3.837 --    20 N    1.620    23 O    1.059    22 C    1.028
    22   6 C    3.990 --    21 C    1.028    38 H    0.984    39 H    0.968
                            40 H    0.965
    23   8 O    2.248 --    21 C    1.059    18 C    1.008
    24   7 N    3.547 --    11 C    1.445     5 C    0.953    25 C    0.935
                            10 N    0.132
    25   6 C    3.935 --    42 H    0.981    43 H    0.978    41 H    0.974
                            24 N    0.935
    26   1 H    1.019 --     1 C    0.987
    27   1 H    1.018 --     1 C    0.981
    28   1 H    1.019 --     1 C    0.981
    29   1 H    0.886 --     7 O    0.856
    30   1 H    0.957 --    10 N    0.903
    31   1 H    1.000 --    13 C    0.980
    32   1 H    1.004 --    13 C    0.980
    33   1 H    1.001 --    13 C    0.985
    34   1 H    1.006 --    14 C    0.978
    35   1 H    1.003 --    14 C    0.986
    36   1 H    1.017 --    14 C    0.977
    37   1 H    0.951 --    15 N    0.907
    38   1 H    1.001 --    22 C    0.984
    39   1 H    0.998 --    22 C    0.968
    40   1 H    0.998 --    22 C    0.965
    41   1 H    1.027 --    25 C    0.974
    42   1 H    1.017 --    25 C    0.981
    43   1 H    1.016 --    25 C    0.978
 ---------------------------------------------------------------------------

           -------------------------------------------------
          | TOTAL ENERGY              -83.827873963899 Eh   |
          | GRADIENT NORM               0.000847611946 Eh/α |
          | HOMO-LUMO GAP               0.085579528501 eV   |
           -------------------------------------------------

 * finished run on 2023/06/20 at 14:58:19.536
