   * xtb version 6.5.1 (579679a) compiled by 'ehlert@majestix' on 2022-07-11
          program call               : /lustre/hpc/kemi/ree/PhD/git/ReactivityQM/dep/xtb-6.5.1/bin/xtb --gfn 1 /lustre/hpc/kemi/ree/PhD/git/ReactivityQM/calculations/R01/reac01prodN03/conf11/R01_reac01prodN03_conf11_gfn1.xyz --opt --vfukui --chrg 1 --uhf 0 --alpb DMSO

   ID    Z sym.   atoms
    1    6 C      1, 3, 5, 7, 8, 11
    2    8 O      2, 4, 6
    3    7 N      9, 10
    4    1 H      12-20

      * Solvation model:               ALPB
        Solvent                        DMSO
        Solvent mass                       7.8130E+01 g/mol
          :  Hamiltonian                  GFN1-xTB          :
 * total energy  :   -37.6223291 Eh     change       -0.5343281E-11 Eh
 * total energy  :   -37.6369734 Eh     change       -0.1464424E-01 Eh
 * total energy  :   -37.6420375 Eh     change       -0.5064091E-02 Eh
 * total energy  :   -37.6433807 Eh     change       -0.1343273E-02 Eh
 * total energy  :   -37.6443588 Eh     change       -0.9780528E-03 Eh
 * total energy  :   -37.6447731 Eh     change       -0.4142701E-03 Eh
 * total energy  :   -37.6450585 Eh     change       -0.2854058E-03 Eh
 * total energy  :   -37.6452578 Eh     change       -0.1993714E-03 Eh
 * total energy  :   -37.6453167 Eh     change       -0.5890498E-04 Eh
 * total energy  :   -37.6453273 Eh     change       -0.1059396E-04 Eh
 * total energy  :   -37.6453723 Eh     change       -0.1100908E-04 Eh
 * total energy  :   -37.6453899 Eh     change       -0.1751503E-04 Eh
 * total energy  :   -37.6453998 Eh     change       -0.9916362E-05 Eh
 * total energy  :   -37.6454027 Eh     change       -0.2909751E-05 Eh
 * total energy  :   -37.6454118 Eh     change       -0.9152259E-05 Eh
 * total energy  :   -37.6454192 Eh     change       -0.7321792E-05 Eh
 * total energy  :   -37.6454353 Eh     change       -0.1618573E-04 Eh
 * total energy  :   -37.6454425 Eh     change       -0.7161370E-05 Eh
 * total energy  :   -37.6454472 Eh     change       -0.4680640E-05 Eh
   *** GEOMETRY OPTIMIZATION CONVERGED AFTER 22 ITERATIONS ***

 final structure:
================
20
 xtb: 6.5.1 (579679a)
C            3.50266994100540       -1.07017008803043       -0.16271804585024
O            2.06325382764359       -0.98382365944415       -0.19240180748431
C            1.53079920562900        0.19635494176208       -0.04557518956770
O            2.09850917561899        1.24250203095730        0.10998401155325
C            0.02448398952031        0.12360946973984       -0.09231148166949
O           -0.65637616291305       -0.99465296160166       -0.28019395939633
C           -1.95112187044424       -0.65091767821490       -0.26622536468521
C           -3.00855181039719       -1.65605156299483       -0.45712384089537
N           -2.08838399323253        0.63380225393279       -0.07744714692858
N           -0.83975672870996        1.10711169261882        0.02735795250138
C           -0.63419151449669        2.52033517959128        0.26327797798562
H            3.92248402767829       -0.40227862325144       -0.91592051941411
H            3.74426971525537       -2.10762447205858       -0.38006090931466
H            3.85989726347163       -0.78519789102640        0.82772184642385
H           -2.98400955060848       -2.01886385760512       -1.48641508933247
H           -2.83157784407402       -2.50732713556547        0.20013347004148
H           -3.98045610751536       -1.21415162459021       -0.25073393419502
H           -0.70700886876737        2.70255953366812        1.33537600463309
H           -1.41738020714866        3.06439933215103       -0.25947437801419
H            0.35244851248504        2.80038511996195       -0.09720159639082

          :  Hamiltonian                  GFN1-xTB          :
         :: total energy             -37.645447187172 Eh    ::
         :: gradient norm              0.000823049306 Eh/a0 ::
         :: HOMO-LUMO gap              3.651870000304 eV    ::
         :: SCC energy               -38.000222569618 Eh    ::
         :: -> Gsolv                  -0.077903120615 Eh    ::
         :: repulsion energy           0.362891148056 Eh    ::

    * Orbital Energies and Occupations

         #    Occupation            Energy/Eh            Energy/eV
      -------------------------------------------------------------
         1        2.0000           -0.9438938             -25.6847
       ...           ...                  ...                  ...
        18        2.0000           -0.6262389             -17.0408
        19        2.0000           -0.6069254             -16.5153
        20        2.0000           -0.6042820             -16.4433
        21        2.0000           -0.5964806             -16.2311
        22        2.0000           -0.5877601             -15.9938
        23        2.0000           -0.5752109             -15.6523
        24        2.0000           -0.5695413             -15.4980
        25        2.0000           -0.5596973             -15.2301
        26        2.0000           -0.5496760             -14.9574
        27        2.0000           -0.5438483             -14.7989
        28        2.0000           -0.5327393             -14.4966
        29        2.0000           -0.5319395             -14.4748
        30        2.0000           -0.5221116             -14.2074 (HOMO)
        31                         -0.3879079             -10.5555 (LUMO)
        32                         -0.3291337              -8.9562
        33                         -0.2702380              -7.3536
        34                         -0.1747988              -4.7565
        35                         -0.1695353              -4.6133
        36                         -0.1564436              -4.2570
        37                         -0.1098820              -2.9900
        38                         -0.1015047              -2.7621
        39                         -0.1003609              -2.7310
        40                         -0.0997811              -2.7152
        41                         -0.0919523              -2.5022
       ...                                ...                  ...
        62                          0.7203605              19.6020
      -------------------------------------------------------------
                  HL-Gap            0.1342038 Eh            3.6519 eV

Wiberg/Mayer (AO) data.
largest (>0.10) Wiberg bond orders for each atom

     #   Z sym  total        # sym  WBO       # sym  WBO       # sym  WBO
 ---------------------------------------------------------------------------
     1   6 C    3.827 --    13 H    0.983    12 H    0.976    14 H    0.975
                             2 O    0.857
     2   8 O    2.258 --     3 C    1.192     1 C    0.857     4 O    0.160
     3   6 C    3.883 --     4 O    1.677     2 O    1.192     5 C    0.943
     4   8 O    1.982 --     3 C    1.677     2 O    0.160
     5   6 C    3.854 --    10 N    1.452     6 O    1.133     3 C    0.943
     6   8 O    2.386 --     5 C    1.133     7 C    1.085
     7   6 C    3.837 --     9 N    1.552     6 O    1.085     8 C    1.044
     8   6 C    3.968 --     7 C    1.044    17 H    0.976    16 H    0.954
                            15 H    0.942
     9   7 N    2.966 --     7 C    1.552    10 N    1.174
    10   7 N    3.669 --     5 C    1.452     9 N    1.174    11 C    0.908
    11   6 C    3.873 --    19 H    0.971    20 H    0.971    18 H    0.955
                            10 N    0.908
    12   1 H    0.998 --     1 C    0.976
    13   1 H    1.004 --     1 C    0.983
    14   1 H    0.998 --     1 C    0.975
    15   1 H    0.987 --     8 C    0.942
    16   1 H    0.988 --     8 C    0.954
    17   1 H    0.990 --     8 C    0.976
    18   1 H    0.988 --    11 C    0.955
    19   1 H    0.991 --    11 C    0.971
    20   1 H    1.000 --    11 C    0.971
 ---------------------------------------------------------------------------

           -------------------------------------------------
          | TOTAL ENERGY              -37.645447187172 Eh   |
          | GRADIENT NORM               0.000823049306 Eh/α |
          | HOMO-LUMO GAP               3.651870000304 eV   |
           -------------------------------------------------

 * finished run on 2023/06/20 at 14:55:26.963
