                         Program Version 5.0.1 -  RELEASE  -
|  1> # ORCA input file
|  2> ! SP r2SCAN-3c CPCM
|  3>
|  4> %maxcore 1875.0
|  5> %pal nprocs 4 end
|  6> %cpcm smd true SMDsolvent "DMSO" end
|  7>
|  8> *xyz 1 1
|  9> C       1.679714   -0.487727    0.122255
| 10> O       0.740071    0.615886   -0.011729
| 11> B      -0.747891    0.573355   -0.066765
| 12> C      -1.443299   -0.808110   -0.058015
| 13> O      -1.340193    1.747888   -0.127356
| 14> H       1.117223   -1.408056   -0.009219
| 15> H       2.435112   -0.386277   -0.654795
| 16> H       2.125102   -0.445338    1.115511
| 17> H       1.176841    1.478587   -0.008792
| 18> H      -1.132477   -1.407576   -0.913631
| 19> H      -2.525824   -0.694131   -0.095086
| 20> H      -1.187526   -1.372335    0.838352
| 21> H      -0.896852    2.593835   -0.130732
| 22> **                         ****END OF INPUT****

CARTESIAN COORDINATES (ANGSTROEM)
---------------------------------
  C      1.679714   -0.487727    0.122255
  O      0.740071    0.615886   -0.011729
  B     -0.747891    0.573355   -0.066765
  C     -1.443299   -0.808110   -0.058015
  O     -1.340193    1.747888   -0.127356
  H      1.117223   -1.408056   -0.009219
  H      2.435112   -0.386277   -0.654795
  H      2.125102   -0.445338    1.115511
  H      1.176841    1.478587   -0.008792
  H     -1.132477   -1.407576   -0.913631
  H     -2.525824   -0.694131   -0.095086
  H     -1.187526   -1.372335    0.838352
  H     -0.896852    2.593835   -0.130732

 Total Charge           Charge          ....    1
 Multiplicity           Mult            ....    1
 Number of Electrons    NEL             ....   40
 Basis Dimension        Dim             ....  145

ORBITAL ENERGIES
----------------

  NO   OCC          E(Eh)            E(eV)
   0   2.0000     -19.106029      -519.9015
   1   2.0000     -19.011066      -517.3174
   2   2.0000     -10.119107      -275.3549
   3   2.0000     -10.022103      -272.7153
   4   2.0000      -6.729082      -183.1076
   5   2.0000      -1.131214       -30.7819
   6   2.0000      -1.040721       -28.3195
   7   2.0000      -0.730887       -19.8885
   8   2.0000      -0.697322       -18.9751
   9   2.0000      -0.622431       -16.9372
  10   2.0000      -0.584826       -15.9139
  11   2.0000      -0.535918       -14.5831
  12   2.0000      -0.487289       -13.2598
  13   2.0000      -0.407212       -11.0808
  14   2.0000      -0.401681       -10.9303
  15   2.0000      -0.393049       -10.6954
  16   2.0000      -0.374632       -10.1943
  17   2.0000      -0.366910        -9.9841
  18   2.0000      -0.349376        -9.5070
  19   2.0000      -0.347405        -9.4534
  20   0.0000      -0.018907        -0.5145
  21   0.0000      -0.010305        -0.2804
  22   0.0000       0.049732         1.3533
  23   0.0000       0.061302         1.6681
  24   0.0000       0.076416         2.0794

MULLIKEN ATOMIC CHARGES
-----------------------
   0 C :   -0.264344
   1 O :   -0.264622
   2 B :    0.695075
   3 C :   -0.698223
   4 O :   -0.470858
   5 H :    0.214572
   6 H :    0.207417
   7 H :    0.207524
   8 H :    0.398990
   9 H :    0.209376
  10 H :    0.190703
  11 H :    0.208563
  12 H :    0.365828
Sum of atomic charges:    1.0000000

LOEWDIN ATOMIC CHARGES
----------------------
   0 C :    0.030136
   1 O :   -0.467190
   2 B :    0.381104
   3 C :   -0.468835
   4 O :   -0.327821
   5 H :    0.213049
   6 H :    0.202607
   7 H :    0.200885
   8 H :    0.338852
   9 H :    0.200422
  10 H :    0.192533
  11 H :    0.199836
  12 H :    0.304422

  Mayer bond orders larger than 0.100000
B(  0-C ,  1-O ) :   0.8115 B(  0-C ,  5-H ) :   0.9370 B(  0-C ,  6-H ) :   0.9379
B(  0-C ,  7-H ) :   0.9357 B(  1-O ,  2-B ) :   0.6657 B(  1-O ,  8-H ) :   0.8334
B(  2-B ,  3-C ) :   1.1201 B(  2-B ,  4-O ) :   1.2267 B(  3-C ,  9-H ) :   0.9180
B(  3-C , 10-H ) :   0.9290 B(  3-C , 11-H ) :   0.9198 B(  4-O , 12-H ) :   0.8569

Dispersion correction           -0.002379289
FINAL SINGLE POINT ENERGY      -256.177109191035

DIPOLE MOMENT
-------------
                                X             Y             Z
Electronic contribution:     -0.77356       4.77592      -0.25720
Nuclear contribution   :      2.84180      -4.36386       0.36525
                        -----------------------------------------
Total Dipole Moment    :      2.06824       0.41206       0.10805
                        -----------------------------------------
Magnitude (a.u.)       :      2.11166
Magnitude (Debye)      :      5.36740

Rotational constants in cm-1:     0.247968     0.122727     0.084734
Rotational constants in MHz :  7433.903585  3679.256010  2540.274819

                             ****ORCA TERMINATED NORMALLY****
TOTAL RUN TIME: 0 days 0 hours 0 minutes 11 seconds 529 msec
