   * xtb version 6.5.1 (579679a) compiled by 'ehlert@majestix' on 2022-07-11
          program call               : /lustre/hpc/kemi/ree/PhD/git/ReactivityQM/dep/xtb-6.5.1/bin/xtb --gfn 1 /lustre/hpc/kemi/ree/PhD/git/ReactivityQM/calculations/R02/reac02prodN01/conf05/R02_reac02prodN01_conf05_gfn1.xyz --opt --vfukui --chrg 1 --uhf 0 --alpb DMSO

   ID    Z sym.   atoms
    1    6 C      1, 4
    2    8 O      2, 5
    3    5 B      3
    4    1 H      6-13

      * Solvation model:               ALPB
        Solvent                        DMSO
        Solvent mass                       7.8130E+01 g/mol
          :  Hamiltonian                  GFN1-xTB          :
 * total energy  :   -19.0543461 Eh     change       -0.3675638E-10 Eh
 * total energy  :   -19.0631973 Eh     change       -0.8851251E-02 Eh
 * total energy  :   -19.0657750 Eh     change       -0.2577658E-02 Eh
 * total energy  :   -19.0662112 Eh     change       -0.4362549E-03 Eh
 * total energy  :   -19.0665833 Eh     change       -0.3720718E-03 Eh
 * total energy  :   -19.0666650 Eh     change       -0.8172598E-04 Eh
 * total energy  :   -19.0667100 Eh     change       -0.4493103E-04 Eh
 * total energy  :   -19.0667286 Eh     change       -0.1867888E-04 Eh
 * total energy  :   -19.0667375 Eh     change       -0.8820091E-05 Eh
 * total energy  :   -19.0667396 Eh     change       -0.2180162E-05 Eh
   *** GEOMETRY OPTIMIZATION CONVERGED AFTER 10 ITERATIONS ***

 final structure:
================
13
 xtb: 6.5.1 (579679a)
C            1.67971360322758       -0.48772723431462        0.12225487271638
O            0.74007064619177        0.61588562069326       -0.01172933097207
B           -0.74789077743853        0.57335472115595       -0.06676461834817
C           -1.44329891325195       -0.80810989999498       -0.05801474977837
O           -1.34019309697665        1.74788768872539       -0.12735554840103
H            1.11722260843656       -1.40805555476703       -0.00921866303222
H            2.43511246043245       -0.38627671986781       -0.65479478912420
H            2.12510241885496       -0.44533828208799        1.11551090873238
H            1.17684103990788        1.47858672763748       -0.00879242740531
H           -1.13247711381966       -1.40757643434261       -0.91363078812727
H           -2.52582446475577       -0.69413069427423       -0.09508631359764
H           -1.18752616444686       -1.37233464510630        0.83835177418490
H           -0.89685224636175        2.59383470654353       -0.13073232684729

          :  Hamiltonian                  GFN1-xTB          :
         :: total energy             -19.066739634413 Eh    ::
         :: gradient norm              0.000404952908 Eh/a0 ::
         :: HOMO-LUMO gap              7.749225309227 eV    ::
         :: SCC energy               -19.259440726518 Eh    ::
         :: -> Gsolv                  -0.101772239795 Eh    ::
         :: repulsion energy           0.196291439894 Eh    ::

    * Orbital Energies and Occupations

         #    Occupation            Energy/Eh            Energy/eV
      -------------------------------------------------------------
         1        2.0000           -0.9093946             -24.7459
       ...           ...                  ...                  ...
         3        2.0000           -0.7654465             -20.8289
         4        2.0000           -0.7514663             -20.4484
         5        2.0000           -0.6980121             -18.9939
         6        2.0000           -0.6869704             -18.6934
         7        2.0000           -0.6581739             -17.9098
         8        2.0000           -0.6551583             -17.8278
         9        2.0000           -0.6078232             -16.5397
        10        2.0000           -0.5996521             -16.3174
        11        2.0000           -0.5728213             -15.5873
        12        2.0000           -0.5537085             -15.0672
        13        2.0000           -0.5463729             -14.8676
        14        2.0000           -0.5427080             -14.7678
        15        2.0000           -0.5332738             -14.5111 (HOMO)
        16                         -0.2484950              -6.7619 (LUMO)
        17                         -0.1913961              -5.2082
        18                         -0.1802021              -4.9035
        19                         -0.1574695              -4.2850
        20                         -0.1130667              -3.0767
        21                         -0.1097961              -2.9877
        22                         -0.1031385              -2.8065
        23                         -0.0819308              -2.2294
        24                         -0.0695506              -1.8926
        25                         -0.0478794              -1.3029
        26                          0.0688629               1.8739
       ...                                ...                  ...
        36                          0.6176966              16.8084
      -------------------------------------------------------------
                  HL-Gap            0.2847788 Eh            7.7492 eV

Wiberg/Mayer (AO) data.
largest (>0.10) Wiberg bond orders for each atom

     #   Z sym  total        # sym  WBO       # sym  WBO       # sym  WBO
 ---------------------------------------------------------------------------
     1   6 C    3.786 --     6 H    0.981     8 H    0.980     7 H    0.980
                             2 O    0.817
     2   8 O    2.369 --     1 C    0.817     9 H    0.754     3 B    0.735
     3   5 B    3.140 --     5 O    1.285     4 C    1.044     2 O    0.735
     4   6 C    3.988 --     3 B    1.044    11 H    0.975    12 H    0.959
                            10 H    0.958
     5   8 O    2.156 --     3 B    1.285    13 H    0.790
     6   1 H    0.997 --     1 C    0.981
     7   1 H    0.994 --     1 C    0.980
     8   1 H    0.994 --     1 C    0.980
     9   1 H    0.782 --     2 O    0.754
    10   1 H    0.993 --     4 C    0.958
    11   1 H    0.993 --     4 C    0.975
    12   1 H    0.993 --     4 C    0.959
    13   1 H    0.812 --     5 O    0.790
 ---------------------------------------------------------------------------

           -------------------------------------------------
          | TOTAL ENERGY              -19.066739634413 Eh   |
          | GRADIENT NORM               0.000404952908 Eh/α |
          | HOMO-LUMO GAP               7.749225309227 eV   |
           -------------------------------------------------

 * finished run on 2023/06/20 at 15:48:42.098
