   * xtb version 6.5.1 (579679a) compiled by 'ehlert@majestix' on 2022-07-11
          program call               : /lustre/hpc/kemi/ree/PhD/git/ReactivityQM/dep/xtb-6.5.1/bin/xtb --gfn 1 /lustre/hpc/kemi/ree/PhD/git/ReactivityQM/calculations/R02methylcation/reac01prodN11/conf12/R02methylcation_reac01prodN11_conf12_gfn1.xyz --opt --vfukui --chrg 0 --uhf 0 --alpb DMSO

   ID    Z sym.   atoms
    1    6 C      1, 3, 5, 7-10, 12, 13, 15, 18, 19, 22, 24
    2    8 O      2, 4, 14, 20, 23, 25
    3    7 N      6, 11, 16, 17, 21
    4    1 H      26-42

      * Solvation model:               ALPB
        Solvent                        DMSO
        Solvent mass                       7.8130E+01 g/mol
          :  Hamiltonian                  GFN1-xTB          :
 * total energy  :   -82.8566191 Eh     change       -0.1009397E-09 Eh
 * total energy  :   -82.8684095 Eh     change       -0.1179037E-01 Eh
 * total energy  :   -82.8737687 Eh     change       -0.5359198E-02 Eh
 * total energy  :   -82.8747403 Eh     change       -0.9716065E-03 Eh
 * total energy  :   -82.8752626 Eh     change       -0.5222856E-03 Eh
 * total energy  :   -82.8755083 Eh     change       -0.2457225E-03 Eh
 * total energy  :   -82.8756525 Eh     change       -0.1442039E-03 Eh
 * total energy  :   -82.8757367 Eh     change       -0.8414400E-04 Eh
 * total energy  :   -82.8757919 Eh     change       -0.5526595E-04 Eh
 * total energy  :   -82.8758455 Eh     change       -0.5356084E-04 Eh
 * total energy  :   -82.8762605 Eh     change       -0.4318797E-05 Eh
 * total energy  :   -82.8762738 Eh     change       -0.1337599E-04 Eh
 * total energy  :   -82.8762783 Eh     change       -0.4499554E-05 Eh
 * total energy  :   -82.8762894 Eh     change       -0.1107866E-04 Eh
 * total energy  :   -82.8762968 Eh     change       -0.7441924E-05 Eh
 * total energy  :   -82.8763090 Eh     change       -0.1211461E-04 Eh
 * total energy  :   -82.8763155 Eh     change       -0.6518068E-05 Eh
 * total energy  :   -82.8763221 Eh     change       -0.6628954E-05 Eh
 * total energy  :   -82.8763261 Eh     change       -0.4013384E-05 Eh
   *** GEOMETRY OPTIMIZATION CONVERGED AFTER 32 ITERATIONS ***

 final structure:
================
42
 xtb: 6.5.1 (579679a)
C            6.15953633524038        2.21068044181026        0.47648308127404
O            4.91650080441896        1.89282885628209       -0.16022389947112
C            4.24588281074100        0.86482885802339        0.33016329358661
O            4.61333805181303        0.19838343278275        1.26813713297955
C            2.95632383422588        0.58877832267020       -0.39517948450010
N            2.17130998998749       -0.27811745049304        0.22071995561026
C            0.99177782900457       -0.61432469454517       -0.28000149796489
C            0.17797811201768       -1.68468143580107        0.37073848680085
C            0.54768988064825       -1.85471941539440        1.85328773688928
C            0.52322731409637       -3.00068709614447       -0.37099382895975
N           -1.21895737624103       -1.43570129633896        0.12950637159644
C           -1.98115263592419       -0.40621687854402        1.01295780967400
C           -1.31308415880495        0.97304130825750        0.90005968148565
O           -2.03196121073640       -0.92950071077359        2.20074025771471
C           -3.35093952869402       -0.35122054743550        0.32246513358985
N           -4.11320464591356       -1.34789845734124        0.01892091687697
N           -5.24394654677010       -0.81300383450719       -0.54540609580127
C           -5.09187935203314        0.47110750602124       -0.54073764240739
C           -6.03076759521823        1.50422212751036       -1.03381945187999
O           -3.90848082932458        0.83040198866421       -0.00437522721632
N            0.50917021875527       -0.04656456161793       -1.39902861720595
C            1.19985590901127        0.87231381293626       -2.18022215034874
O            0.71831766736952        1.30242895949305       -3.19926871743331
C            2.58531487180145        1.23024078269502       -1.65636282255911
O            3.29050021296085        1.99468531540274       -2.28575170326294
H            5.98650649742695        2.45941513700932        1.52560929433251
H            6.57034544017835        3.06580045603519       -0.05563597545682
H            6.83772579575149        1.35714132707830        0.41360799333020
H            0.40459750661546       -0.91720642272876        2.38564147017913
H            1.59030260289698       -2.15791194112367        1.93281794473196
H           -0.09583639892431       -2.61459763549552        2.28980914522748
H           -0.03049754697109       -3.81861488802849        0.08439749198894
H            0.24787923746219       -2.91630312152006       -1.41994148488430
H            1.58978799161373       -3.20027021377057       -0.29237616353735
H           -1.74478285625741       -2.30504834589588        0.20279320638895
H           -0.28614644722608        0.92151700061849        1.25514196395957
H           -1.86905868204099        1.66559384930632        1.52929039805836
H           -1.32961677859204        1.32442206910607       -0.12809465410176
H           -6.35328357047915        2.13909794425856       -0.20828063643981
H           -6.89743640304220        1.02625197512269       -1.48411107420557
H           -5.53609334286025        2.13576850392688       -1.77108867221424
H           -0.40674600798464       -0.33636102751371       -1.72315096642443

          :  Hamiltonian                  GFN1-xTB          :
         :: total energy             -82.876326121842 Eh    ::
         :: gradient norm              0.000634623175 Eh/a0 ::
         :: HOMO-LUMO gap              0.120889593855 eV    ::
         :: SCC energy               -83.637097745671 Eh    ::
         :: -> Gsolv                  -0.057350617548 Eh    ::
         :: repulsion energy           0.787886177399 Eh    ::

    * Orbital Energies and Occupations

         #    Occupation            Energy/Eh            Energy/eV
      -------------------------------------------------------------
         1        2.0000           -0.8655508             -23.5528
       ...           ...                  ...                  ...
        55        2.0000           -0.5148265             -14.0091
        56        2.0000           -0.5068473             -13.7920
        57        2.0000           -0.5047080             -13.7338
        58        2.0000           -0.4971013             -13.5268
        59        2.0000           -0.4961446             -13.5008
        60        2.0000           -0.4905649             -13.3490
        61        2.0000           -0.4733900             -12.8816
        62        2.0000           -0.4647221             -12.6457
        63        2.0000           -0.4526676             -12.3177
        64        2.0000           -0.4512939             -12.2803
        65        2.0000           -0.4465750             -12.1519
        66        1.9846           -0.4345519             -11.8248
        67        1.8315           -0.4322029             -11.7608 (HOMO)
        68        0.1839           -0.4277602             -11.6399 (LUMO)
        69                         -0.3349873              -9.1155
        70                         -0.3127451              -8.5102
        71                         -0.2640825              -7.1861
        72                         -0.2584517              -7.0328
        73                         -0.2470813              -6.7234
        74                         -0.1885919              -5.1318
        75                         -0.1420758              -3.8661
        76                         -0.1414166              -3.8481
        77                         -0.1405466              -3.8245
        78                         -0.1323071              -3.6003
       ...                                ...                  ...
       134                          0.7498549              20.4046
      -------------------------------------------------------------
                  HL-Gap            0.0044426 Eh            0.1209 eV

Wiberg/Mayer (AO) data.
largest (>0.10) Wiberg bond orders for each atom

     #   Z sym  total        # sym  WBO       # sym  WBO       # sym  WBO
 ---------------------------------------------------------------------------
     1   6 C    3.860 --    27 H    0.985    28 H    0.978    26 H    0.977
                             2 O    0.888
     2   8 O    2.217 --     3 C    1.141     1 C    0.888     4 O    0.145
     3   6 C    3.851 --     4 O    1.664     2 O    1.141     5 C    0.977
     4   8 O    1.916 --     3 C    1.664     2 O    0.145
     5   6 C    3.820 --     6 N    1.453    24 C    1.081     3 C    0.977
     6   7 N    3.028 --     5 C    1.453     7 C    1.333
     7   6 C    3.876 --     6 N    1.333    21 N    1.256     8 C    1.013
     8   6 C    3.943 --     7 C    1.013    11 N    1.003     9 C    0.942
                            10 C    0.917
     9   6 C    3.958 --    30 H    0.982    31 H    0.978    29 H    0.973
                             8 C    0.942
    10   6 C    3.969 --    33 H    0.984    34 H    0.984    32 H    0.978
                             8 C    0.917
    11   7 N    3.083 --     8 C    1.003    35 H    0.909    12 C    0.752
    12   6 C    3.884 --    14 O    1.211    13 C    0.953    15 C    0.904
                            11 N    0.752
    13   6 C    3.956 --    38 H    0.985    37 H    0.976    36 H    0.973
                            12 C    0.953
    14   8 O    1.526 --    12 C    1.211
    15   6 C    3.824 --    16 N    1.662    20 O    1.062    12 C    0.904
    16   7 N    2.985 --    15 C    1.662    17 N    1.162
    17   7 N    2.970 --    18 C    1.638    16 N    1.162
    18   6 C    3.865 --    17 N    1.638    20 O    1.058    19 C    1.029
    19   6 C    3.987 --    18 C    1.029    40 H    0.983    41 H    0.967
                            39 H    0.964
    20   8 O    2.309 --    15 C    1.062    18 C    1.058
    21   7 N    3.485 --     7 C    1.256    22 C    1.083    42 H    0.866
                            23 O    0.102
    22   6 C    3.850 --    23 O    1.705    21 N    1.083    24 C    0.927
    23   8 O    1.943 --    22 C    1.705    21 N    0.102
    24   6 C    3.861 --    25 O    1.703     5 C    1.081    22 C    0.927
    25   8 O    1.862 --    24 C    1.703
    26   1 H    1.004 --     1 C    0.977
    27   1 H    1.009 --     1 C    0.985
    28   1 H    1.004 --     1 C    0.978
    29   1 H    1.013 --     9 C    0.973
    30   1 H    1.006 --     9 C    0.982
    31   1 H    1.008 --     9 C    0.978
    32   1 H    0.995 --    10 C    0.978
    33   1 H    0.997 --    10 C    0.984
    34   1 H    0.998 --    10 C    0.984
    35   1 H    0.950 --    11 N    0.909
    36   1 H    1.002 --    13 C    0.973
    37   1 H    1.002 --    13 C    0.976
    38   1 H    1.005 --    13 C    0.985
    39   1 H    0.998 --    19 C    0.964
    40   1 H    0.999 --    19 C    0.983
    41   1 H    0.998 --    19 C    0.967
    42   1 H    0.933 --    21 N    0.866
 ---------------------------------------------------------------------------

           -------------------------------------------------
          | TOTAL ENERGY              -82.876326121842 Eh   |
          | GRADIENT NORM               0.000634623175 Eh/α |
          | HOMO-LUMO GAP               0.120889593855 eV   |
           -------------------------------------------------

 * finished run on 2023/06/21 at 17:43:41.103
