   * xtb version 6.5.1 (579679a) compiled by 'ehlert@majestix' on 2022-07-11
          program call               : /lustre/hpc/kemi/ree/PhD/git/ReactivityQM/dep/xtb-6.5.1/bin/xtb --gfn 1 /lustre/hpc/kemi/ree/PhD/git/ReactivityQM/calculations/R02oxygendeprot/reac01prodN03/conf05/R02oxygendeprot_reac01prodN03_conf05_gfn1.xyz --opt --vfukui --chrg 0 --uhf 0 --alpb DMSO

   ID    Z sym.   atoms
    1    6 C      1, 3, 5, 6, 8-11, 13, 15, 18, 19, 22, 24
    2    8 O      2, 4, 14, 20, 23, 25
    3    7 N      7, 12, 16, 17, 21
    4    1 H      26-42

      * Solvation model:               ALPB
        Solvent                        DMSO
        Solvent mass                       7.8130E+01 g/mol
          :  Hamiltonian                  GFN1-xTB          :
 * total energy  :   -82.9865009 Eh     change       -0.6579626E-11 Eh
 * total energy  :   -82.9977200 Eh     change       -0.1121912E-01 Eh
 * total energy  :   -83.0017939 Eh     change       -0.4073908E-02 Eh
 * total energy  :   -83.0025164 Eh     change       -0.7225231E-03 Eh
 * total energy  :   -83.0029805 Eh     change       -0.4640917E-03 Eh
 * total energy  :   -83.0032328 Eh     change       -0.2523365E-03 Eh
 * total energy  :   -83.0034902 Eh     change       -0.2574116E-03 Eh
 * total energy  :   -83.0037160 Eh     change       -0.2257837E-03 Eh
 * total energy  :   -83.0039151 Eh     change       -0.1990222E-03 Eh
 * total energy  :   -83.0041039 Eh     change       -0.1888854E-03 Eh
 * total energy  :   -83.0048346 Eh     change       -0.6949687E-05 Eh
 * total energy  :   -83.0048432 Eh     change       -0.8678933E-05 Eh
 * total energy  :   -83.0048524 Eh     change       -0.9113590E-05 Eh
 * total energy  :   -83.0048632 Eh     change       -0.1086180E-04 Eh
 * total energy  :   -83.0048806 Eh     change       -0.1738309E-04 Eh
 * total energy  :   -83.0048901 Eh     change       -0.9534966E-05 Eh
 * total energy  :   -83.0048999 Eh     change       -0.9806035E-05 Eh
 * total energy  :   -83.0049085 Eh     change       -0.8584663E-05 Eh
 * total energy  :   -83.0049125 Eh     change       -0.3958980E-05 Eh
   *** GEOMETRY OPTIMIZATION CONVERGED AFTER 33 ITERATIONS ***

 final structure:
================
42
 xtb: 6.5.1 (579679a)
C           -3.99298582050291        2.28001352330222        1.81539436418768
O           -3.35242303262179        1.87780715172447        0.59364794628470
C           -2.68210881208926        0.74686072890316        0.61096790872463
O           -2.57991668383763        0.00987145125857        1.55488013789658
C           -2.04564534576366        0.43072567643962       -0.77516486461786
C           -1.86474118607995        1.69074929760856       -1.61946054504306
N           -0.75910640057309       -0.16220137164450       -0.48941600380275
C           -0.64772244153058       -1.40907747667194       -0.28860808486880
C            0.69164503544366       -2.00501483071134        0.09813601393219
C            0.58484424610721       -2.67200021850565        1.47735632780199
C            1.14057575731633       -3.00433038409611       -0.97756856269787
N            1.63607392069305       -0.89324044493155        0.16549641465419
C            2.93690990765123       -1.03455008955617        0.47649669941553
O            3.49623571245892       -2.09236869482500        0.72174761125634
C            3.66869195012018        0.25823287504732        0.49907636613188
N            4.92672318098238        0.44254728781179        0.75354474675493
N            5.15256603514625        1.78416596309786        0.67217572187037
C            4.01834919508194        2.33640458904401        0.37432112066244
C            3.73885691510161        3.77571075811853        0.17986592817582
O            3.03694737495312        1.42636675938155        0.24942771074150
N           -1.69864437830448       -2.30761741892514       -0.41878759887330
C           -2.90332605974671       -1.99661858091869       -0.97513194483470
O           -3.78220242433230       -2.81342488903269       -1.12743410326226
C           -3.03282070886981       -0.53233725016789       -1.40992980423841
O           -3.89299242249533       -0.17796244755960       -2.17153597382754
H           -3.24156356452836        2.42070898700449        2.59408303633725
H           -4.50004179335876        3.21753307480980        1.60003963593556
H           -4.70827703273890        1.51687676619750        2.12810630290615
H           -1.28825566243915        2.42583831805076       -1.06409140222164
H           -1.33315139729334        1.43561175940183       -2.53393025889709
H           -2.83661502021477        2.10888535024166       -1.87436588547464
H            0.26663054772636       -1.94057563618931        2.21879921002264
H           -0.13652156316835       -3.48559571070917        1.44628674439516
H            1.55380128670194       -3.07688593045337        1.76392695564851
H            1.22611807805086       -2.50035542612344       -1.93894309890439
H            0.41513587031493       -3.81057236021873       -1.06193814591645
H            2.10595043221150       -3.42811742542450       -0.70688454016480
H            1.25833518238219        0.02776263985670       -0.01676672819597
H            2.99622783682196        4.11181170344219        0.90330651168224
H            4.65587038514050        4.34602720161810        0.30819337075867
H            3.33860720784835        3.94572436210984       -0.81915935722322
H           -1.56603230776878       -3.27339263780467       -0.15889988311003

          :  Hamiltonian                  GFN1-xTB          :
         :: total energy             -83.004912481162 Eh    ::
         :: gradient norm              0.000712388458 Eh/a0 ::
         :: HOMO-LUMO gap              2.421602443462 eV    ::
         :: SCC energy               -83.792757100926 Eh    ::
         :: -> Gsolv                  -0.054336711113 Eh    ::
         :: repulsion energy           0.814537771699 Eh    ::

    * Orbital Energies and Occupations

         #    Occupation            Energy/Eh            Energy/eV
      -------------------------------------------------------------
         1        2.0000           -0.8652160             -23.5437
       ...           ...                  ...                  ...
        55        2.0000           -0.5111550             -13.9092
        56        2.0000           -0.5054770             -13.7547
        57        2.0000           -0.5044700             -13.7273
        58        2.0000           -0.5031118             -13.6904
        59        2.0000           -0.4923976             -13.3988
        60        2.0000           -0.4798756             -13.0581
        61        2.0000           -0.4714328             -12.8283
        62        2.0000           -0.4636712             -12.6171
        63        2.0000           -0.4620059             -12.5718
        64        2.0000           -0.4588633             -12.4863
        65        2.0000           -0.4514631             -12.2849
        66        2.0000           -0.4476581             -12.1814
        67        2.0000           -0.4421814             -12.0324 (HOMO)
        68                         -0.3531892              -9.6108 (LUMO)
        69                         -0.3097297              -8.4282
        70                         -0.2981537              -8.1132
        71                         -0.2706111              -7.3637
        72                         -0.2568357              -6.9889
        73                         -0.2264963              -6.1633
        74                         -0.1974926              -5.3740
        75                         -0.1462937              -3.9809
        76                         -0.1430388              -3.8923
        77                         -0.1420299              -3.8648
        78                         -0.1257434              -3.4217
       ...                                ...                  ...
       134                          0.7591607              20.6578
      -------------------------------------------------------------
                  HL-Gap            0.0889923 Eh            2.4216 eV

Wiberg/Mayer (AO) data.
largest (>0.10) Wiberg bond orders for each atom

     #   Z sym  total        # sym  WBO       # sym  WBO       # sym  WBO
 ---------------------------------------------------------------------------
     1   6 C    3.852 --    27 H    0.985    28 H    0.980    26 H    0.980
                             2 O    0.874
     2   8 O    2.232 --     3 C    1.159     1 C    0.874     4 O    0.140
     3   6 C    3.845 --     4 O    1.696     2 O    1.159     5 C    0.863
     4   8 O    1.964 --     3 C    1.696     2 O    0.140
     5   6 C    3.962 --     6 C    0.984     7 N    0.977    24 C    0.949
                             3 C    0.863
     6   6 C    3.984 --    29 H    0.984     5 C    0.984    30 H    0.983
                            31 H    0.982
     7   7 N    3.048 --     8 C    1.753     5 C    0.977
     8   6 C    3.926 --     7 N    1.753    21 N    1.070     9 C    0.980
     9   6 C    3.939 --     8 C    0.980    11 C    0.978    10 C    0.977
                            12 N    0.937
    10   6 C    3.987 --    32 H    0.984    33 H    0.983    34 H    0.978
                             9 C    0.977
    11   6 C    3.986 --    35 H    0.985    36 H    0.983     9 C    0.978
                            37 H    0.977
    12   7 N    3.360 --    13 C    1.269     9 C    0.937    38 H    0.877
                            14 O    0.179
    13   6 C    3.919 --    14 O    1.577    12 N    1.269    15 C    0.991
    14   8 O    1.897 --    13 C    1.577    12 N    0.179
    15   6 C    3.872 --    16 N    1.624    20 O    1.047    13 C    0.991
    16   7 N    2.999 --    15 C    1.624    17 N    1.197
    17   7 N    2.982 --    18 C    1.613    16 N    1.197
    18   6 C    3.869 --    17 N    1.613    20 O    1.072    19 C    1.031
    19   6 C    3.987 --    18 C    1.031    40 H    0.982    41 H    0.964
                            39 H    0.963
    20   8 O    2.315 --    18 C    1.072    15 C    1.047
    21   7 N    3.428 --    22 C    1.184     8 C    1.070    42 H    0.880
                            23 O    0.149
    22   6 C    3.892 --    23 O    1.676    21 N    1.184    24 C    0.906
    23   8 O    1.960 --    22 C    1.676    21 N    0.149
    24   6 C    3.848 --    25 O    1.814     5 C    0.949    22 C    0.906
    25   8 O    2.028 --    24 C    1.814
    26   1 H    1.003 --     1 C    0.980
    27   1 H    1.007 --     1 C    0.985
    28   1 H    1.004 --     1 C    0.980
    29   1 H    1.003 --     6 C    0.984
    30   1 H    1.000 --     6 C    0.983
    31   1 H    1.007 --     6 C    0.982
    32   1 H    1.001 --    10 C    0.984
    33   1 H    0.998 --    10 C    0.983
    34   1 H    1.007 --    10 C    0.978
    35   1 H    1.001 --    11 C    0.985
    36   1 H    0.999 --    11 C    0.983
    37   1 H    1.008 --    11 C    0.977
    38   1 H    0.955 --    12 N    0.877
    39   1 H    0.997 --    19 C    0.963
    40   1 H    0.998 --    19 C    0.982
    41   1 H    0.997 --    19 C    0.964
    42   1 H    0.928 --    21 N    0.880
 ---------------------------------------------------------------------------

           -------------------------------------------------
          | TOTAL ENERGY              -83.004912481162 Eh   |
          | GRADIENT NORM               0.000712388458 Eh/α |
          | HOMO-LUMO GAP               2.421602443462 eV   |
           -------------------------------------------------

 * finished run on 2023/06/21 at 17:19:11.486
