   * xtb version 6.5.1 (579679a) compiled by 'ehlert@majestix' on 2022-07-11
          program call               : /lustre/hpc/kemi/ree/PhD/git/ReactivityQM/dep/xtb-6.5.1/bin/xtb --gfn 1 /lustre/hpc/kemi/ree/PhD/git/ReactivityQM/calculations/R02oxygendeprot/reac01prodE13/conf07/R02oxygendeprot_reac01prodE13_conf07_gfn1.xyz --opt --vfukui --chrg -2 --uhf 0 --alpb DMSO

   ID    Z sym.   atoms
    1    6 C      1, 3, 5, 6, 8, 10, 12-15, 17, 19, 22, 23
    2    8 O      2, 4, 7, 9, 18, 24
    3    7 N      11, 16, 20, 21, 25
    4    1 H      26-42

      * Solvation model:               ALPB
        Solvent                        DMSO
        Solvent mass                       7.8130E+01 g/mol
          :  Hamiltonian                  GFN1-xTB          :
 * total energy  :   -83.5662142 Eh     change       -0.5752554E-10 Eh
 * total energy  :   -83.5797494 Eh     change       -0.1353525E-01 Eh
 * total energy  :   -83.5847518 Eh     change       -0.5002315E-02 Eh
 * total energy  :   -83.5856684 Eh     change       -0.9166900E-03 Eh
 * total energy  :   -83.5862983 Eh     change       -0.6298195E-03 Eh
 * total energy  :   -83.5865316 Eh     change       -0.2333657E-03 Eh
 * total energy  :   -83.5866942 Eh     change       -0.1625977E-03 Eh
 * total energy  :   -83.5867850 Eh     change       -0.9081742E-04 Eh
 * total energy  :   -83.5868268 Eh     change       -0.4176151E-04 Eh
 * total energy  :   -83.5868482 Eh     change       -0.2135445E-04 Eh
 * total energy  :   -83.5932446 Eh     change       -0.2286195E-04 Eh
 * total energy  :   -83.5932561 Eh     change       -0.1152156E-04 Eh
 * total energy  :   -83.5932652 Eh     change       -0.9130463E-05 Eh
 * total energy  :   -83.5932875 Eh     change       -0.2225312E-04 Eh
 * total energy  :   -83.5933162 Eh     change       -0.2871182E-04 Eh
 * total energy  :   -83.5933360 Eh     change       -0.1986739E-04 Eh
 * total energy  :   -83.5933470 Eh     change       -0.1093091E-04 Eh
 * total energy  :   -83.5933528 Eh     change       -0.5814033E-05 Eh
 * total energy  :   -83.5933568 Eh     change       -0.3984448E-05 Eh
   *** GEOMETRY OPTIMIZATION CONVERGED AFTER 88 ITERATIONS ***

 final structure:
================
42
 xtb: 6.5.1 (579679a)
C           -4.42544570366440        3.58603861617233        1.54120624244051
O           -3.49703516578701        2.57648924859121        1.21437353670935
C           -3.96564544223595        1.62540716300511        0.27472982549132
O           -5.11441182634934        1.77587054173828       -0.17850639594111
C           -3.01750013139079        0.61893333618607       -0.00083657141086
C           -3.26942674470830       -0.48760722809667       -0.94828759154039
O           -4.34519735588642       -0.60746473389558       -1.61142886420481
C           -2.21200507179910       -1.40027524405131       -1.05633155318404
O           -2.17611603475934       -2.50614516645469       -1.90398661128028
C           -3.23428740823193       -3.44261686517827       -1.75071964497795
N           -1.04152062340518       -1.26163494546606       -0.29556601250065
C           -0.87342604394984       -0.16377866827589        0.50733737186831
C            0.44523903746055       -0.07093947677427        1.25720285583535
C            0.41750618926666       -1.08332912165823        2.41405887273132
C            0.63960745832897        1.35537560393282        1.79112719692067
N            1.50151900488824       -0.42871858177850        0.30402470452764
C            2.85596306997860       -0.31272465556328        0.65199814837499
O            3.26688533824735       -0.35638548823838        1.83111662735583
C            3.67823209922309       -0.20016592095435       -0.51026272638438
N            3.24708351488642       -0.11899259826987       -1.77472137199899
N            4.36186453531187        0.01807319516642       -2.55599294909825
C            5.38719892196521        0.01741973583318       -1.76919735563827
C            6.81322829013031        0.14588989142643       -2.16002692489561
O            5.05623316335774       -0.11534494595425       -0.46194568508368
N           -1.79068537421068        0.72124321824124        0.66875850252883
H           -3.94572934772145        4.25234030207236        2.26047680665175
H           -4.71982064259743        4.16669211595688        0.65676056575771
H           -5.33403629045181        3.16661271026299        1.99365015913123
H           -3.27656173567816       -3.83195333748683       -0.72519765732554
H           -3.03041843201211       -4.26819224414253       -2.43549394535417
H           -4.20384413898895       -2.99488168905627       -2.00378085907534
H           -0.29484847245779       -1.92035037637226       -0.43518896229093
H            1.32908303671563       -1.02131539804050        3.00587615133021
H            0.32276264437753       -2.09432979160456        2.01882462553617
H           -0.43597475180069       -0.87601835633092        3.05963012924732
H            0.72579258661073        2.05692149735377        0.96120132512068
H           -0.22378402457658        1.63599475866680        2.39460231953137
H            1.53824442312493        1.41521765703384        2.40286638790941
H            1.31991626380815       -0.10535084201115       -0.64162892727216
H            7.36547795810277       -0.75563015131738       -1.89313522642539
H            6.88212539563624        0.30200669557101       -3.23407483484025
H            7.27375783124117        0.98761853975852       -1.64273468427682

          :  Hamiltonian                  GFN1-xTB          :
         :: total energy             -83.593356776610 Eh    ::
         :: gradient norm              0.000356402696 Eh/a0 ::
         :: HOMO-LUMO gap              0.037148014588 eV    ::
         :: SCC energy               -84.319631906636 Eh    ::
         :: -> Gsolv                  -0.271507702573 Eh    ::
         :: repulsion energy           0.751091694229 Eh    ::

    * Orbital Energies and Occupations

         #    Occupation            Energy/Eh            Energy/eV
      -------------------------------------------------------------
         1        2.0000           -0.8018312             -21.8189
       ...           ...                  ...                  ...
        56        2.0000           -0.4360887             -11.8666
        57        2.0000           -0.4302826             -11.7086
        58        2.0000           -0.4286621             -11.6645
        59        2.0000           -0.4091111             -11.1325
        60        2.0000           -0.4084301             -11.1139
        61        2.0000           -0.4052226             -11.0267
        62        2.0000           -0.3983839             -10.8406
        63        2.0000           -0.3938839             -10.7181
        64        2.0000           -0.3902385             -10.6189
        65        2.0000           -0.3843346             -10.4583
        66        2.0000           -0.3429941              -9.3333
        67        2.0000           -0.3373810              -9.1806
        68        1.3445           -0.2691407              -7.3237 (HOMO)
        69        0.6555           -0.2677756              -7.2865 (LUMO)
        70                         -0.2107349              -5.7344
        71                         -0.2018695              -5.4931
        72                         -0.1646730              -4.4810
        73                         -0.1411369              -3.8405
        74                         -0.1247755              -3.3953
        75                         -0.1072262              -2.9178
        76                         -0.1061387              -2.8882
        77                         -0.0978556              -2.6628
        78                         -0.0933208              -2.5394
        79                         -0.0734051              -1.9975
       ...                                ...                  ...
       134                          0.7326014              19.9351
      -------------------------------------------------------------
                  HL-Gap            0.0013652 Eh            0.0371 eV

Wiberg/Mayer (AO) data.
largest (>0.10) Wiberg bond orders for each atom

     #   Z sym  total        # sym  WBO       # sym  WBO       # sym  WBO
 ---------------------------------------------------------------------------
     1   6 C    3.923 --    26 H    0.987    28 H    0.980    27 H    0.980
                             2 O    0.956
     2   8 O    2.048 --     1 C    0.956     3 C    0.923
     3   6 C    3.779 --     4 O    1.468     5 C    1.289     2 O    0.923
     4   8 O    1.720 --     3 C    1.468
     5   6 C    3.755 --     3 C    1.289    25 N    1.111     6 C    1.075
     6   6 C    3.921 --     7 O    1.394     8 C    1.327     5 C    1.075
     7   8 O    1.690 --     6 C    1.394     8 C    0.114
     8   6 C    3.526 --     6 C    1.327    11 N    1.025     9 O    0.951
                             7 O    0.114
     9   8 O    2.011 --     8 C    0.951    10 C    0.934
    10   6 C    3.908 --    30 H    0.987    29 H    0.983    31 H    0.978
                             9 O    0.934
    11   7 N    3.255 --    12 C    1.129     8 C    1.025    32 H    0.907
                            25 N    0.103
    12   6 C    3.929 --    25 N    1.609    11 N    1.129    13 C    0.974
    13   6 C    3.949 --    15 C    0.991    14 C    0.985    12 C    0.974
                            16 N    0.939
    14   6 C    3.992 --    35 H    0.988    34 H    0.986    13 C    0.985
                            33 H    0.980
    15   6 C    3.993 --    13 C    0.991    36 H    0.987    38 H    0.985
                            37 H    0.984
    16   7 N    3.142 --    17 C    1.077    13 C    0.939    39 H    0.919
                            18 O    0.108
    17   6 C    3.749 --    18 O    1.449    19 C    1.155    16 N    1.077
    18   8 O    1.690 --    17 C    1.449    16 N    0.108
    19   6 C    3.693 --    20 N    1.390    17 C    1.155    24 O    0.977
    20   7 N    2.742 --    19 C    1.390    21 N    1.184
    21   7 N    2.980 --    22 C    1.629    20 N    1.184
    22   6 C    3.820 --    21 N    1.629    24 O    1.049    23 C    1.024
    23   6 C    3.994 --    22 C    1.024    41 H    0.986    42 H    0.972
                            40 H    0.970
    24   8 O    2.183 --    22 C    1.049    19 C    0.977
    25   7 N    2.951 --    12 C    1.609     5 C    1.111    11 N    0.103
    26   1 H    1.021 --     1 C    0.987
    27   1 H    1.022 --     1 C    0.980
    28   1 H    1.021 --     1 C    0.980
    29   1 H    1.014 --    10 C    0.983
    30   1 H    1.020 --    10 C    0.987
    31   1 H    1.038 --    10 C    0.978
    32   1 H    0.962 --    11 N    0.907
    33   1 H    1.023 --    14 C    0.980
    34   1 H    1.010 --    14 C    0.986
    35   1 H    1.008 --    14 C    0.988
    36   1 H    1.011 --    15 C    0.987
    37   1 H    1.022 --    15 C    0.984
    38   1 H    1.014 --    15 C    0.985
    39   1 H    0.982 --    16 N    0.919
    40   1 H    1.001 --    23 C    0.970
    41   1 H    1.004 --    23 C    0.986
    42   1 H    1.001 --    23 C    0.972
 ---------------------------------------------------------------------------

           -------------------------------------------------
          | TOTAL ENERGY              -83.593356776610 Eh   |
          | GRADIENT NORM               0.000356402696 Eh/α |
          | HOMO-LUMO GAP               0.037148014588 eV   |
           -------------------------------------------------

 * finished run on 2023/06/21 at 17:14:53.249
