   * xtb version 6.5.1 (579679a) compiled by 'ehlert@majestix' on 2022-07-11
          program call               : /lustre/hpc/kemi/ree/PhD/git/ReactivityQM/dep/xtb-6.5.1/bin/xtb --gfn 1 /lustre/hpc/kemi/ree/PhD/git/ReactivityQM/calculations/R02methylcation/reac01prodE05/conf15/R02methylcation_reac01prodE05_conf15_gfn1.xyz --opt --vfukui --chrg -2 --uhf 0 --alpb DMSO

   ID    Z sym.   atoms
    1    6 C      1, 3, 5, 6, 8, 11-14, 16, 18, 21, 22, 25
    2    8 O      2, 4, 7, 9, 17, 23
    3    7 N      10, 15, 19, 20, 24
    4    1 H      26-42

      * Solvation model:               ALPB
        Solvent                        DMSO
        Solvent mass                       7.8130E+01 g/mol
          :  Hamiltonian                  GFN1-xTB          :
 * total energy  :   -83.5564419 Eh     change       -0.4819185E-09 Eh
 * total energy  :   -83.5689707 Eh     change       -0.1252883E-01 Eh
 * total energy  :   -83.5743530 Eh     change       -0.5382285E-02 Eh
 * total energy  :   -83.5756531 Eh     change       -0.1300109E-02 Eh
 * total energy  :   -83.5764393 Eh     change       -0.7861936E-03 Eh
 * total energy  :   -83.5768127 Eh     change       -0.3733484E-03 Eh
 * total energy  :   -83.5771075 Eh     change       -0.2947935E-03 Eh
 * total energy  :   -83.5773588 Eh     change       -0.2513628E-03 Eh
 * total energy  :   -83.5775816 Eh     change       -0.2227392E-03 Eh
 * total energy  :   -83.5777849 Eh     change       -0.2032990E-03 Eh
 * total energy  :   -83.5885796 Eh     change       -0.8169819E-05 Eh
 * total energy  :   -83.5886043 Eh     change       -0.2462138E-04 Eh
 * total energy  :   -83.5886189 Eh     change       -0.1466242E-04 Eh
 * total energy  :   -83.5886358 Eh     change       -0.1691093E-04 Eh
 * total energy  :   -83.5886551 Eh     change       -0.1928346E-04 Eh
 * total energy  :   -83.5886679 Eh     change       -0.1281766E-04 Eh
 * total energy  :   -83.5886750 Eh     change       -0.7068018E-05 Eh
 * total energy  :   -83.5886802 Eh     change       -0.5181793E-05 Eh
 * total energy  :   -83.5886845 Eh     change       -0.4369222E-05 Eh
   *** GEOMETRY OPTIMIZATION CONVERGED AFTER 104 ITERATIONS ***

 final structure:
================
42
 xtb: 6.5.1 (579679a)
C           -1.01908828349504        3.05513697566335        1.06093288587640
O           -1.30299717455576        1.73732100891167        0.63809076534958
C           -2.08753559531459        1.62995102049836       -0.51481570595448
O           -2.48163424693636        2.66578258943864       -1.05833187468203
C           -2.31589378786749        0.27940329447527       -0.88842047332461
C           -3.02096346603228       -0.12111177500580       -2.04584780891182
O           -3.55418619411416        0.63701542188056       -2.89092006946458
C           -3.04186426773055       -1.62405527269657       -2.29597781806942
O           -3.90725250573203       -2.19467478574631       -2.99505496559961
N           -2.00501823453189       -2.31486626110420       -1.77867972018967
C           -1.19353461393230       -1.88696015601915       -0.66414176566327
C            0.27252897931823       -1.62909385898842       -1.08079792991780
C            1.00968496392873       -2.98132160966571       -1.07978668661836
C            0.44239853971674       -0.95295558726561       -2.46105179133529
N            0.84816575322150       -0.76190482796343       -0.04820116292203
C            2.12389566757655       -0.36500431014573        0.02721393550148
O            3.03461114145456       -0.70593982537580       -0.73541970221701
C            2.35151192831006        0.55387880860066        1.16505114851230
N            1.45992674722713        0.99188562846253        2.01629360853886
N            2.11669030849324        1.81705187285723        2.88656415110896
C            3.35778074184313        1.83393248846450        2.51924089834408
C            4.47094516066905        2.58472392861612        3.14500347631354
O            3.58245726485285        1.06113466602558        1.44093488884113
N           -1.78373097080010       -0.74097071919684        0.00497516069087
C           -2.80031428383832       -1.18267799858169        0.97623480393935
H           -1.93590050251138        3.59313134506407        1.33244539327522
H           -0.37083357721910        2.98216565821893        1.93615533721256
H           -0.50345957173557        3.62478609228664        0.27724785378987
H           -1.99514174717197       -3.30145714019143       -1.98553309326580
H            0.92743013729381       -3.43474556314302       -0.09219863052493
H            2.06323433187189       -2.87252508537765       -1.33682800137846
H            0.53942869231058       -3.64514765326403       -1.80412762915659
H           -0.02551322336209       -1.57306792639036       -3.22552900026105
H           -0.03294981815404        0.02917775683843       -2.45956275310934
H            1.49796761289544       -0.83623365953888       -2.70669934943888
H            0.17216230453005       -0.37883484320329        0.61571889226738
H            4.09540645460957        3.15422287674127        3.99101878558878
H            5.24383841813522        1.89685854011236        3.48650489363704
H            4.92087250043676        3.26443290190192        2.42179715989890
H           -3.10298849715254       -0.33676496134420        1.59855370503899
H           -3.69327451565959       -1.59808277506251        0.48553672250641
H           -2.35686257088333       -1.95359727975251        1.60896146574648

          :  Hamiltonian                  GFN1-xTB          :
         :: total energy             -83.588684546142 Eh    ::
         :: gradient norm              0.000359088420 Eh/a0 ::
         :: HOMO-LUMO gap              0.123649678389 eV    ::
         :: SCC energy               -84.307622326891 Eh    ::
         :: -> Gsolv                  -0.277218338056 Eh    ::
         :: repulsion energy           0.748150875812 Eh    ::

    * Orbital Energies and Occupations

         #    Occupation            Energy/Eh            Energy/eV
      -------------------------------------------------------------
         1        2.0000           -0.8329872             -22.6667
       ...           ...                  ...                  ...
        56        2.0000           -0.4378117             -11.9135
        57        2.0000           -0.4343422             -11.8191
        58        2.0000           -0.4296332             -11.6909
        59        2.0000           -0.4274596             -11.6318
        60        2.0000           -0.4140670             -11.2673
        61        2.0000           -0.4121809             -11.2160
        62        2.0000           -0.4035679             -10.9816
        63        2.0000           -0.4004762             -10.8975
        64        2.0000           -0.3811056             -10.3704
        65        2.0000           -0.3560081              -9.6875
        66        2.0000           -0.3368744              -9.1668
        67        2.0000           -0.3217796              -8.7561
        68        1.8324           -0.2810397              -7.6475 (HOMO)
        69        0.1676           -0.2764957              -7.5238 (LUMO)
        70                         -0.2324726              -6.3259
        71                         -0.2258761              -6.1464
        72                         -0.1615894              -4.3971
        73                         -0.1605810              -4.3696
        74                         -0.1333680              -3.6291
        75                         -0.1058082              -2.8792
        76                         -0.1000368              -2.7221
        77                         -0.0923770              -2.5137
        78                         -0.0853604              -2.3228
        79                         -0.0794213              -2.1612
       ...                                ...                  ...
       134                          0.7701801              20.9577
      -------------------------------------------------------------
                  HL-Gap            0.0045440 Eh            0.1236 eV

Wiberg/Mayer (AO) data.
largest (>0.10) Wiberg bond orders for each atom

     #   Z sym  total        # sym  WBO       # sym  WBO       # sym  WBO
 ---------------------------------------------------------------------------
     1   6 C    3.916 --    27 H    0.985    26 H    0.981    28 H    0.980
                             2 O    0.946
     2   8 O    2.103 --     3 C    0.958     1 C    0.946
     3   6 C    3.853 --     4 O    1.517     5 C    1.248     2 O    0.958
     4   8 O    1.817 --     3 C    1.517
     5   6 C    3.889 --     6 C    1.306     3 C    1.248    24 N    0.966
                             7 O    0.127
     6   6 C    3.932 --     7 O    1.486     5 C    1.306     8 C    0.951
     7   8 O    1.782 --     6 C    1.486     5 C    0.127
     8   6 C    3.883 --     9 O    1.475    10 N    1.271     6 C    0.951
     9   8 O    1.752 --     8 C    1.475    10 N    0.155
    10   7 N    3.377 --     8 C    1.271    11 C    0.943    29 H    0.918
                             9 O    0.155
    11   6 C    3.205 --    24 N    0.966    12 C    0.955    10 N    0.943
    12   6 C    3.900 --    13 C    0.988    14 C    0.976    11 C    0.955
                            15 N    0.913
    13   6 C    3.992 --    12 C    0.988    30 H    0.987    32 H    0.987
                            31 H    0.984
    14   6 C    3.987 --    33 H    0.986    34 H    0.985    35 H    0.985
                            12 C    0.976
    15   7 N    3.359 --    16 C    1.294    12 C    0.913    36 H    0.880
                            17 O    0.177
    16   6 C    3.884 --    17 O    1.505    15 N    1.294    18 C    1.011
    17   8 O    1.808 --    16 C    1.505    15 N    0.177
    18   6 C    3.791 --    19 N    1.558    23 O    1.030    16 C    1.011
    19   7 N    2.931 --    18 C    1.558    20 N    1.184
    20   7 N    2.982 --    21 C    1.623    19 N    1.184
    21   6 C    3.857 --    20 N    1.623    23 O    1.071    22 C    1.027
    22   6 C    3.991 --    21 C    1.027    37 H    0.984    39 H    0.968
                            38 H    0.968
    23   8 O    2.273 --    21 C    1.071    18 C    1.030
    24   7 N    3.087 --    25 C    0.972     5 C    0.966    11 C    0.966
    25   6 C    3.985 --    42 H    0.989    40 H    0.988    41 H    0.981
                            24 N    0.972
    26   1 H    1.019 --     1 C    0.981
    27   1 H    1.030 --     1 C    0.985
    28   1 H    1.020 --     1 C    0.980
    29   1 H    0.984 --    10 N    0.918
    30   1 H    1.023 --    13 C    0.987
    31   1 H    1.017 --    13 C    0.984
    32   1 H    1.011 --    13 C    0.987
    33   1 H    1.015 --    14 C    0.986
    34   1 H    1.018 --    14 C    0.985
    35   1 H    1.015 --    14 C    0.985
    36   1 H    0.999 --    15 N    0.880
    37   1 H    1.001 --    22 C    0.984
    38   1 H    0.999 --    22 C    0.968
    39   1 H    0.999 --    22 C    0.968
    40   1 H    1.025 --    25 C    0.988
    41   1 H    1.013 --    25 C    0.981
    42   1 H    1.037 --    25 C    0.989
 ---------------------------------------------------------------------------

           -------------------------------------------------
          | TOTAL ENERGY              -83.588684546142 Eh   |
          | GRADIENT NORM               0.000359088420 Eh/α |
          | HOMO-LUMO GAP               0.123649678389 eV   |
           -------------------------------------------------

 * finished run on 2023/06/21 at 17:12:34.127
