   * xtb version 6.5.1 (579679a) compiled by 'ehlert@majestix' on 2022-07-11
          program call               : /lustre/hpc/kemi/ree/PhD/git/ReactivityQM/dep/xtb-6.5.1/bin/xtb --gfn 1 /lustre/hpc/kemi/ree/PhD/git/ReactivityQM/calculations/R02methylcation/reac01prodE14/conf20/R02methylcation_reac01prodE14_conf20_gfn1.xyz --opt --vfukui --chrg -2 --uhf 0 --alpb DMSO

   ID    Z sym.   atoms
    1    6 C      1, 3, 5, 7-10, 12, 14, 17, 18, 21, 23, 24
    2    8 O      2, 4, 13, 19, 22, 25
    3    7 N      6, 11, 15, 16, 20
    4    1 H      26-42

      * Solvation model:               ALPB
        Solvent                        DMSO
        Solvent mass                       7.8130E+01 g/mol
          :  Hamiltonian                  GFN1-xTB          :
 * total energy  :   -83.5856891 Eh     change       -0.1559357E-09 Eh
 * total energy  :   -83.6007516 Eh     change       -0.1506249E-01 Eh
 * total energy  :   -83.6067034 Eh     change       -0.5951858E-02 Eh
 * total energy  :   -83.6077232 Eh     change       -0.1019772E-02 Eh
 * total energy  :   -83.6083852 Eh     change       -0.6619877E-03 Eh
 * total energy  :   -83.6087371 Eh     change       -0.3519104E-03 Eh
 * total energy  :   -83.6090245 Eh     change       -0.2874165E-03 Eh
 * total energy  :   -83.6092221 Eh     change       -0.1976092E-03 Eh
 * total energy  :   -83.6093433 Eh     change       -0.1211218E-03 Eh
 * total energy  :   -83.6094442 Eh     change       -0.1009781E-03 Eh
 * total energy  :   -83.6105418 Eh     change       -0.7383823E-05 Eh
 * total energy  :   -83.6105665 Eh     change       -0.2461891E-04 Eh
 * total energy  :   -83.6105799 Eh     change       -0.1339475E-04 Eh
 * total energy  :   -83.6106035 Eh     change       -0.2362798E-04 Eh
 * total energy  :   -83.6106125 Eh     change       -0.9011323E-05 Eh
 * total energy  :   -83.6106242 Eh     change       -0.1174387E-04 Eh
 * total energy  :   -83.6106323 Eh     change       -0.8056644E-05 Eh
 * total energy  :   -83.6106370 Eh     change       -0.4687143E-05 Eh
 * total energy  :   -83.6106413 Eh     change       -0.4339241E-05 Eh
   *** GEOMETRY OPTIMIZATION CONVERGED AFTER 39 ITERATIONS ***

 final structure:
================
42
 xtb: 6.5.1 (579679a)
C           -5.22085841422382        2.73534782927783        1.31626718889653
O           -4.48345703987015        1.81443931866890        0.54378411366485
C           -3.28832022832902        1.36635547245369        1.13515308694675
O           -3.00591006132715        1.80997283011235        2.27030282228439
C           -2.51618929048771        0.48506739840297        0.36058359721458
N           -1.40275617681589        0.02021060795358        1.02418622721379
C           -0.52803447338140       -0.72778398080182        0.45949832824501
C            0.62871825170555       -1.30576566069314        1.24682536174936
C            0.58546682774415       -0.76828922575763        2.68142946054933
C            0.55688109826850       -2.84132660540735        1.23295745638660
N            1.88918018488049       -0.87756058777599        0.59820017759457
C            3.11480116954090       -1.20588853881786        1.04349432901004
O            3.35710437986730       -1.91676283933458        2.01678404360463
C            4.20730369078952       -0.62214990466900        0.23216737647523
N            5.49085896199435       -0.75303305075804        0.42312894423597
N            6.11012506181283       -0.04365619266280       -0.56570596122739
C            5.17473199734172        0.47467871496298       -1.29725268435334
C            5.33467184908582        1.32691767005877       -2.49682506461823
O            3.94762391458229        0.15209640285699       -0.85103556462530
N           -0.58971712460487       -1.05942062340266       -0.91151859119805
C           -1.56314818282345       -0.52189105478052       -1.71247097142299
O           -1.37243316381969       -0.47940118172262       -2.93382911850502
C           -2.91594986119040       -0.18608721965015       -0.99324323357656
C           -3.65014852318173        0.83315597443448       -1.93063002408639
O           -3.58585415593511       -1.34177128085952       -0.84589829532564
H           -6.10911308475708        3.00885338352948        0.74389812455342
H           -5.53285493983905        2.30015782357934        2.27490511625216
H           -4.63805116882205        3.64180063214752        1.52577010481107
H           -0.37433204777555       -1.02342552396711        3.13047493897000
H            1.38495566557658       -1.19751832256200        3.28174372280885
H            0.68561342179212        0.31689629092508        2.67265487957633
H            1.36645209553874       -3.27464986857651        1.81747645772923
H           -0.39325180288158       -3.16168761250534        1.65990491372347
H            0.62657764149374       -3.20812870383590        0.20969499725444
H            1.82721180873161       -0.25398810856348       -0.19093456813663
H            4.82891614400800        2.28127127796140       -2.34987649129991
H            4.89084611070220        0.83935643695405       -3.36512325064993
H            6.39201369244484        1.50031400464697       -2.68047924565503
H            0.26454013382245       -1.32874597205265       -1.36917953718030
H           -4.70120927568058        0.89284713237116       -1.65477502475124
H           -3.20021422014515        1.82512660117227       -1.87635796280430
H           -3.59278786583216        0.47406425667623       -2.95963218032691

          :  Hamiltonian                  GFN1-xTB          :
         :: total energy             -83.610641325818 Eh    ::
         :: gradient norm              0.000844880914 Eh/a0 ::
         :: HOMO-LUMO gap              0.156085719133 eV    ::
         :: SCC energy               -84.344544462486 Eh    ::
         :: -> Gsolv                  -0.295077881854 Eh    ::
         :: repulsion energy           0.759600745263 Eh    ::

    * Orbital Energies and Occupations

         #    Occupation            Energy/Eh            Energy/eV
      -------------------------------------------------------------
         1        2.0000           -0.8472110             -23.0538
       ...           ...                  ...                  ...
        56        2.0000           -0.4408459             -11.9960
        57        2.0000           -0.4353364             -11.8461
        58        2.0000           -0.4303216             -11.7096
        59        2.0000           -0.4248169             -11.5599
        60        2.0000           -0.4214461             -11.4681
        61        2.0000           -0.4146325             -11.2827
        62        2.0000           -0.3989466             -10.8559
        63        2.0000           -0.3910641             -10.6414
        64        2.0000           -0.3830990             -10.4247
        65        2.0000           -0.3692585             -10.0480
        66        2.0000           -0.3067183              -8.3462
        67        1.9882           -0.2988768              -8.1329
        68        1.9126           -0.2969381              -8.0801 (HOMO)
        69        0.0992           -0.2912020              -7.9240 (LUMO)
        70                         -0.2423335              -6.5942
        71                         -0.2116640              -5.7597
        72                         -0.1772564              -4.8234
        73                         -0.1714783              -4.6662
        74                         -0.1353560              -3.6832
        75                         -0.1133282              -3.0838
        76                         -0.1034646              -2.8154
        77                         -0.1004988              -2.7347
        78                         -0.0980819              -2.6689
        79                         -0.0846065              -2.3023
       ...                                ...                  ...
       134                          0.7270973              19.7853
      -------------------------------------------------------------
                  HL-Gap            0.0057360 Eh            0.1561 eV

Wiberg/Mayer (AO) data.
largest (>0.10) Wiberg bond orders for each atom

     #   Z sym  total        # sym  WBO       # sym  WBO       # sym  WBO
 ---------------------------------------------------------------------------
     1   6 C    3.922 --    26 H    0.987    27 H    0.980    28 H    0.980
                             2 O    0.953
     2   8 O    2.083 --     1 C    0.953     3 C    0.933
     3   6 C    3.844 --     4 O    1.445     5 C    1.329     2 O    0.933
     4   8 O    1.740 --     3 C    1.445     5 C    0.106
     5   6 C    3.814 --     3 C    1.329     6 N    1.189    23 C    0.917
                             4 O    0.106
     6   7 N    3.050 --     7 C    1.617     5 C    1.189
     7   6 C    3.885 --     6 N    1.617    20 N    1.003     8 C    0.979
     8   6 C    3.923 --     9 C    0.995    10 C    0.985     7 C    0.979
                            11 N    0.898
     9   6 C    3.994 --     8 C    0.995    31 H    0.985    30 H    0.985
                            29 H    0.984
    10   6 C    3.990 --    33 H    0.986    34 H    0.985     8 C    0.985
                            32 H    0.983
    11   7 N    3.340 --    12 C    1.272    35 H    0.901     8 C    0.898
                            13 O    0.175
    12   6 C    3.890 --    13 O    1.537    11 N    1.272    14 C    1.006
    13   8 O    1.844 --    12 C    1.537    11 N    0.175
    14   6 C    3.825 --    15 N    1.587    19 O    1.034    12 C    1.006
    15   7 N    2.942 --    14 C    1.587    16 N    1.191
    16   7 N    2.980 --    17 C    1.619    15 N    1.191
    17   6 C    3.859 --    16 N    1.619    19 O    1.068    18 C    1.029
    18   6 C    3.989 --    17 C    1.029    38 H    0.984    36 H    0.966
                            37 H    0.965
    19   8 O    2.290 --    17 C    1.068    14 C    1.034
    20   7 N    3.343 --    21 C    1.171     7 C    1.003    39 H    0.914
                            22 O    0.116
    21   6 C    3.812 --    22 O    1.563    20 N    1.171    23 C    0.880
    22   8 O    1.831 --    21 C    1.563    20 N    0.116
    23   6 C    3.963 --    25 O    1.121    24 C    0.947     5 C    0.917
                            21 C    0.880
    24   6 C    3.988 --    41 H    0.990    40 H    0.987    42 H    0.985
                            23 C    0.947
    25   8 O    1.408 --    23 C    1.121
    26   1 H    1.020 --     1 C    0.987
    27   1 H    1.022 --     1 C    0.980
    28   1 H    1.022 --     1 C    0.980
    29   1 H    1.020 --     9 C    0.984
    30   1 H    1.014 --     9 C    0.985
    31   1 H    1.016 --     9 C    0.985
    32   1 H    1.014 --    10 C    0.983
    33   1 H    1.007 --    10 C    0.986
    34   1 H    1.008 --    10 C    0.985
    35   1 H    0.950 --    11 N    0.901
    36   1 H    0.998 --    18 C    0.966
    37   1 H    0.998 --    18 C    0.965
    38   1 H    1.000 --    18 C    0.984
    39   1 H    0.966 --    20 N    0.914
    40   1 H    1.034 --    24 C    0.987
    41   1 H    1.017 --    24 C    0.990
    42   1 H    1.026 --    24 C    0.985
 ---------------------------------------------------------------------------

           -------------------------------------------------
          | TOTAL ENERGY              -83.610641325818 Eh   |
          | GRADIENT NORM               0.000844880914 Eh/α |
          | HOMO-LUMO GAP               0.156085719133 eV   |
           -------------------------------------------------

 * finished run on 2023/06/21 at 17:28:39.697
