   * xtb version 6.5.1 (579679a) compiled by 'ehlert@majestix' on 2022-07-11
          program call               : /lustre/hpc/kemi/ree/PhD/git/ReactivityQM/dep/xtb-6.5.1/bin/xtb --gfn 1 /lustre/hpc/kemi/ree/PhD/git/ReactivityQM/calculations/R03/reac02prodN05/conf07/R03_reac02prodN05_conf07_gfn1.xyz --opt --vfukui --chrg 1 --uhf 0 --alpb DMSO

   ID    Z sym.   atoms
    1    6 C      1, 3, 5, 6, 8, 11-15, 17, 19, 22, 23, 26
    2    8 O      2, 4, 7, 9, 18, 24
    3    7 N      10, 16, 20, 21, 25
    4    1 H      27-46

      * Solvation model:               ALPB
        Solvent                        DMSO
        Solvent mass                       7.8130E+01 g/mol
          :  Hamiltonian                  GFN1-xTB          :
 * total energy  :   -86.3042141 Eh     change       -0.4052936E-10 Eh
 * total energy  :   -86.3245275 Eh     change       -0.2031338E-01 Eh
 * total energy  :   -86.3322389 Eh     change       -0.7711431E-02 Eh
 * total energy  :   -86.3339263 Eh     change       -0.1687349E-02 Eh
 * total energy  :   -86.3348034 Eh     change       -0.8771550E-03 Eh
 * total energy  :   -86.3350930 Eh     change       -0.2895281E-03 Eh
 * total energy  :   -86.3352370 Eh     change       -0.1440337E-03 Eh
 * total energy  :   -86.3352837 Eh     change       -0.4666116E-04 Eh
 * total energy  :   -86.3353124 Eh     change       -0.2871835E-04 Eh
 * total energy  :   -86.3353431 Eh     change       -0.3069405E-04 Eh
 * total energy  :   -86.3358741 Eh     change       -0.7733443E-05 Eh
 * total energy  :   -86.3358820 Eh     change       -0.7898081E-05 Eh
 * total energy  :   -86.3358929 Eh     change       -0.1090029E-04 Eh
 * total energy  :   -86.3359004 Eh     change       -0.7473990E-05 Eh
 * total energy  :   -86.3359099 Eh     change       -0.9497321E-05 Eh
 * total energy  :   -86.3359167 Eh     change       -0.6780001E-05 Eh
 * total energy  :   -86.3359244 Eh     change       -0.7740123E-05 Eh
 * total energy  :   -86.3359281 Eh     change       -0.3689792E-05 Eh
 * total energy  :   -86.3359309 Eh     change       -0.2839940E-05 Eh
   *** GEOMETRY OPTIMIZATION CONVERGED AFTER 42 ITERATIONS ***

 final structure:
================
46
 xtb: 6.5.1 (579679a)
C           -5.73564531674337        1.78887044980520        0.05772888876684
O           -4.44026907170217        1.16249330491656       -0.02555126336582
C           -4.41849685539875       -0.10826523111518       -0.36299193884549
O           -5.41418184439630       -0.76062450398276       -0.59847730617901
C           -3.06980365632035       -0.74842548773544       -0.35502661411052
C           -2.98840192801403       -2.11380989095973       -0.34537202524250
O           -4.01271189147952       -2.93361850977506       -0.44563595279690
C           -1.67900711373423       -2.75825564109027       -0.22675311283357
O           -1.46305113186050       -3.93605543429147       -0.37044030452826
N           -0.63110415620693       -1.87588413729163        0.13016748162902
C            0.62165768289428       -2.63045437775786        0.31633198439120
C           -0.74749441888947       -0.53577571429133        0.17978727177948
C            0.33431515216787        0.28077193124042        0.90550829558573
C            0.09507552425167        1.78718819583510        1.07299962628786
C            0.37305620492397       -0.30413815933711        2.33538652962934
N            1.59690730220491        0.10259975605785        0.18785432497285
C            2.78958750536923        0.56578923162771        0.67237222463237
O            2.97905803152446        0.97449290888701        1.79767620383468
C            3.83663683159097        0.45689866161469       -0.36504670911473
N            3.67381039400840        0.00213130688934       -1.57271957734210
N            4.88321442326385        0.08002198900774       -2.18665484387000
C            5.71085013413844        0.58104564791239       -1.31609903353878
C            7.14897303330399        0.87238038702595       -1.50122060311761
O            5.10689498431342        0.83801327231473       -0.14805376947867
N           -1.89924676206541        0.00656990188131       -0.23332078768528
C           -1.93196873467877        1.33416966012683       -0.87548295014867
H           -6.23320779728754        1.72772773675991       -0.91144006436836
H           -6.33670915135002        1.28333853213203        0.81544511935297
H           -5.55168171054541        2.82388354746629        0.33481495234770
H           -4.86055958286721       -2.43099369935488       -0.54180963595747
H            0.49675281975925       -3.31352638897431        1.15527156234005
H            0.77863289064369       -3.21029937891408       -0.59383483404488
H            1.46000481634292       -1.96665999105308        0.47510600823808
H            0.23880901672170        2.32969167119170        0.14345156727032
H           -0.89266073350821        1.98230896775117        1.48169178168381
H            0.83554929707561        2.15591203718457        1.78351074623079
H            1.09823833711427        0.25039354311705        2.92760426764048
H            0.64158985190134       -1.35476717728274        2.35789309964656
H           -0.61137424768947       -0.18294545027949        2.78461951192472
H            1.53248317848884       -0.00103095949277       -0.81406446071686
H            7.73092575869271        0.38943961369098       -0.71599123123582
H            7.31974200826999        1.94814943713540       -1.43569544892994
H            7.47226796661423        0.51292904986013       -2.47564015029089
H           -2.24323563667941        2.10423140398639       -0.17590916772105
H           -0.94991389061626        1.54636340019130       -1.28319625312317
H           -2.64430651354689        1.27772558736835       -1.69465340959789

          :  Hamiltonian                  GFN1-xTB          :
         :: total energy             -86.335930939913 Eh    ::
         :: gradient norm              0.000885330110 Eh/a0 ::
         :: HOMO-LUMO gap              2.448750745478 eV    ::
         :: SCC energy               -87.166255189474 Eh    ::
         :: -> Gsolv                  -0.111539353422 Eh    ::
         :: repulsion energy           0.860679713926 Eh    ::

    * Orbital Energies and Occupations

         #    Occupation            Energy/Eh            Energy/eV
      -------------------------------------------------------------
         1        2.0000           -0.8894599             -24.2034
       ...           ...                  ...                  ...
        58        2.0000           -0.5333774             -14.5139
        59        2.0000           -0.5269155             -14.3381
        60        2.0000           -0.5253889             -14.2966
        61        2.0000           -0.5204563             -14.1623
        62        2.0000           -0.5160502             -14.0424
        63        2.0000           -0.5153549             -14.0235
        64        2.0000           -0.4983576             -13.5610
        65        2.0000           -0.4935995             -13.4315
        66        2.0000           -0.4822818             -13.1236
        67        2.0000           -0.4785342             -13.0216
        68        2.0000           -0.4752355             -12.9318
        69        2.0000           -0.4631315             -12.6024
        70        2.0000           -0.4613742             -12.5546 (HOMO)
        71                         -0.3713843             -10.1059 (LUMO)
        72                         -0.3637649              -9.8985
        73                         -0.3272888              -8.9060
        74                         -0.2848102              -7.7501
        75                         -0.2653428              -7.2203
        76                         -0.2212323              -6.0200
        77                         -0.2140686              -5.8251
        78                         -0.1653113              -4.4984
        79                         -0.1605743              -4.3694
        80                         -0.1505202              -4.0959
        81                         -0.1460122              -3.9732
       ...                                ...                  ...
       144                          0.7186423              19.5553
      -------------------------------------------------------------
                  HL-Gap            0.0899899 Eh            2.4488 eV

Wiberg/Mayer (AO) data.
largest (>0.10) Wiberg bond orders for each atom

     #   Z sym  total        # sym  WBO       # sym  WBO       # sym  WBO
 ---------------------------------------------------------------------------
     1   6 C    3.838 --    29 H    0.984    27 H    0.977    28 H    0.977
                             2 O    0.865
     2   8 O    2.235 --     3 C    1.157     1 C    0.865     4 O    0.136
     3   6 C    3.865 --     4 O    1.622     2 O    1.157     5 C    1.005
     4   8 O    1.976 --     3 C    1.622     2 O    0.136
     5   6 C    3.921 --     6 C    1.503    25 N    1.071     3 C    1.005
                             7 O    0.108
     6   6 C    3.930 --     5 C    1.503     7 O    1.176     8 C    1.036
     7   8 O    2.133 --     6 C    1.176    30 H    0.747     5 C    0.108
     8   6 C    3.901 --     9 O    1.679    10 N    1.041     6 C    1.036
     9   8 O    1.979 --     8 C    1.679    10 N    0.115
    10   7 N    3.533 --    12 C    1.311     8 C    1.041    11 C    0.906
                             9 O    0.115
    11   6 C    3.888 --    31 H    0.971    33 H    0.971    32 H    0.965
                            10 N    0.906
    12   6 C    3.895 --    25 N    1.353    10 N    1.311    13 C    0.968
    13   6 C    3.928 --    14 C    0.992    12 C    0.968    15 C    0.964
                            16 N    0.937
    14   6 C    3.983 --    13 C    0.992    35 H    0.981    34 H    0.978
                            36 H    0.971
    15   6 C    3.978 --    39 H    0.983    38 H    0.978    37 H    0.967
                            13 C    0.964
    16   7 N    3.303 --    17 C    1.185    13 C    0.937    40 H    0.892
                            18 O    0.161
    17   6 C    3.908 --    18 O    1.630    16 N    1.185    19 C    1.001
    18   8 O    1.944 --    17 C    1.630    16 N    0.161
    19   6 C    3.880 --    20 N    1.598    24 O    1.066    17 C    1.001
    20   7 N    3.023 --    19 C    1.598    21 N    1.212
    21   7 N    2.982 --    22 C    1.591    20 N    1.212
    22   6 C    3.867 --    21 N    1.591    24 O    1.087    23 C    1.033
    23   6 C    3.984 --    22 C    1.033    43 H    0.982    41 H    0.964
                            42 H    0.959
    24   8 O    2.337 --    22 C    1.087    19 C    1.066
    25   7 N    3.540 --    12 C    1.353     5 C    1.071    26 C    0.896
    26   6 C    3.890 --    45 H    0.979    46 H    0.973    44 H    0.970
                            25 N    0.896
    27   1 H    1.001 --     1 C    0.977
    28   1 H    1.001 --     1 C    0.977
    29   1 H    1.005 --     1 C    0.984
    30   1 H    0.829 --     7 O    0.747
    31   1 H    0.998 --    11 C    0.971
    32   1 H    0.998 --    11 C    0.965
    33   1 H    1.005 --    11 C    0.971
    34   1 H    0.999 --    14 C    0.978
    35   1 H    0.996 --    14 C    0.981
    36   1 H    1.002 --    14 C    0.971
    37   1 H    1.006 --    15 C    0.967
    38   1 H    0.997 --    15 C    0.978
    39   1 H    0.998 --    15 C    0.983
    40   1 H    0.948 --    16 N    0.892
    41   1 H    0.995 --    23 C    0.964
    42   1 H    0.995 --    23 C    0.959
    43   1 H    0.998 --    23 C    0.982
    44   1 H    1.006 --    26 C    0.970
    45   1 H    0.997 --    26 C    0.979
    46   1 H    0.997 --    26 C    0.973
 ---------------------------------------------------------------------------

           -------------------------------------------------
          | TOTAL ENERGY              -86.335930939913 Eh   |
          | GRADIENT NORM               0.000885330110 Eh/α |
          | HOMO-LUMO GAP               2.448750745478 eV   |
           -------------------------------------------------

 * finished run on 2023/06/20 at 15:40:13.449
