                         Program Version 5.0.1 -  RELEASE  -
|  1> # ORCA input file
|  2> ! SP r2SCAN-3c CPCM
|  3>
|  4> %maxcore 1875.0
|  5> %pal nprocs 4 end
|  6> %cpcm smd true SMDsolvent "DMSO" end
|  7>
|  8> *xyz -2 1
|  9> C      -5.612896   -0.759231   -2.560445
| 10> O      -4.331334   -0.489251   -2.035505
| 11> C      -4.244856   -0.549427   -0.635331
| 12> O      -5.295734   -0.839462    0.026533
| 13> C      -2.990046   -0.282984   -0.089421
| 14> C      -2.788724   -0.326026    1.342916
| 15> O      -3.864488   -0.635893    2.141087
| 16> C      -1.539565   -0.060218    1.829113
| 17> O      -1.150130   -0.052275    3.164918
| 18> C      -2.119261   -0.153671    4.185102
| 19> N      -0.487377    0.228357    1.000782
| 20> C      -0.749069    0.241110   -0.313602
| 21> C       0.436149    0.610175   -1.210511
| 22> C       0.242142    0.030765   -2.616911
| 23> C       0.515101    2.149038   -1.268804
| 24> N       1.638286    0.054051   -0.594676
| 25> C       2.915201    0.354090   -1.048796
| 26> O       3.146810    0.810293   -2.193497
| 27> C       3.920561    0.015850   -0.088480
| 28> N       3.718595   -0.468139    1.144075
| 29> N       4.956509   -0.634596    1.703212
| 30> C       5.830659   -0.260294    0.827886
| 31> C       7.307413   -0.265811    0.981741
| 32> O       5.275733    0.167319   -0.333128
| 33> N      -1.896653    0.022060   -0.903233
| 34> H      -5.542381   -0.686153   -3.647482
| 35> H      -6.355660   -0.036153   -2.199455
| 36> H      -5.954509   -1.766613   -2.289607
| 37> H      -4.635512   -0.772891    1.498836
| 38> H      -2.892398    0.619569    4.098448
| 39> H      -2.602393   -1.138493    4.198977
| 40> H      -1.590943   -0.013085    5.132343
| 41> H       1.033213    0.364142   -3.287150
| 42> H      -0.719883    0.356293   -3.013478
| 43> H       0.249493   -1.059008   -2.574686
| 44> H       0.664596    2.549293   -0.265535
| 45> H       1.337125    2.472245   -1.906615
| 46> H      -0.417404    2.545257   -1.670156
| 47> H       1.550850   -0.068312    0.414070
| 48> H       7.567664   -0.652562    1.964158
| 49> H       7.767795   -0.890951    0.216175
| 50> H       7.707317    0.742983    0.876131
| 51> **                         ****END OF INPUT****

CARTESIAN COORDINATES (ANGSTROEM)
---------------------------------
  C     -5.612896   -0.759231   -2.560445
  O     -4.331334   -0.489251   -2.035505
  C     -4.244856   -0.549427   -0.635331
  O     -5.295734   -0.839462    0.026533
  C     -2.990046   -0.282984   -0.089421
  C     -2.788724   -0.326026    1.342916
  O     -3.864488   -0.635893    2.141087
  C     -1.539565   -0.060218    1.829113
  O     -1.150130   -0.052275    3.164918
  C     -2.119261   -0.153671    4.185102
  N     -0.487377    0.228357    1.000782
  C     -0.749069    0.241110   -0.313602
  C      0.436149    0.610175   -1.210511
  C      0.242142    0.030765   -2.616911
  C      0.515101    2.149038   -1.268804
  N      1.638286    0.054051   -0.594676
  C      2.915201    0.354090   -1.048796
  O      3.146810    0.810293   -2.193497
  C      3.920561    0.015850   -0.088480
  N      3.718595   -0.468139    1.144075
  N      4.956509   -0.634596    1.703212
  C      5.830659   -0.260294    0.827886
  C      7.307413   -0.265811    0.981741
  O      5.275733    0.167319   -0.333128
  N     -1.896653    0.022060   -0.903233
  H     -5.542381   -0.686153   -3.647482
  H     -6.355660   -0.036153   -2.199455
  H     -5.954509   -1.766613   -2.289607
  H     -4.635512   -0.772891    1.498836
  H     -2.892398    0.619569    4.098448
  H     -2.602393   -1.138493    4.198977
  H     -1.590943   -0.013085    5.132343
  H      1.033213    0.364142   -3.287150
  H     -0.719883    0.356293   -3.013478
  H      0.249493   -1.059008   -2.574686
  H      0.664596    2.549293   -0.265535
  H      1.337125    2.472245   -1.906615
  H     -0.417404    2.545257   -1.670156
  H      1.550850   -0.068312    0.414070
  H      7.567664   -0.652562    1.964158
  H      7.767795   -0.890951    0.216175
  H      7.707317    0.742983    0.876131

 Total Charge           Charge          ....   -2
 Multiplicity           Mult            ....    1
 Number of Electrons    NEL             ....  186
 Basis Dimension        Dim             ....  615

ORBITAL ENERGIES
----------------

  NO   OCC          E(Eh)            E(eV)
   0   2.0000     -19.017363      -517.4887
   1   2.0000     -18.955649      -515.8094
   2   2.0000     -18.945187      -515.5248
   3   2.0000     -18.926993      -515.0297
   4   2.0000     -18.884293      -513.8677
   5   2.0000     -18.882520      -513.8195
   6   2.0000     -14.168833      -385.5535
   7   2.0000     -14.159602      -385.3024
   8   2.0000     -14.146842      -384.9551
   9   2.0000     -14.104353      -383.7990
  10   2.0000     -14.101866      -383.7313
  11   2.0000     -10.109179      -275.0848
  12   2.0000     -10.098838      -274.8034
  13   2.0000     -10.091978      -274.6167
  14   2.0000     -10.085922      -274.4519
  15   2.0000     -10.074974      -274.1540
  16   2.0000     -10.058143      -273.6960
  17   2.0000     -10.054438      -273.5952
  18   2.0000     -10.054209      -273.5889
  19   2.0000     -10.053914      -273.5809
  20   2.0000     -10.051420      -273.5130
  21   2.0000     -10.031296      -272.9654
  22   2.0000     -10.014670      -272.5130
  23   2.0000     -10.000458      -272.1263
  24   2.0000      -9.993553      -271.9384
  25   2.0000      -1.095508       -29.8103
  26   2.0000      -1.004748       -27.3406
  27   2.0000      -0.999978       -27.2108
  28   2.0000      -0.967934       -26.3388
  29   2.0000      -0.958511       -26.0824
  30   2.0000      -0.931023       -25.3344
  31   2.0000      -0.911219       -24.7955
  32   2.0000      -0.896476       -24.3944
  33   2.0000      -0.854421       -23.2500
  34   2.0000      -0.795092       -21.6355
  35   2.0000      -0.790075       -21.4990
  36   2.0000      -0.735486       -20.0136
  37   2.0000      -0.696348       -18.9486
  38   2.0000      -0.683000       -18.5854
  39   2.0000      -0.661161       -17.9911
  40   2.0000      -0.643897       -17.5213
  41   2.0000      -0.634811       -17.2741
  42   2.0000      -0.625806       -17.0291
  43   2.0000      -0.599656       -16.3175
  44   2.0000      -0.585340       -15.9279
  45   2.0000      -0.557866       -15.1803
  46   2.0000      -0.529439       -14.4068
  47   2.0000      -0.514318       -13.9953
  48   2.0000      -0.496413       -13.5081
  49   2.0000      -0.485372       -13.2077
  50   2.0000      -0.467225       -12.7138
  51   2.0000      -0.454452       -12.3663
  52   2.0000      -0.449309       -12.2263
  53   2.0000      -0.442228       -12.0336
  54   2.0000      -0.425285       -11.5726
  55   2.0000      -0.417592       -11.3633
  56   2.0000      -0.412452       -11.2234
  57   2.0000      -0.405776       -11.0417
  58   2.0000      -0.403101       -10.9689
  59   2.0000      -0.395964       -10.7747
  60   2.0000      -0.387402       -10.5418
  61   2.0000      -0.383874       -10.4457
  62   2.0000      -0.376461       -10.2440
  63   2.0000      -0.373573       -10.1654
  64   2.0000      -0.368285       -10.0216
  65   2.0000      -0.366278        -9.9669
  66   2.0000      -0.360143        -9.8000
  67   2.0000      -0.354564        -9.6482
  68   2.0000      -0.350848        -9.5471
  69   2.0000      -0.342523        -9.3205
  70   2.0000      -0.324964        -8.8427
  71   2.0000      -0.322565        -8.7774
  72   2.0000      -0.319001        -8.6805
  73   2.0000      -0.314357        -8.5541
  74   2.0000      -0.305945        -8.3252
  75   2.0000      -0.301408        -8.2017
  76   2.0000      -0.298076        -8.1111
  77   2.0000      -0.292622        -7.9626
  78   2.0000      -0.285646        -7.7728
  79   2.0000      -0.282597        -7.6898
  80   2.0000      -0.275071        -7.4851
  81   2.0000      -0.268332        -7.3017
  82   2.0000      -0.240162        -6.5351
  83   2.0000      -0.237307        -6.4575
  84   2.0000      -0.227071        -6.1789
  85   2.0000      -0.225864        -6.1461
  86   2.0000      -0.213862        -5.8195
  87   2.0000      -0.210349        -5.7239
  88   2.0000      -0.204416        -5.5624
  89   2.0000      -0.194621        -5.2959
  90   2.0000      -0.177659        -4.8343
  91   2.0000      -0.168850        -4.5946
  92   2.0000      -0.064832        -1.7642
  93   0.0000      -0.062601        -1.7035
  94   0.0000       0.008043         0.2189
  95   0.0000       0.014482         0.3941
  96   0.0000       0.059665         1.6236
  97   0.0000       0.062555         1.7022

MULLIKEN ATOMIC CHARGES
-----------------------
   0 C :   -0.350175
   1 O :   -0.217301
   2 C :    0.089380
   3 O :   -0.555348
   4 C :   -0.173167
   5 C :   -0.002334
   6 O :   -0.423292
   7 C :   -0.183372
   8 O :   -0.158652
   9 C :   -0.343386
  10 N :   -0.306761
  11 C :    0.336501
  12 C :    0.093635
  13 C :   -0.663233
  14 C :   -0.694323
  15 N :   -0.152869
  16 C :   -0.228500
  17 O :   -0.487077
  18 C :    0.271749
  19 N :   -0.230147
  20 N :   -0.310414
  21 C :    0.353463
  22 C :   -0.652140
  23 O :   -0.066415
  24 N :   -0.207293
  25 H :    0.153127
  26 H :    0.152176
  27 H :    0.152694
  28 H :    0.378675
  29 H :    0.156696
  30 H :    0.159106
  31 H :    0.151123
  32 H :    0.184337
  33 H :    0.174004
  34 H :    0.168216
  35 H :    0.180956
  36 H :    0.187894
  37 H :    0.175556
  38 H :    0.322114
  39 H :    0.194011
  40 H :    0.185097
  41 H :    0.185690
Sum of atomic charges:   -2.0000000

LOEWDIN ATOMIC CHARGES
----------------------
   0 C :   -0.069168
   1 O :   -0.654358
   2 C :    0.329631
   3 O :   -0.640593
   4 C :    0.101468
   5 C :    0.203015
   6 O :   -0.572017
   7 C :    0.306620
   8 O :   -0.647318
   9 C :   -0.054143
  10 N :   -0.649546
  11 C :    0.290760
  12 C :    0.098674
  13 C :   -0.371241
  14 C :   -0.367015
  15 N :   -0.650376
  16 C :    0.328612
  17 O :   -0.561743
  18 C :    0.367140
  19 N :   -0.441366
  20 N :   -0.425954
  21 C :    0.335096
  22 C :   -0.331522
  23 O :   -0.417239
  24 N :   -0.668021
  25 H :    0.171018
  26 H :    0.164381
  27 H :    0.164726
  28 H :    0.307263
  29 H :    0.170278
  30 H :    0.170071
  31 H :    0.170181
  32 H :    0.168724
  33 H :    0.168521
  34 H :    0.163612
  35 H :    0.164731
  36 H :    0.170977
  37 H :    0.162387
  38 H :    0.299437
  39 H :    0.183725
  40 H :    0.180274
  41 H :    0.180296

  Mayer bond orders larger than 0.100000
B(  0-C ,  1-O ) :   0.8619 B(  0-C , 25-H ) :   0.9700 B(  0-C , 26-H ) :   0.9693
B(  0-C , 27-H ) :   0.9695 B(  1-O ,  2-C ) :   1.0248 B(  2-C ,  3-O ) :   1.4638
B(  2-C ,  4-C ) :   1.4318 B(  3-O , 28-H ) :   0.1615 B(  4-C ,  5-C ) :   0.9533
B(  4-C , 24-N ) :   0.9835 B(  5-C ,  6-O ) :   1.0242 B(  5-C ,  7-C ) :   1.3609
B(  6-O , 28-H ) :   0.6867 B(  7-C ,  8-O ) :   1.2695 B(  7-C , 10-N ) :   1.4066
B(  8-O ,  9-C ) :   0.8698 B(  9-C , 29-H ) :   0.9617 B(  9-C , 30-H ) :   0.9629
B(  9-C , 31-H ) :   0.9672 B( 10-N , 11-C ) :   1.2210 B( 11-C , 12-C ) :   0.8217
B( 11-C , 24-N ) :   1.5849 B( 12-C , 13-C ) :   0.8893 B( 12-C , 14-C ) :   0.8372
B( 12-C , 15-N ) :   0.9043 B( 13-C , 32-H ) :   0.9739 B( 13-C , 33-H ) :   0.9702
B( 13-C , 34-H ) :   0.9875 B( 14-C , 35-H ) :   0.9875 B( 14-C , 36-H ) :   0.9679
B( 14-C , 37-H ) :   0.9743 B( 15-N , 16-C ) :   1.0573 B( 15-N , 38-H ) :   0.8359
B( 16-C , 17-O ) :   1.8752 B( 16-C , 18-C ) :   0.9126 B( 17-O , 18-C ) :  -0.1261
B( 18-C , 19-N ) :   1.5230 B( 18-C , 23-O ) :   1.0499 B( 19-N , 20-N ) :   1.2522
B( 20-N , 21-C ) :   1.6736 B( 21-C , 22-C ) :   0.8148 B( 21-C , 23-O ) :   1.0355
B( 22-C , 39-H ) :   0.9987 B( 22-C , 40-H ) :   0.9499 B( 22-C , 41-H ) :   0.9507

Dispersion correction           -0.018404108
FINAL SINGLE POINT ENERGY     -1268.801950979458

DIPOLE MOMENT
-------------
                                X             Y             Z
Electronic contribution:      5.90847      -2.63423       4.10271
Nuclear contribution   :     -3.72122       3.13228      -3.86916
                        -----------------------------------------
Total Dipole Moment    :      2.18725       0.49805       0.23355
                        -----------------------------------------
Magnitude (a.u.)       :      2.25536
Magnitude (Debye)      :      5.73268

Rotational constants in cm-1:     0.013711     0.003414     0.002846
Rotational constants in MHz :   411.037189   102.353569    85.316312

                             ****ORCA TERMINATED NORMALLY****
TOTAL RUN TIME: 0 days 0 hours 3 minutes 8 seconds 97 msec
