   * xtb version 6.5.1 (579679a) compiled by 'ehlert@majestix' on 2022-07-11
          program call               : /lustre/hpc/kemi/ree/PhD/git/ReactivityQM/dep/xtb-6.5.1/bin/xtb --gfn 1 /lustre/hpc/kemi/ree/PhD/git/ReactivityQM/calculations/R02deprot/reac01prodE13/conf13/R02deprot_reac01prodE13_conf13_gfn1.xyz --opt --vfukui --chrg -2 --uhf 0 --alpb DMSO

   ID    Z sym.   atoms
    1    6 C      1, 3, 5, 6, 8, 10, 12-15, 17, 19, 22, 23
    2    8 O      2, 4, 7, 9, 18, 24
    3    7 N      11, 16, 20, 21, 25
    4    1 H      26-42

      * Solvation model:               ALPB
        Solvent                        DMSO
        Solvent mass                       7.8130E+01 g/mol
          :  Hamiltonian                  GFN1-xTB          :
 * total energy  :   -83.5726684 Eh     change       -0.4594369E-10 Eh
 * total energy  :   -83.5863130 Eh     change       -0.1364453E-01 Eh
 * total energy  :   -83.5909166 Eh     change       -0.4603601E-02 Eh
 * total energy  :   -83.5916844 Eh     change       -0.7677869E-03 Eh
 * total energy  :   -83.5922232 Eh     change       -0.5388055E-03 Eh
 * total energy  :   -83.5923749 Eh     change       -0.1517674E-03 Eh
 * total energy  :   -83.5924750 Eh     change       -0.1001052E-03 Eh
 * total energy  :   -83.5925498 Eh     change       -0.7477477E-04 Eh
 * total energy  :   -83.5926209 Eh     change       -0.7104479E-04 Eh
 * total energy  :   -83.5926920 Eh     change       -0.7118407E-04 Eh
 * total energy  :   -83.5957447 Eh     change       -0.1575723E-04 Eh
 * total energy  :   -83.5957564 Eh     change       -0.1169626E-04 Eh
 * total energy  :   -83.5957671 Eh     change       -0.1067547E-04 Eh
 * total energy  :   -83.5957766 Eh     change       -0.9509698E-05 Eh
 * total energy  :   -83.5957846 Eh     change       -0.7996162E-05 Eh
 * total energy  :   -83.5957920 Eh     change       -0.7399600E-05 Eh
 * total energy  :   -83.5958000 Eh     change       -0.7957880E-05 Eh
 * total energy  :   -83.5958090 Eh     change       -0.8989589E-05 Eh
 * total energy  :   -83.5958126 Eh     change       -0.3694227E-05 Eh
   *** GEOMETRY OPTIMIZATION CONVERGED AFTER 68 ITERATIONS ***

 final structure:
================
42
 xtb: 6.5.1 (579679a)
C           -5.61289580979199       -0.75923094477890       -2.56044468529652
O           -4.33133352423100       -0.48925084214492       -2.03550547231877
C           -4.24485580139211       -0.54942739810518       -0.63533051686750
O           -5.29573397685838       -0.83946227927112        0.02653284769825
C           -2.99004586398485       -0.28298379671435       -0.08942050946867
C           -2.78872384398744       -0.32602551566644        1.34291617890105
O           -3.86448781375331       -0.63589324418769        2.14108735928080
C           -1.53956495586633       -0.06021843048617        1.82911316019173
O           -1.15013015010887       -0.05227485912731        3.16491780207848
C           -2.11926143228303       -0.15367097537527        4.18510178244750
N           -0.48737732620172        0.22835689238801        1.00078207698082
C           -0.74906935562558        0.24111007199461       -0.31360239100753
C            0.43614925652454        0.61017496935142       -1.21051062674013
C            0.24214175364901        0.03076486631386       -2.61691063929265
C            0.51510144570324        2.14903766794671       -1.26880449031197
N            1.63828596060592        0.05405103981774       -0.59467629968319
C            2.91520070179350        0.35408998986637       -1.04879616755598
O            3.14681024447245        0.81029319162853       -2.19349715413908
C            3.92056069751992        0.01585025791691       -0.08847982183104
N            3.71859507703446       -0.46813854967825        1.14407521265623
N            4.95650936409962       -0.63459627646629        1.70321216973840
C            5.83065902642698       -0.26029446952653        0.82788598056481
C            7.30741268312981       -0.26581127143417        0.98174109891921
O            5.27573323769567        0.16731893240132       -0.33312805524425
N           -1.89665299682122        0.02206002355614       -0.90323282469832
H           -5.54238076521756       -0.68615274568355       -3.64748214323807
H           -6.35566046688207       -0.03615256199392       -2.19945536615323
H           -5.95450880122690       -1.76661322861580       -2.28960703458622
H           -4.63551190794733       -0.77289085092599        1.49883566762596
H           -2.89239773679600        0.61956931153513        4.09844833545832
H           -2.60239346716013       -1.13849288914515        4.19897716414107
H           -1.59094329583220       -0.01308516442432        5.13234271099289
H            1.03321331520364        0.36414214744518       -3.28715022552095
H           -0.71988328413055        0.35629278496543       -3.01347759924349
H            0.24949322518539       -1.05900773508469       -2.57468585905234
H            0.66459632970704        2.54929318621228       -0.26553488501548
H            1.33712537674586        2.47224470141536       -1.90661502639115
H           -0.41740439086256        2.54525677374971       -1.67015627086630
H            1.55085037515716       -0.06831209013463        0.41407042945577
H            7.56766424472289       -0.65256178031571        1.96415831581511
H            7.76779461481687       -0.89095096196813        0.21617460231980
H            7.70731703679413        0.74298305274296        0.87613116927354

          :  Hamiltonian                  GFN1-xTB          :
         :: total energy             -83.595812648366 Eh    ::
         :: gradient norm              0.000340582365 Eh/a0 ::
         :: HOMO-LUMO gap              0.033143253425 eV    ::
         :: SCC energy               -84.312045118007 Eh    ::
         :: -> Gsolv                  -0.260280428824 Eh    ::
         :: repulsion energy           0.740865081981 Eh    ::

    * Orbital Energies and Occupations

         #    Occupation            Energy/Eh            Energy/eV
      -------------------------------------------------------------
         1        2.0000           -0.7966240             -21.6772
       ...           ...                  ...                  ...
        56        2.0000           -0.4362673             -11.8714
        57        2.0000           -0.4307263             -11.7207
        58        2.0000           -0.4258904             -11.5891
        59        2.0000           -0.4026586             -10.9569
        60        2.0000           -0.3991924             -10.8626
        61        2.0000           -0.3949382             -10.7468
        62        2.0000           -0.3913598             -10.6494
        63        2.0000           -0.3866231             -10.5205
        64        2.0000           -0.3822945             -10.4028
        65        2.0000           -0.3766045             -10.2479
        66        2.0000           -0.3588381              -9.7645
        67        2.0000           -0.3469402              -9.4407
        68        1.3100           -0.2614571              -7.1146 (HOMO)
        69        0.6900           -0.2602391              -7.0815 (LUMO)
        70                         -0.2069892              -5.6325
        71                         -0.1940587              -5.2806
        72                         -0.1582134              -4.3052
        73                         -0.1338716              -3.6428
        74                         -0.1241265              -3.3777
        75                         -0.1076149              -2.9284
        76                         -0.1057496              -2.8776
        77                         -0.0912447              -2.4829
        78                         -0.0852282              -2.3192
        79                         -0.0722924              -1.9672
       ...                                ...                  ...
       134                          0.6807825              18.5250
      -------------------------------------------------------------
                  HL-Gap            0.0012180 Eh            0.0331 eV

Wiberg/Mayer (AO) data.
largest (>0.10) Wiberg bond orders for each atom

     #   Z sym  total        # sym  WBO       # sym  WBO       # sym  WBO
 ---------------------------------------------------------------------------
     1   6 C    3.919 --    26 H    0.987    27 H    0.980    28 H    0.980
                             2 O    0.952
     2   8 O    2.044 --     1 C    0.952     3 C    0.939
     3   6 C    3.709 --     4 O    1.333     5 C    1.331     2 O    0.939
     4   8 O    1.708 --     3 C    1.333    29 H    0.128
     5   6 C    3.800 --     3 C    1.331     6 C    1.142    25 N    1.116
     6   6 C    3.826 --     8 C    1.486     5 C    1.142     7 O    1.024
     7   8 O    1.960 --     6 C    1.024    29 H    0.745
     8   6 C    3.800 --     6 C    1.486    11 N    1.182     9 O    0.957
     9   8 O    2.060 --     8 C    0.957    10 C    0.946
    10   6 C    3.916 --    32 H    0.985    30 H    0.981    31 H    0.980
                             9 O    0.946
    11   7 N    2.800 --    12 C    1.329     8 C    1.182
    12   6 C    3.956 --    25 N    1.505    11 N    1.329    13 C    0.966
    13   6 C    3.945 --    14 C    0.996    15 C    0.977    12 C    0.966
                            16 N    0.943
    14   6 C    3.995 --    13 C    0.996    35 H    0.987    34 H    0.985
                            33 H    0.984
    15   6 C    3.992 --    38 H    0.988    36 H    0.987    37 H    0.983
                            13 C    0.977
    16   7 N    3.167 --    17 C    1.117    13 C    0.943    39 H    0.902
                            18 O    0.116
    17   6 C    3.766 --    18 O    1.430    19 C    1.150    16 N    1.117
    18   8 O    1.678 --    17 C    1.430    16 N    0.116
    19   6 C    3.673 --    20 N    1.387    17 C    1.150    24 O    0.970
    20   7 N    2.734 --    19 C    1.387    21 N    1.185
    21   7 N    2.980 --    22 C    1.628    20 N    1.185
    22   6 C    3.817 --    21 N    1.628    24 O    1.047    23 C    1.023
    23   6 C    3.994 --    22 C    1.023    40 H    0.986    41 H    0.972
                            42 H    0.972
    24   8 O    2.173 --    22 C    1.047    19 C    0.970
    25   7 N    2.875 --    12 C    1.505     5 C    1.116
    26   1 H    1.020 --     1 C    0.987
    27   1 H    1.019 --     1 C    0.980
    28   1 H    1.020 --     1 C    0.980
    29   1 H    0.887 --     7 O    0.745     4 O    0.128
    30   1 H    1.019 --    10 C    0.981
    31   1 H    1.023 --    10 C    0.980
    32   1 H    1.020 --    10 C    0.985
    33   1 H    1.024 --    14 C    0.984
    34   1 H    1.028 --    14 C    0.985
    35   1 H    1.014 --    14 C    0.987
    36   1 H    1.012 --    15 C    0.987
    37   1 H    1.017 --    15 C    0.983
    38   1 H    1.010 --    15 C    0.988
    39   1 H    1.002 --    16 N    0.902
    40   1 H    1.005 --    23 C    0.986
    41   1 H    1.001 --    23 C    0.972
    42   1 H    1.001 --    23 C    0.972
 ---------------------------------------------------------------------------

           -------------------------------------------------
          | TOTAL ENERGY              -83.595812648366 Eh   |
          | GRADIENT NORM               0.000340582365 Eh/α |
          | HOMO-LUMO GAP               0.033143253425 eV   |
           -------------------------------------------------

 * finished run on 2023/06/20 at 18:01:05.895
