   * xtb version 6.5.1 (579679a) compiled by 'ehlert@majestix' on 2022-07-11
          program call               : /lustre/hpc/kemi/ree/PhD/git/ReactivityQM/dep/xtb-6.5.1/bin/xtb --gfn 1 /lustre/hpc/kemi/ree/PhD/git/ReactivityQM/calculations/R02oxygendeprot/reac01prodN11/conf12/R02oxygendeprot_reac01prodN11_conf12_gfn1.xyz --opt --vfukui --chrg 0 --uhf 0 --alpb DMSO

   ID    Z sym.   atoms
    1    6 C      1, 3, 5, 7-10, 12, 13, 15, 18, 19, 22, 24
    2    8 O      2, 4, 14, 20, 23, 25
    3    7 N      6, 11, 16, 17, 21
    4    1 H      26-42

      * Solvation model:               ALPB
        Solvent                        DMSO
        Solvent mass                       7.8130E+01 g/mol
          :  Hamiltonian                  GFN1-xTB          :
 * total energy  :   -82.8566188 Eh     change       -0.1002007E-09 Eh
 * total energy  :   -82.8684093 Eh     change       -0.1179050E-01 Eh
 * total energy  :   -82.8737686 Eh     change       -0.5359270E-02 Eh
 * total energy  :   -82.8747402 Eh     change       -0.9716396E-03 Eh
 * total energy  :   -82.8752625 Eh     change       -0.5222996E-03 Eh
 * total energy  :   -82.8755083 Eh     change       -0.2457310E-03 Eh
 * total energy  :   -82.8756525 Eh     change       -0.1442097E-03 Eh
 * total energy  :   -82.8757366 Eh     change       -0.8415040E-04 Eh
 * total energy  :   -82.8757919 Eh     change       -0.5527235E-04 Eh
 * total energy  :   -82.8758455 Eh     change       -0.5356518E-04 Eh
 * total energy  :   -82.8762604 Eh     change       -0.4319016E-05 Eh
 * total energy  :   -82.8762738 Eh     change       -0.1337514E-04 Eh
 * total energy  :   -82.8762783 Eh     change       -0.4499843E-05 Eh
 * total energy  :   -82.8762894 Eh     change       -0.1107648E-04 Eh
 * total energy  :   -82.8762968 Eh     change       -0.7442590E-05 Eh
 * total energy  :   -82.8763089 Eh     change       -0.1211681E-04 Eh
 * total energy  :   -82.8763155 Eh     change       -0.6517992E-05 Eh
 * total energy  :   -82.8763221 Eh     change       -0.6633607E-05 Eh
 * total energy  :   -82.8763261 Eh     change       -0.4015747E-05 Eh
   *** GEOMETRY OPTIMIZATION CONVERGED AFTER 32 ITERATIONS ***

 final structure:
================
42
 xtb: 6.5.1 (579679a)
C            6.15954362524825        2.21067299237884        0.47648182757436
O            4.91650950976452        1.89282080393153       -0.16022753495081
C            4.24588084528480        0.86483320497180        0.33017026185909
O            4.61332580752171        0.19839759193360        1.26815516723083
C            2.95632456024144        0.58878078301939       -0.39517666016129
N            2.17130949168574       -0.27811456820065        0.22072187474322
C            0.99177845253515       -0.61432256280962       -0.28000164494721
C            0.17797840314702       -1.68467962870291        0.37073736233585
C            0.54768909562935       -1.85471745831716        1.85328684529362
C            0.52322800019243       -3.00068542915253       -0.37099463818946
N           -1.21895682230677       -1.43569934853563        0.12950425510895
C           -1.98115279101007       -0.40621483021590        1.01295467723471
C           -1.31308592868371        0.97304373937870        0.90005477041918
O           -2.03196081500138       -0.92949687814338        2.20073799716675
C           -3.35093966309915       -0.35122111356098        0.32246193202154
N           -4.11319863217705       -1.34790101596474        0.01890952742241
N           -5.24394326246124       -0.81300836470898       -0.54541464185059
C           -5.09188323530826        0.47110376818664       -0.54073618017214
C           -6.03077598529197        1.50421730572842       -1.03381171662188
O           -3.90848717352151        0.83040082957565       -0.00437022390154
N            0.50917256863276       -0.04656278029801       -1.39902964031943
C            1.19985977984688        0.87231476062462       -2.18022269245000
O            0.71832322008945        1.30242952268811       -3.19927030655892
C            2.58531793710797        1.23024224967690       -1.65636128933301
O            3.29050405380326        1.99468695918361       -2.28574923666383
H            5.98650945716257        2.45942339775012        1.52560346121491
H            6.57036153379914        3.06578289572707       -0.05564650213378
H            6.83772764073977        1.35712848094933        0.41362242927236
H            0.40459597123031       -0.91720446778089        2.38564012677517
H            1.59030179465819       -2.15790949681730        1.93281810216676
H           -0.09583719499723       -2.61459583450003        2.28980792523350
H           -0.03049761358105       -3.81861310488883        0.08439610519694
H            0.24788109172666       -2.91630150314069       -1.41994265805055
H            1.58978850767028       -3.20026896600101       -0.29237590543581
H           -1.74478280012109       -2.30504647451498        0.20278971836709
H           -0.28614797106849        0.92152055161160        1.25513642218350
H           -1.86906067843776        1.66559660279036        1.52928505474613
H           -1.32961927886704        1.32442324342244       -0.12809987716188
H           -6.35328789032824        2.13909179286332       -0.20827069468152
H           -6.89744643796495        1.02624656407352       -1.48409882500692
H           -5.53610718247136        2.13576504337831       -1.77108341161295
H           -0.40674299101857       -0.33635925758967       -1.72315356336348

          :  Hamiltonian                  GFN1-xTB          :
         :: total energy             -82.876326116220 Eh    ::
         :: gradient norm              0.000634698969 Eh/a0 ::
         :: HOMO-LUMO gap              0.120889850657 eV    ::
         :: SCC energy               -83.637097883954 Eh    ::
         :: -> Gsolv                  -0.057350605559 Eh    ::
         :: repulsion energy           0.787886321073 Eh    ::

    * Orbital Energies and Occupations

         #    Occupation            Energy/Eh            Energy/eV
      -------------------------------------------------------------
         1        2.0000           -0.8655509             -23.5528
       ...           ...                  ...                  ...
        55        2.0000           -0.5148265             -14.0091
        56        2.0000           -0.5068473             -13.7920
        57        2.0000           -0.5047080             -13.7338
        58        2.0000           -0.4971012             -13.5268
        59        2.0000           -0.4961446             -13.5008
        60        2.0000           -0.4905649             -13.3490
        61        2.0000           -0.4733900             -12.8816
        62        2.0000           -0.4647221             -12.6457
        63        2.0000           -0.4526677             -12.3177
        64        2.0000           -0.4512939             -12.2803
        65        2.0000           -0.4465750             -12.1519
        66        1.9846           -0.4345519             -11.8248
        67        1.8315           -0.4322029             -11.7608 (HOMO)
        68        0.1839           -0.4277603             -11.6399 (LUMO)
        69                         -0.3349873              -9.1155
        70                         -0.3127451              -8.5102
        71                         -0.2640825              -7.1861
        72                         -0.2584516              -7.0328
        73                         -0.2470813              -6.7234
        74                         -0.1885918              -5.1318
        75                         -0.1420758              -3.8661
        76                         -0.1414167              -3.8481
        77                         -0.1405466              -3.8245
        78                         -0.1323071              -3.6003
       ...                                ...                  ...
       134                          0.7498546              20.4046
      -------------------------------------------------------------
                  HL-Gap            0.0044426 Eh            0.1209 eV

Wiberg/Mayer (AO) data.
largest (>0.10) Wiberg bond orders for each atom

     #   Z sym  total        # sym  WBO       # sym  WBO       # sym  WBO
 ---------------------------------------------------------------------------
     1   6 C    3.860 --    27 H    0.985    28 H    0.978    26 H    0.977
                             2 O    0.888
     2   8 O    2.217 --     3 C    1.141     1 C    0.888     4 O    0.145
     3   6 C    3.851 --     4 O    1.664     2 O    1.141     5 C    0.977
     4   8 O    1.916 --     3 C    1.664     2 O    0.145
     5   6 C    3.820 --     6 N    1.453    24 C    1.081     3 C    0.977
     6   7 N    3.028 --     5 C    1.453     7 C    1.333
     7   6 C    3.876 --     6 N    1.333    21 N    1.256     8 C    1.013
     8   6 C    3.943 --     7 C    1.013    11 N    1.003     9 C    0.942
                            10 C    0.917
     9   6 C    3.958 --    30 H    0.982    31 H    0.978    29 H    0.973
                             8 C    0.942
    10   6 C    3.969 --    33 H    0.984    34 H    0.984    32 H    0.978
                             8 C    0.917
    11   7 N    3.083 --     8 C    1.003    35 H    0.909    12 C    0.752
    12   6 C    3.884 --    14 O    1.211    13 C    0.953    15 C    0.904
                            11 N    0.752
    13   6 C    3.956 --    38 H    0.985    37 H    0.976    36 H    0.973
                            12 C    0.953
    14   8 O    1.526 --    12 C    1.211
    15   6 C    3.824 --    16 N    1.662    20 O    1.062    12 C    0.904
    16   7 N    2.985 --    15 C    1.662    17 N    1.162
    17   7 N    2.970 --    18 C    1.638    16 N    1.162
    18   6 C    3.865 --    17 N    1.638    20 O    1.058    19 C    1.029
    19   6 C    3.987 --    18 C    1.029    40 H    0.983    41 H    0.967
                            39 H    0.964
    20   8 O    2.309 --    15 C    1.062    18 C    1.058
    21   7 N    3.485 --     7 C    1.256    22 C    1.083    42 H    0.866
                            23 O    0.102
    22   6 C    3.850 --    23 O    1.705    21 N    1.083    24 C    0.927
    23   8 O    1.943 --    22 C    1.705    21 N    0.102
    24   6 C    3.861 --    25 O    1.703     5 C    1.081    22 C    0.927
    25   8 O    1.862 --    24 C    1.703
    26   1 H    1.004 --     1 C    0.977
    27   1 H    1.009 --     1 C    0.985
    28   1 H    1.004 --     1 C    0.978
    29   1 H    1.013 --     9 C    0.973
    30   1 H    1.006 --     9 C    0.982
    31   1 H    1.008 --     9 C    0.978
    32   1 H    0.995 --    10 C    0.978
    33   1 H    0.997 --    10 C    0.984
    34   1 H    0.998 --    10 C    0.984
    35   1 H    0.950 --    11 N    0.909
    36   1 H    1.002 --    13 C    0.973
    37   1 H    1.002 --    13 C    0.976
    38   1 H    1.005 --    13 C    0.985
    39   1 H    0.998 --    19 C    0.964
    40   1 H    0.999 --    19 C    0.983
    41   1 H    0.998 --    19 C    0.967
    42   1 H    0.933 --    21 N    0.866
 ---------------------------------------------------------------------------

           -------------------------------------------------
          | TOTAL ENERGY              -82.876326116220 Eh   |
          | GRADIENT NORM               0.000634698969 Eh/α |
          | HOMO-LUMO GAP               0.120889850657 eV   |
           -------------------------------------------------

 * finished run on 2023/06/21 at 17:26:55.655
