   * xtb version 6.5.1 (579679a) compiled by 'ehlert@majestix' on 2022-07-11
          program call               : /lustre/hpc/kemi/ree/PhD/git/ReactivityQM/dep/xtb-6.5.1/bin/xtb --gfn 1 /lustre/hpc/kemi/ree/PhD/git/ReactivityQM/calculations/RaltegravirCLI/reac02prodE08/conf10/RaltegravirCLI_reac02prodE08_conf10_gfn1.xyz --opt --vfukui --chrg -1 --uhf 0 --alpb DMSO

   ID    Z sym.   atoms
    1    6 C      1-5, 7, 9, 11-14, 17, 18, 20, 22-24
    2    7 N      6, 10, 15, 16
    3    8 O      8, 19, 21
    4    9 F      25
    5    1 H      26-47

      * Solvation model:               ALPB
        Solvent                        DMSO
        Solvent mass                       7.8130E+01 g/mol
          :  Hamiltonian                  GFN1-xTB          :
 * total energy  :   -80.1719543 Eh     change       -0.6063772E-10 Eh
 * total energy  :   -80.1812553 Eh     change       -0.9300913E-02 Eh
 * total energy  :   -80.1837201 Eh     change       -0.2464804E-02 Eh
 * total energy  :   -80.1842076 Eh     change       -0.4875680E-03 Eh
 * total energy  :   -80.1846511 Eh     change       -0.4435197E-03 Eh
 * total energy  :   -80.1849052 Eh     change       -0.2540875E-03 Eh
 * total energy  :   -80.1851431 Eh     change       -0.2379022E-03 Eh
 * total energy  :   -80.1853175 Eh     change       -0.1743531E-03 Eh
 * total energy  :   -80.1854386 Eh     change       -0.1210775E-03 Eh
 * total energy  :   -80.1855284 Eh     change       -0.8987564E-04 Eh
 * total energy  :   -80.1875340 Eh     change       -0.8902815E-05 Eh
 * total energy  :   -80.1875400 Eh     change       -0.6026717E-05 Eh
 * total energy  :   -80.1875454 Eh     change       -0.5421832E-05 Eh
 * total energy  :   -80.1875519 Eh     change       -0.6452911E-05 Eh
 * total energy  :   -80.1875595 Eh     change       -0.7644563E-05 Eh
 * total energy  :   -80.1875677 Eh     change       -0.8196954E-05 Eh
 * total energy  :   -80.1875767 Eh     change       -0.9019334E-05 Eh
 * total energy  :   -80.1875824 Eh     change       -0.5699635E-05 Eh
 * total energy  :   -80.1875829 Eh     change       -0.4626267E-06 Eh
   *** GEOMETRY OPTIMIZATION CONVERGED AFTER 85 ITERATIONS ***

 final structure:
================
47
 xtb: 6.5.1 (579679a)
C            5.05572897088007       -1.20001899394400       -1.67434910099835
C            4.65558946692065        0.30134841160503       -1.57387612470589
C            3.54725805582728        0.50420801022190       -0.56343709488702
C            3.73520058712968        1.13999790054322        0.63050892430242
C            2.60792065722871        1.26662849309078        1.64384644335890
N            1.47776774682341        0.39284863199399        1.36516233848601
C            0.27424838719663        0.86969615673841        0.97890494584300
O            0.05545238077114        2.07729760943390        0.84282090593077
C           -0.78926592807505       -0.14151606568867        0.72975062121716
N           -2.00645749746190        0.40286580208801        0.40587867963876
C           -3.04742927198930       -0.32086955320638        0.15739533884408
C           -4.31721512473959        0.43804295681724       -0.21578633913001
C           -4.43654461672132        0.49089992118727       -1.74665586763237
C           -4.22630684994233        1.87304581924365        0.33186908376404
N           -5.50056155310443       -0.22014006709909        0.33428704882212
N           -2.99742295744764       -1.69981546438905        0.16895597214357
C           -4.14420213267562       -2.55820904523421       -0.11484370006927
C           -1.81598091246710       -2.35698635726509        0.51193295737489
O           -1.74552380920349       -3.59446087549509        0.56499104588001
C           -0.68935871813544       -1.51676769227673        0.78976455061577
O            0.45491630418414       -2.18592359421895        1.10873227101683
C            4.95487150837877        1.76460494627728        0.97414412187495
C            5.99186167327802        1.77782910259940        0.01049597453002
C            5.82754848226322        1.14173636404203       -1.16828303904473
F            6.82611960751639        1.21257152864855       -2.11916715744078
H            4.19904195396950       -1.79273514278674       -1.99527224151315
H            5.38979662336681       -1.56418425027044       -0.70256389258766
H            5.86335048460222       -1.32730560674770       -2.39600687881675
H            4.31496841075751        0.59577531218694       -2.58501177746844
H            2.59006114231212        0.05822889904910       -0.81605889182932
H            2.23872329321976        2.30048238483430        1.66632264303194
H            2.99039054096884        1.02841707334694        2.64477262072871
H            1.61829199914531       -0.59354680521392        1.50356628634129
H           -3.55901846631650        0.97847406840725       -2.17114282274263
H           -5.32239865550620        1.05990441130415       -2.02497031518652
H           -4.52170728040020       -0.50848690273678       -2.17020307245840
H           -5.13152818023240        2.41783106542994        0.07046450776534
H           -4.12770138450639        1.85388094466335        1.41652168353013
H           -3.36380324862824        2.38944455079778       -0.08968568687960
H           -6.32774459673048        0.17591611292035       -0.08789380171440
H           -5.55700225117967       -0.04750778002982        1.32972241808214
H           -4.80606382582888       -2.59777953033477        0.75029508765351
H           -4.69951204251354       -2.18263765581758       -0.96940715274998
H           -3.77334676927592       -3.56028336980501       -0.33369256164177
H            0.24799868191781       -3.13854643905212        1.09099138174979
H            5.07917422373218        2.27227004949905        1.92192596413320
H            6.90981489071033        2.32347166464710        0.20569470283448

          :  Hamiltonian                  GFN1-xTB          :
         :: total energy             -80.187582890586 Eh    ::
         :: gradient norm              0.000744375166 Eh/a0 ::
         :: HOMO-LUMO gap              0.093665845432 eV    ::
         :: SCC energy               -81.044087638107 Eh    ::
         :: -> Gsolv                  -0.105148095837 Eh    ::
         :: repulsion energy           0.885982695963 Eh    ::

    * Orbital Energies and Occupations

         #    Occupation            Energy/Eh            Energy/eV
      -------------------------------------------------------------
         1        2.0000           -0.8036625             -21.8688
       ...           ...                  ...                  ...
        56        2.0000           -0.4583064             -12.4712
        57        2.0000           -0.4428969             -12.0518
        58        2.0000           -0.4408743             -11.9968
        59        2.0000           -0.4389616             -11.9448
        60        2.0000           -0.4253534             -11.5745
        61        2.0000           -0.4236097             -11.5270
        62        2.0000           -0.4200556             -11.4303
        63        2.0000           -0.4114185             -11.1953
        64        2.0000           -0.4061213             -11.0511
        65        2.0000           -0.4041265             -10.9968
        66        2.0000           -0.3961610             -10.7801
        67        2.0000           -0.3825165             -10.4088
        68        1.7191           -0.2939511              -7.9988 (HOMO)
        69        0.2809           -0.2905089              -7.9051 (LUMO)
        70                         -0.2511169              -6.8332
        71                         -0.2007848              -5.4636
        72                         -0.1978780              -5.3845
        73                         -0.1295284              -3.5246
        74                         -0.1263646              -3.4386
        75                         -0.1217597              -3.3133
        76                         -0.1160579              -3.1581
        77                         -0.1102783              -3.0008
        78                         -0.0945800              -2.5737
        79                         -0.0931921              -2.5359
       ...                                ...                  ...
       144                          0.7110126              19.3476
      -------------------------------------------------------------
                  HL-Gap            0.0034422 Eh            0.0937 eV

Wiberg/Mayer (AO) data.
largest (>0.10) Wiberg bond orders for each atom

     #   Z sym  total        # sym  WBO       # sym  WBO       # sym  WBO
 ---------------------------------------------------------------------------
     1   6 C    3.970 --    27 H    0.989    26 H    0.988    28 H    0.987
                             2 C    0.964
     2   6 C    3.992 --    24 C    1.007     3 C    1.005     1 C    0.964
                            29 H    0.961
     3   6 C    3.814 --     4 C    1.601     2 C    1.005    30 H    0.974
     4   6 C    3.983 --     3 C    1.601    22 C    1.298     5 C    0.983
     5   6 C    3.941 --     4 C    0.983    32 H    0.972    31 H    0.967
                             6 N    0.945
     6   7 N    3.325 --     7 C    1.249     5 C    0.945    33 H    0.897
                             8 O    0.161
     7   6 C    3.878 --     8 O    1.528     6 N    1.249     9 C    1.025
     8   8 O    1.806 --     7 C    1.528     6 N    0.161
     9   6 C    3.862 --    20 C    1.421    10 N    1.184     7 C    1.025
    10   7 N    3.028 --    11 C    1.582     9 C    1.184
    11   6 C    3.894 --    10 N    1.582    16 N    1.144    12 C    0.976
    12   6 C    3.966 --    14 C    0.990    13 C    0.984    15 N    0.982
                            11 C    0.976
    13   6 C    3.993 --    34 H    0.986    12 C    0.984    35 H    0.984
                            36 H    0.980
    14   6 C    3.995 --    12 C    0.990    37 H    0.987    38 H    0.985
                            39 H    0.982
    15   7 N    2.977 --    12 C    0.982    41 H    0.943    40 H    0.942
    16   7 N    3.419 --    11 C    1.144    18 C    1.093    17 C    0.938
                            19 O    0.115
    17   6 C    3.934 --    43 H    0.979    42 H    0.978    44 H    0.977
                            16 N    0.938
    18   6 C    3.870 --    19 O    1.487    20 C    1.154    16 N    1.093
    19   8 O    1.820 --    18 C    1.487    16 N    0.115
    20   6 C    3.823 --     9 C    1.421    18 C    1.154    21 O    1.039
    21   8 O    2.022 --    20 C    1.039    45 H    0.813
    22   6 C    3.749 --     4 C    1.298    23 C    1.276    46 H    0.977
    23   6 C    3.989 --    24 C    1.622    22 C    1.276    47 H    0.971
    24   6 C    3.686 --    23 C    1.622     2 C    1.007    25 F    0.858
    25   9 F    0.964 --    24 C    0.858
    26   1 H    1.010 --     1 C    0.988
    27   1 H    1.017 --     1 C    0.989
    28   1 H    1.010 --     1 C    0.987
    29   1 H    1.007 --     2 C    0.961
    30   1 H    1.006 --     3 C    0.974
    31   1 H    1.021 --     5 C    0.967
    32   1 H    1.012 --     5 C    0.972
    33   1 H    0.958 --     6 N    0.897
    34   1 H    1.005 --    13 C    0.986
    35   1 H    1.001 --    13 C    0.984
    36   1 H    1.006 --    13 C    0.980
    37   1 H    1.005 --    14 C    0.987
    38   1 H    1.008 --    14 C    0.985
    39   1 H    1.018 --    14 C    0.982
    40   1 H    0.957 --    15 N    0.942
    41   1 H    0.960 --    15 N    0.943
    42   1 H    1.019 --    17 C    0.978
    43   1 H    1.022 --    17 C    0.979
    44   1 H    1.013 --    17 C    0.977
    45   1 H    0.861 --    21 O    0.813
    46   1 H    1.002 --    22 C    0.977
    47   1 H    1.006 --    23 C    0.971
 ---------------------------------------------------------------------------

           -------------------------------------------------
          | TOTAL ENERGY              -80.187582890586 Eh   |
          | GRADIENT NORM               0.000744375166 Eh/α |
          | HOMO-LUMO GAP               0.093665845432 eV   |
           -------------------------------------------------

 * finished run on 2023/06/20 at 15:07:01.783
