   * xtb version 6.5.1 (579679a) compiled by 'ehlert@majestix' on 2022-07-11
          program call               : /lustre/hpc/kemi/ree/PhD/git/ReactivityQM/dep/xtb-6.5.1/bin/xtb --gfn 1 /lustre/hpc/kemi/ree/PhD/git/ReactivityQM/calculations/R02methylcation/reac01prodN17/conf06/R02methylcation_reac01prodN17_conf06_gfn1.xyz --opt --vfukui --chrg 0 --uhf 0 --alpb DMSO

   ID    Z sym.   atoms
    1    6 C      1, 3, 5, 7-10, 12, 13, 15, 18, 19, 22, 24
    2    8 O      2, 4, 14, 20, 23, 25
    3    7 N      6, 11, 16, 17, 21
    4    1 H      26-42

      * Solvation model:               ALPB
        Solvent                        DMSO
        Solvent mass                       7.8130E+01 g/mol
          :  Hamiltonian                  GFN1-xTB          :
 * total energy  :   -82.9263200 Eh     change       -0.1678870E-09 Eh
 * total energy  :   -82.9402420 Eh     change       -0.1392201E-01 Eh
 * total energy  :   -82.9451451 Eh     change       -0.4903135E-02 Eh
 * total energy  :   -82.9461767 Eh     change       -0.1031584E-02 Eh
 * total energy  :   -82.9469733 Eh     change       -0.7966264E-03 Eh
 * total energy  :   -82.9475051 Eh     change       -0.5317522E-03 Eh
 * total energy  :   -82.9479687 Eh     change       -0.4636040E-03 Eh
 * total energy  :   -82.9483408 Eh     change       -0.3721066E-03 Eh
 * total energy  :   -82.9485737 Eh     change       -0.2329593E-03 Eh
 * total energy  :   -82.9487057 Eh     change       -0.1319239E-03 Eh
 * total energy  :   -82.9868328 Eh     change       -0.8999786E-05 Eh
 * total energy  :   -82.9868360 Eh     change       -0.3221877E-05 Eh
 * total energy  :   -82.9868416 Eh     change       -0.5628098E-05 Eh
 * total energy  :   -82.9868468 Eh     change       -0.5122158E-05 Eh
 * total energy  :   -82.9868539 Eh     change       -0.7112200E-05 Eh
 * total energy  :   -82.9868644 Eh     change       -0.1053379E-04 Eh
 * total energy  :   -82.9868738 Eh     change       -0.9344550E-05 Eh
 * total energy  :   -82.9868795 Eh     change       -0.5726066E-05 Eh
 * total energy  :   -82.9868841 Eh     change       -0.4591255E-05 Eh
   *** GEOMETRY OPTIMIZATION CONVERGED AFTER 189 ITERATIONS ***

 final structure:
================
42
 xtb: 6.5.1 (579679a)
C           -2.09966035590108        3.96028385719667        2.36836489811271
O           -2.39605855179431        2.77917768505660        1.62596172114736
C           -1.34859027586448        2.14496198340179        1.08142832771125
O           -0.21113187113778        2.55679625854192        1.22719738427349
C           -1.72358568059494        0.95317949558767        0.31811624166730
N           -0.72004857813831        0.27433165203466       -0.37693504571834
C           -0.95435048281731       -0.74575466822745       -1.15105102406128
C            0.21635903098888       -1.27987003548879       -1.92845228214191
C            0.25930561426479       -2.80560942886454       -1.97354328667645
C            0.20371665978494       -0.66992776940085       -3.33281667957128
N            1.34091967961716       -0.77978696151412       -1.11389025233743
C            2.62875261127462       -0.56397187227105       -1.78375032684707
C            0.77979797930927        0.76165208845032       -0.46904238230150
O            1.00025397312076        1.65657053849253       -1.26620496923299
C            1.42421286066686        0.65318054498801        0.88710306876691
N            2.45169085206708        1.29374270385083        1.33564135915449
N            2.75450397885926        0.73875832857780        2.55187471376074
C            1.90987264951448       -0.21865055642772        2.74865196420104
C            1.82419444743001       -1.13431168537603        3.90756208673011
O            1.03912063684626       -0.33850036563441        1.72154130977339
N           -2.19695448087376       -1.24388138790436       -1.28536577793376
C           -3.31234016094926       -0.73973574134127       -0.62652025171491
O           -4.39148309603648       -1.26876399071282       -0.78678518223512
C           -3.06773303302342        0.47960495122848        0.24057322990217
O           -4.03864414921184        0.97506505453454        0.81280812466289
H           -3.05455623582223        4.38512369611181        2.67466807176614
H           -1.49816505542432        3.71617729726290        3.24797764076015
H           -1.55189469071640        4.67451992642464        1.74701256566548
H            0.19356511767713       -3.21930057635046       -0.96873612272862
H           -0.56865715638851       -3.18341709472764       -2.56992412955710
H            1.19086936299806       -3.13205040400120       -2.43127315375684
H            0.28227286893890        0.41554555071631       -3.27698563725022
H            1.02639281703726       -1.06593662067742       -3.92313681970833
H           -0.73308096743250       -0.93502840271922       -3.82003632273081
H            1.46887215271795       -1.41296570528099       -0.32772959741501
H            3.37157675214146       -0.37562787322971       -1.01065953954563
H            2.89676484532661       -1.45091187857371       -2.35122929713909
H            2.54938651104212        0.30236035800313       -2.43889286460863
H            1.98768507032871       -2.16058900230758        3.58041729109356
H            2.57920137010692       -0.86457097196950        4.64224858293628
H            0.83410544592841       -1.07924686321916        4.35979557499965
H           -2.34645646584020       -2.05262211422035       -1.86598421189680

          :  Hamiltonian                  GFN1-xTB          :
         :: total energy             -82.986884067498 Eh    ::
         :: gradient norm              0.000594716902 Eh/a0 ::
         :: HOMO-LUMO gap              2.589897016052 eV    ::
         :: SCC energy               -83.753021665766 Eh    ::
         :: -> Gsolv                  -0.088524982952 Eh    ::
         :: repulsion energy           0.795819603443 Eh    ::

    * Orbital Energies and Occupations

         #    Occupation            Energy/Eh            Energy/eV
      -------------------------------------------------------------
         1        2.0000           -0.8649588             -23.5367
       ...           ...                  ...                  ...
        55        2.0000           -0.5085500             -13.8384
        56        2.0000           -0.5025426             -13.6749
        57        2.0000           -0.5008038             -13.6276
        58        2.0000           -0.4942371             -13.4489
        59        2.0000           -0.4876953             -13.2709
        60        2.0000           -0.4782938             -13.0150
        61        2.0000           -0.4760238             -12.9533
        62        2.0000           -0.4740506             -12.8996
        63        2.0000           -0.4615383             -12.5591
        64        2.0000           -0.4507995             -12.2669
        65        2.0000           -0.4481233             -12.1941
        66        2.0000           -0.4241584             -11.5419
        67        2.0000           -0.4131952             -11.2436 (HOMO)
        68                         -0.3180183              -8.6537 (LUMO)
        69                         -0.3022086              -8.2235
        70                         -0.2843854              -7.7385
        71                         -0.2535892              -6.9005
        72                         -0.2342333              -6.3738
        73                         -0.1809002              -4.9225
        74                         -0.1586986              -4.3184
        75                         -0.1538008              -4.1851
        76                         -0.1470094              -4.0003
        77                         -0.1430809              -3.8934
        78                         -0.1413721              -3.8469
       ...                                ...                  ...
       134                          0.7516547              20.4536
      -------------------------------------------------------------
                  HL-Gap            0.0951770 Eh            2.5899 eV

Wiberg/Mayer (AO) data.
largest (>0.10) Wiberg bond orders for each atom

     #   Z sym  total        # sym  WBO       # sym  WBO       # sym  WBO
 ---------------------------------------------------------------------------
     1   6 C    3.881 --    26 H    0.986    27 H    0.980    28 H    0.980
                             2 O    0.907
     2   8 O    2.193 --     3 C    1.092     1 C    0.907     4 O    0.119
     3   6 C    3.867 --     4 O    1.589     2 O    1.092     5 C    1.089
     4   8 O    1.896 --     3 C    1.589     2 O    0.119
     5   6 C    3.855 --    24 C    1.250     3 C    1.089     6 N    1.065
                            25 O    0.134
     6   7 N    3.555 --     7 C    1.454     5 C    1.065    13 C    0.738
     7   6 C    3.924 --     6 N    1.454    21 N    1.208     8 C    0.981
     8   6 C    3.931 --     9 C    0.990     7 C    0.981    10 C    0.979
                            11 N    0.924
     9   6 C    3.984 --     8 C    0.990    29 H    0.981    31 H    0.979
                            30 H    0.978
    10   6 C    3.980 --    34 H    0.981    33 H    0.980     8 C    0.979
                            32 H    0.978
    11   7 N    3.508 --    12 C    0.937     8 C    0.924    35 H    0.903
                            13 C    0.540    14 O    0.125
    12   6 C    3.917 --    36 H    0.983    37 H    0.981    38 H    0.977
                            11 N    0.937
    13   6 C    3.888 --    14 O    1.538    15 C    0.950     6 N    0.738
                            11 N    0.540
    14   8 O    1.868 --    13 C    1.538    11 N    0.125
    15   6 C    3.877 --    16 N    1.654    20 O    1.047    13 C    0.950
    16   7 N    2.996 --    15 C    1.654    17 N    1.168
    17   7 N    2.983 --    18 C    1.644    16 N    1.168
    18   6 C    3.868 --    17 N    1.644    20 O    1.049    19 C    1.031
    19   6 C    3.987 --    18 C    1.031    40 H    0.982    41 H    0.965
                            39 H    0.963
    20   8 O    2.293 --    18 C    1.049    15 C    1.047
    21   7 N    3.452 --     7 C    1.208    22 C    1.086    42 H    0.878
                            23 O    0.118
    22   6 C    3.865 --    23 O    1.665    21 N    1.086    24 C    0.951
    23   8 O    1.935 --    22 C    1.665    21 N    0.118
    24   6 C    3.942 --    25 O    1.578     5 C    1.250    22 C    0.951
    25   8 O    1.887 --    24 C    1.578     5 C    0.134
    26   1 H    1.012 --     1 C    0.986
    27   1 H    1.009 --     1 C    0.980
    28   1 H    1.010 --     1 C    0.980
    29   1 H    0.995 --     9 C    0.981
    30   1 H    0.995 --     9 C    0.978
    31   1 H    0.994 --     9 C    0.979
    32   1 H    1.008 --    10 C    0.978
    33   1 H    0.996 --    10 C    0.980
    34   1 H    0.998 --    10 C    0.981
    35   1 H    0.945 --    11 N    0.903
    36   1 H    0.998 --    12 C    0.983
    37   1 H    0.995 --    12 C    0.981
    38   1 H    1.005 --    12 C    0.977
    39   1 H    0.998 --    19 C    0.963
    40   1 H    0.998 --    19 C    0.982
    41   1 H    0.997 --    19 C    0.965
    42   1 H    0.923 --    21 N    0.878
 ---------------------------------------------------------------------------

           -------------------------------------------------
          | TOTAL ENERGY              -82.986884067498 Eh   |
          | GRADIENT NORM               0.000594716902 Eh/α |
          | HOMO-LUMO GAP               2.589897016052 eV   |
           -------------------------------------------------

 * finished run on 2023/06/21 at 18:00:05.294
