   * xtb version 6.5.1 (579679a) compiled by 'ehlert@majestix' on 2022-07-11
          program call               : /lustre/hpc/kemi/ree/PhD/git/ReactivityQM/dep/xtb-6.5.1/bin/xtb --gfn 1 /lustre/hpc/kemi/ree/PhD/git/ReactivityQM/calculations/R03/reac02prodN18/conf12/R03_reac02prodN18_conf12_gfn1.xyz --opt --vfukui --chrg 1 --uhf 0 --alpb DMSO

   ID    Z sym.   atoms
    1    6 C      1, 3, 5, 6, 8, 11-16, 18, 20, 23, 24
    2    8 O      2, 4, 7, 9, 19, 25
    3    7 N      10, 17, 21, 22, 26
    4    1 H      27-46

      * Solvation model:               ALPB
        Solvent                        DMSO
        Solvent mass                       7.8130E+01 g/mol
          :  Hamiltonian                  GFN1-xTB          :
 * total energy  :   -86.2793003 Eh     change       -0.4743583E-10 Eh
 * total energy  :   -86.2947488 Eh     change       -0.1544859E-01 Eh
 * total energy  :   -86.3006868 Eh     change       -0.5937962E-02 Eh
 * total energy  :   -86.3020696 Eh     change       -0.1382811E-02 Eh
 * total energy  :   -86.3028950 Eh     change       -0.8253389E-03 Eh
 * total energy  :   -86.3034220 Eh     change       -0.5270840E-03 Eh
 * total energy  :   -86.3038565 Eh     change       -0.4344927E-03 Eh
 * total energy  :   -86.3042261 Eh     change       -0.3695916E-03 Eh
 * total energy  :   -86.3044374 Eh     change       -0.2112294E-03 Eh
 * total energy  :   -86.3045381 Eh     change       -0.1007878E-03 Eh
 * total energy  :   -86.3050473 Eh     change       -0.6945596E-05 Eh
 * total energy  :   -86.3050618 Eh     change       -0.1451997E-04 Eh
 * total energy  :   -86.3050728 Eh     change       -0.1093324E-04 Eh
 * total energy  :   -86.3050804 Eh     change       -0.7672364E-05 Eh
 * total energy  :   -86.3050914 Eh     change       -0.1095345E-04 Eh
 * total energy  :   -86.3051004 Eh     change       -0.9031301E-05 Eh
 * total energy  :   -86.3051100 Eh     change       -0.9594564E-05 Eh
 * total energy  :   -86.3051218 Eh     change       -0.1176949E-04 Eh
 * total energy  :   -86.3051261 Eh     change       -0.4341856E-05 Eh
   *** GEOMETRY OPTIMIZATION CONVERGED AFTER 44 ITERATIONS ***

 final structure:
================
46
 xtb: 6.5.1 (579679a)
C           -6.58986629842920        0.94367878512060       -0.77402468919579
O           -5.42461798920889        0.49975922152750       -0.06232498517572
C           -4.26547264574145        0.62677457240296       -0.68074383609551
O           -4.12369597253847        1.07345965930436       -1.79099693417302
C           -3.10393291673245        0.15214248659811        0.15089204771920
C           -3.15749372191694       -0.35862065094013        1.41224962412299
O           -4.27376841180207       -0.50713070845973        2.11267783861944
C           -1.93563718701455       -0.77185136205711        2.09352335507496
O           -1.89782083594795       -1.21076534788480        3.20365886614828
N           -0.64048564624642       -0.68791376511002        1.31747061827838
C           -0.28394769305906       -2.12927928669276        1.08884579957537
C            0.34975246647065       -0.01554513693425        2.21047502886960
C           -0.75970961824350       -0.00814685122513       -0.00714957553868
C            0.42967470767818        0.30809706943120       -0.90485795460982
C            0.38388566190080        1.82256573193235       -1.18368170295557
C            0.22530175109024       -0.46045990417178       -2.22192588585931
N            1.74067158165540        0.05167520943943       -0.32465658293118
C            2.52396954474887       -1.04171673209152       -0.53591941865994
O            2.14954265862693       -2.09657193522683       -1.01494796361764
C            3.90403507986945       -0.83004045398449       -0.05313044895017
N            4.91770993270485       -1.63268460225728       -0.14557635509985
N            5.97454520271127       -0.99926786151647        0.42946604191816
C            5.54389907939640        0.15333965364687        0.84148842841388
C            6.30058801223851        1.21263098303675        1.54168395668942
O            4.24032688873889        0.32393513540596        0.56465026117047
N           -1.88834645101145        0.31324449520355       -0.47559477758760
H           -7.43349835092756        0.79453029108153       -0.10375232802930
H           -6.71355584541604        0.35477566097854       -1.68530495406856
H           -6.48491916748638        1.99964551007384       -1.03190435606523
H           -4.10226774640964       -0.87247739637478        2.99722952230305
H           -1.08360395038112       -2.58774771134622        0.51189703452223
H            0.65266010758416       -2.17833840817691        0.54395923133826
H           -0.19182514387452       -2.60080137595272        2.06398123769739
H            1.34763954563715       -0.21208373257083        1.83783854011780
H            0.13903885005632        1.04989353319044        2.20956318154141
H            0.23341916892678       -0.43202704054466        3.20822445829355
H           -0.57543047416216        2.09165071923287       -1.62254388053068
H            1.18402130566616        2.08196344356670       -1.87440395122490
H            0.51749322612895        2.37734731141293       -0.25700441960351
H           -0.66813704472545       -0.07752186890385       -2.71291231748837
H            1.08792319296584       -0.30793375581118       -2.86757906294430
H            0.09614846254223       -1.52457761996330       -2.03844897913742
H            2.21137086266685        0.86842516964320        0.03460680554368
H            7.34621064160637        0.92542301180146        1.62692440259556
H            5.88107818241876        1.36770184891797        2.53566922893214
H            6.21712899724022        2.15084200525093        0.99379385006106

          :  Hamiltonian                  GFN1-xTB          :
         :: total energy             -86.305126127561 Eh    ::
         :: gradient norm              0.000357963886 Eh/a0 ::
         :: HOMO-LUMO gap              1.661531597631 eV    ::
         :: SCC energy               -87.139486042874 Eh    ::
         :: -> Gsolv                  -0.121062268496 Eh    ::
         :: repulsion energy           0.865446118997 Eh    ::

    * Orbital Energies and Occupations

         #    Occupation            Energy/Eh            Energy/eV
      -------------------------------------------------------------
         1        2.0000           -0.9013115             -24.5259
       ...           ...                  ...                  ...
        58        2.0000           -0.5301404             -14.4259
        59        2.0000           -0.5251204             -14.2893
        60        2.0000           -0.5204201             -14.1614
        61        2.0000           -0.5141139             -13.9898
        62        2.0000           -0.5127469             -13.9526
        63        2.0000           -0.5060232             -13.7696
        64        2.0000           -0.4911359             -13.3645
        65        2.0000           -0.4892749             -13.3138
        66        2.0000           -0.4831338             -13.1467
        67        2.0000           -0.4797659             -13.0551
        68        2.0000           -0.4759931             -12.9524
        69        2.0000           -0.4616676             -12.5626
        70        2.0000           -0.4610071             -12.5446 (HOMO)
        71                         -0.3999469             -10.8831 (LUMO)
        72                         -0.3305621              -8.9951
        73                         -0.3262982              -8.8790
        74                         -0.2935866              -7.9889
        75                         -0.2641950              -7.1891
        76                         -0.2136618              -5.8140
        77                         -0.2108819              -5.7384
        78                         -0.1654586              -4.5024
        79                         -0.1620348              -4.4092
        80                         -0.1472144              -4.0059
        81                         -0.1445438              -3.9332
       ...                                ...                  ...
       144                          0.7271863              19.7877
      -------------------------------------------------------------
                  HL-Gap            0.0610602 Eh            1.6615 eV

Wiberg/Mayer (AO) data.
largest (>0.10) Wiberg bond orders for each atom

     #   Z sym  total        # sym  WBO       # sym  WBO       # sym  WBO
 ---------------------------------------------------------------------------
     1   6 C    3.855 --    27 H    0.985    29 H    0.978    28 H    0.978
                             2 O    0.882
     2   8 O    2.224 --     3 C    1.145     1 C    0.882     4 O    0.146
     3   6 C    3.864 --     4 O    1.674     2 O    1.145     5 C    0.973
     4   8 O    1.942 --     3 C    1.674     2 O    0.146
     5   6 C    3.958 --     6 C    1.524    26 N    1.121     3 C    0.973
     6   6 C    3.928 --     5 C    1.524     7 O    1.135     8 C    1.051
     7   8 O    2.117 --     6 C    1.135    30 H    0.792
     8   6 C    3.864 --     9 O    1.780     6 C    1.051    10 N    0.858
     9   8 O    2.063 --     8 C    1.780
    10   7 N    3.618 --    12 C    0.877    13 C    0.877    11 C    0.860
                             8 C    0.858
    11   6 C    3.866 --    31 H    0.981    33 H    0.976    32 H    0.966
                            10 N    0.860
    12   6 C    3.873 --    35 H    0.981    34 H    0.974    36 H    0.972
                            10 N    0.877
    13   6 C    3.897 --    26 N    1.772    14 C    0.981    10 N    0.877
    14   6 C    3.932 --    13 C    0.981    15 C    0.969    16 C    0.967
                            17 N    0.944
    15   6 C    3.980 --    39 H    0.983    37 H    0.980    38 H    0.980
                            14 C    0.969
    16   6 C    3.979 --    40 H    0.982    42 H    0.980    41 H    0.980
                            14 C    0.967
    17   7 N    3.321 --    18 C    1.212    14 C    0.944    43 H    0.888
                            19 O    0.165
    18   6 C    3.909 --    19 O    1.594    17 N    1.212    20 C    1.005
    19   8 O    1.925 --    18 C    1.594    17 N    0.165
    20   6 C    3.877 --    21 N    1.616    25 O    1.044    18 C    1.005
    21   7 N    3.005 --    20 C    1.616    22 N    1.207
    22   7 N    2.983 --    23 C    1.602    21 N    1.207
    23   6 C    3.864 --    22 N    1.602    25 O    1.071    24 C    1.033
    24   6 C    3.984 --    23 C    1.033    44 H    0.982    46 H    0.963
                            45 H    0.959
    25   8 O    2.317 --    23 C    1.071    20 C    1.044
    26   7 N    3.087 --    13 C    1.772     5 C    1.121
    27   1 H    1.008 --     1 C    0.985
    28   1 H    1.003 --     1 C    0.978
    29   1 H    1.004 --     1 C    0.978
    30   1 H    0.820 --     7 O    0.792
    31   1 H    0.991 --    11 C    0.981
    32   1 H    1.001 --    11 C    0.966
    33   1 H    0.992 --    11 C    0.976
    34   1 H    1.002 --    12 C    0.974
    35   1 H    0.991 --    12 C    0.981
    36   1 H    0.994 --    12 C    0.972
    37   1 H    1.004 --    15 C    0.980
    38   1 H    0.995 --    15 C    0.980
    39   1 H    0.996 --    15 C    0.983
    40   1 H    1.004 --    16 C    0.982
    41   1 H    0.997 --    16 C    0.980
    42   1 H    1.012 --    16 C    0.980
    43   1 H    0.935 --    17 N    0.888
    44   1 H    0.997 --    24 C    0.982
    45   1 H    0.996 --    24 C    0.959
    46   1 H    0.995 --    24 C    0.963
 ---------------------------------------------------------------------------

           -------------------------------------------------
          | TOTAL ENERGY              -86.305126127561 Eh   |
          | GRADIENT NORM               0.000357963886 Eh/α |
          | HOMO-LUMO GAP               1.661531597631 eV   |
           -------------------------------------------------

 * finished run on 2023/06/20 at 15:54:46.781
