   * xtb version 6.5.1 (579679a) compiled by 'ehlert@majestix' on 2022-07-11
          program call               : /lustre/hpc/kemi/ree/PhD/git/ReactivityQM/dep/xtb-6.5.1/bin/xtb --gfn 1 /lustre/hpc/kemi/ree/PhD/git/ReactivityQM/calculations/R02/reac01prodN02/conf15/R02_reac01prodN02_conf15_gfn1.xyz --opt --vfukui --chrg 1 --uhf 0 --alpb DMSO

   ID    Z sym.   atoms
    1    6 C      1, 3, 5, 7-10, 12, 14, 15, 18, 19, 22, 24
    2    8 O      2, 4, 13, 20, 23, 25
    3    7 N      6, 11, 16, 17, 21
    4    1 H      26-43

      * Solvation model:               ALPB
        Solvent                        DMSO
        Solvent mass                       7.8130E+01 g/mol
          :  Hamiltonian                  GFN1-xTB          :
 * total energy  :   -83.1450955 Eh     change       -0.2852119E-10 Eh
 * total energy  :   -83.1643821 Eh     change       -0.1928658E-01 Eh
 * total energy  :   -83.1715141 Eh     change       -0.7131977E-02 Eh
 * total energy  :   -83.1729908 Eh     change       -0.1476791E-02 Eh
 * total energy  :   -83.1736753 Eh     change       -0.6844197E-03 Eh
 * total energy  :   -83.1738417 Eh     change       -0.1664680E-03 Eh
 * total energy  :   -83.1739623 Eh     change       -0.1205644E-03 Eh
 * total energy  :   -83.1740512 Eh     change       -0.8885719E-04 Eh
 * total energy  :   -83.1741234 Eh     change       -0.7220625E-04 Eh
 * total energy  :   -83.1741772 Eh     change       -0.5382635E-04 Eh
 * total energy  :   -83.1749073 Eh     change       -0.1928302E-04 Eh
 * total energy  :   -83.1749198 Eh     change       -0.1250628E-04 Eh
 * total energy  :   -83.1749363 Eh     change       -0.1648135E-04 Eh
 * total energy  :   -83.1749487 Eh     change       -0.1244334E-04 Eh
 * total energy  :   -83.1749637 Eh     change       -0.1499218E-04 Eh
 * total energy  :   -83.1749689 Eh     change       -0.5192809E-05 Eh
 * total energy  :   -83.1749752 Eh     change       -0.6324405E-05 Eh
 * total energy  :   -83.1749807 Eh     change       -0.5450117E-05 Eh
 * total energy  :   -83.1749843 Eh     change       -0.3637145E-05 Eh
   *** GEOMETRY OPTIMIZATION CONVERGED AFTER 42 ITERATIONS ***

 final structure:
================
43
 xtb: 6.5.1 (579679a)
C           -5.93984368611894        0.18399316855660       -0.33345411013402
O           -4.53617426587330        0.47160143079976       -0.27716550610450
C           -4.09620887776535        1.07260077673581        0.81599704598154
O           -4.81615569005397        1.37855492171931        1.74986785882894
C           -2.64009608164164        1.35017150924582        0.80506266674048
N           -1.93095574495009        0.94378079047110       -0.29990309326415
C           -0.66730652313455        1.17496680942914       -0.34149030815108
C            0.11604011933367        0.80901757520449       -1.58291257558615
C            0.33494415717170        2.06992526067124       -2.42465745251343
C           -0.61173678545250       -0.27217025463272       -2.38397548092853
N            1.44884390944104        0.30850431170970       -1.19209461761172
C            1.66449177025968       -0.68410876885602       -0.35979603605088
O            0.64807399063038       -1.22213415496428        0.23869078220967
C            0.76298778911549       -2.32255331069124        1.15933713817936
C            3.04093949225201       -1.06914215885213       -0.18152986075324
N            4.04884064138745       -0.50462082763314       -0.79425369316249
N            5.16039281105172       -1.12425178305441       -0.37212783257912
C            4.78670428691520       -2.04382304993025        0.48086880980035
C            5.64224504314606       -2.99559112283543        1.21275717683504
O            3.45845365282072       -2.05179027073601        0.63829507331228
N           -0.00219552941092        1.82057641760628        0.65889990534191
C           -0.59722233641181        2.26526801149697        1.83024819386853
O            0.05916935638831        2.81023327717694        2.69529186987062
C           -2.04130680970077        1.99455052800078        1.86093523863448
O           -2.68871774829102        2.40426651061372        2.94702780125762
H           -6.51182479446680        1.11252662533205       -0.27168383579461
H           -6.11526584103476       -0.30993612768879       -1.28679616534753
H           -6.21857136738740       -0.47143050891902        0.49458484999169
H           -0.63133943160479        2.47902083471147       -2.71666664894876
H            0.87695429289576        2.81814164091519       -1.84914626144223
H            0.90159122114410        1.82584245806595       -3.32124798429532
H           -0.03115916820019       -0.53268878397177       -3.26610895265660
H           -0.76169442486346       -1.16030245763651       -1.77415578314172
H           -1.58432360529441        0.11273696424856       -2.68718033297944
H            2.25810581136749        0.69583302380200       -1.66119026675249
H           -0.25697823056573       -2.55176024752059        1.46326966867680
H            1.21539743553857       -3.17854974165383        0.65907407922402
H            1.36424289089393       -2.02690690492620        2.01926322081163
H            6.68886943550339       -2.73234667480352        1.07477524818349
H            5.46948365348050       -4.00576605000017        0.83850003871802
H            5.38785596948946       -2.98398269373010        2.27176115049362
H            0.99080370688851        1.97024192254260        0.57859977200224
H           -3.64635349488968        2.17150212398088        2.88443020922841

          :  Hamiltonian                  GFN1-xTB          :
         :: total energy             -83.174984300083 Eh    ::
         :: gradient norm              0.000807913991 Eh/a0 ::
         :: HOMO-LUMO gap              1.710909965998 eV    ::
         :: SCC energy               -83.969023891855 Eh    ::
         :: -> Gsolv                  -0.117040618517 Eh    ::
         :: repulsion energy           0.820803982784 Eh    ::

    * Orbital Energies and Occupations

         #    Occupation            Energy/Eh            Energy/eV
      -------------------------------------------------------------
         1        2.0000           -0.9060844             -24.6558
       ...           ...                  ...                  ...
        55        2.0000           -0.5336702             -14.5219
        56        2.0000           -0.5249575             -14.2848
        57        2.0000           -0.5210356             -14.1781
        58        2.0000           -0.5195885             -14.1387
        59        2.0000           -0.5156518             -14.0316
        60        2.0000           -0.5069419             -13.7946
        61        2.0000           -0.5004617             -13.6183
        62        2.0000           -0.4995081             -13.5923
        63        2.0000           -0.4908390             -13.3564
        64        2.0000           -0.4897132             -13.3258
        65        2.0000           -0.4743869             -12.9087
        66        2.0000           -0.4604321             -12.5290
        67        2.0000           -0.4434386             -12.0666 (HOMO)
        68                         -0.3805638             -10.3557 (LUMO)
        69                         -0.3370787              -9.1724
        70                         -0.2995571              -8.1514
        71                         -0.2919410              -7.9441
        72                         -0.2589481              -7.0463
        73                         -0.2529222              -6.8824
        74                         -0.1718454              -4.6762
        75                         -0.1638933              -4.4598
        76                         -0.1564014              -4.2559
        77                         -0.1556202              -4.2346
        78                         -0.1432843              -3.8990
       ...                                ...                  ...
       136                          0.7172386              19.5171
      -------------------------------------------------------------
                  HL-Gap            0.0628748 Eh            1.7109 eV

Wiberg/Mayer (AO) data.
largest (>0.10) Wiberg bond orders for each atom

     #   Z sym  total        # sym  WBO       # sym  WBO       # sym  WBO
 ---------------------------------------------------------------------------
     1   6 C    3.862 --    27 H    0.986    28 H    0.979    26 H    0.979
                             2 O    0.888
     2   8 O    2.219 --     3 C    1.142     1 C    0.888     4 O    0.131
     3   6 C    3.851 --     4 O    1.608     2 O    1.142     5 C    1.017
     4   8 O    1.949 --     3 C    1.608     2 O    0.131
     5   6 C    3.961 --    24 C    1.488     6 N    1.168     3 C    1.017
     6   7 N    3.030 --     7 C    1.603     5 C    1.168
     7   6 C    3.939 --     6 N    1.603    21 N    1.166     8 C    0.974
     8   6 C    3.901 --    10 C    0.984     9 C    0.983     7 C    0.974
                            11 N    0.890
     9   6 C    3.983 --     8 C    0.983    30 H    0.983    29 H    0.980
                            31 H    0.980
    10   6 C    3.981 --     8 C    0.984    32 H    0.984    33 H    0.982
                            34 H    0.979
    11   7 N    3.464 --    12 C    1.431     8 C    0.890    35 H    0.870
                            13 O    0.109
    12   6 C    3.895 --    11 N    1.431    13 O    1.211    15 C    1.094
    13   8 O    2.281 --    12 C    1.211    14 C    0.853    11 N    0.109
    14   6 C    3.820 --    36 H    0.981    38 H    0.974    37 H    0.974
                            13 O    0.853
    15   6 C    3.890 --    16 N    1.533    12 C    1.094    20 O    1.054
    16   7 N    3.034 --    15 C    1.533    17 N    1.269
    17   7 N    2.991 --    18 C    1.535    16 N    1.269
    18   6 C    3.848 --    17 N    1.535    20 O    1.091    19 C    1.041
    19   6 C    3.977 --    18 C    1.041    39 H    0.978    41 H    0.959
                            40 H    0.948
    20   8 O    2.344 --    18 C    1.091    15 C    1.054
    21   7 N    3.451 --     7 C    1.166    22 C    1.108    42 H    0.885
                            23 O    0.135
    22   6 C    3.905 --    23 O    1.618    21 N    1.108    24 C    1.049
    23   8 O    1.916 --    22 C    1.618    21 N    0.135
    24   6 C    3.922 --     5 C    1.488    25 O    1.140    22 C    1.049
    25   8 O    2.104 --    24 C    1.140    43 H    0.769
    26   1 H    1.005 --     1 C    0.979
    27   1 H    1.009 --     1 C    0.986
    28   1 H    1.005 --     1 C    0.979
    29   1 H    0.996 --     9 C    0.980
    30   1 H    0.995 --     9 C    0.983
    31   1 H    0.993 --     9 C    0.980
    32   1 H    0.997 --    10 C    0.984
    33   1 H    1.004 --    10 C    0.982
    34   1 H    1.006 --    10 C    0.979
    35   1 H    0.925 --    11 N    0.870
    36   1 H    1.002 --    14 C    0.981
    37   1 H    1.001 --    14 C    0.974
    38   1 H    1.002 --    14 C    0.974
    39   1 H    0.994 --    19 C    0.978
    40   1 H    0.990 --    19 C    0.948
    41   1 H    0.991 --    19 C    0.959
    42   1 H    0.927 --    21 N    0.885
    43   1 H    0.847 --    25 O    0.769
 ---------------------------------------------------------------------------

           -------------------------------------------------
          | TOTAL ENERGY              -83.174984300083 Eh   |
          | GRADIENT NORM               0.000807913991 Eh/α |
          | HOMO-LUMO GAP               1.710909965998 eV   |
           -------------------------------------------------

 * finished run on 2023/06/20 at 15:20:08.954
