   * xtb version 6.5.1 (579679a) compiled by 'ehlert@majestix' on 2022-07-11
          program call               : /lustre/hpc/kemi/ree/PhD/git/ReactivityQM/dep/xtb-6.5.1/bin/xtb --gfn 1 /lustre/hpc/kemi/ree/PhD/git/ReactivityQM/calculations/R02methylcation/reac01prodN06/conf14/R02methylcation_reac01prodN06_conf14_gfn1.xyz --opt --vfukui --chrg 0 --uhf 0 --alpb DMSO

   ID    Z sym.   atoms
    1    6 C      1, 3, 5, 7-10, 12, 14, 16, 17, 20, 22, 24
    2    8 O      2, 4, 13, 15, 23, 25
    3    7 N      6, 11, 18, 19, 21
    4    1 H      26-42

      * Solvation model:               ALPB
        Solvent                        DMSO
        Solvent mass                       7.8130E+01 g/mol
          :  Hamiltonian                  GFN1-xTB          :
 * total energy  :   -82.9558670 Eh     change       -0.9569021E-09 Eh
 * total energy  :   -82.9702518 Eh     change       -0.1438485E-01 Eh
 * total energy  :   -82.9767740 Eh     change       -0.6522172E-02 Eh
 * total energy  :   -82.9781219 Eh     change       -0.1347853E-02 Eh
 * total energy  :   -82.9792727 Eh     change       -0.1150798E-02 Eh
 * total energy  :   -82.9798064 Eh     change       -0.5336993E-03 Eh
 * total energy  :   -82.9802477 Eh     change       -0.4413432E-03 Eh
 * total energy  :   -82.9805727 Eh     change       -0.3250284E-03 Eh
 * total energy  :   -82.9807737 Eh     change       -0.2009903E-03 Eh
 * total energy  :   -82.9809095 Eh     change       -0.1357785E-03 Eh
 * total energy  :   -82.9816804 Eh     change       -0.9478445E-05 Eh
 * total energy  :   -82.9816944 Eh     change       -0.1400591E-04 Eh
 * total energy  :   -82.9817021 Eh     change       -0.7617870E-05 Eh
 * total energy  :   -82.9817092 Eh     change       -0.7153631E-05 Eh
 * total energy  :   -82.9817172 Eh     change       -0.7983350E-05 Eh
 * total energy  :   -82.9817241 Eh     change       -0.6890400E-05 Eh
 * total energy  :   -82.9817305 Eh     change       -0.6430880E-05 Eh
 * total energy  :   -82.9817337 Eh     change       -0.3141885E-05 Eh
 * total energy  :   -82.9817384 Eh     change       -0.4766680E-05 Eh
   *** GEOMETRY OPTIMIZATION CONVERGED AFTER 34 ITERATIONS ***

 final structure:
================
42
 xtb: 6.5.1 (579679a)
C            5.99029090438856        0.83930447097677        2.02607632354166
O            4.79928300768898        0.61771809367421        1.28076497575105
C            4.73754393239063        1.23789608015118        0.06628199178063
O            5.66175249181430        1.93101499549914       -0.32307321431344
C            3.49273292897788        0.95927859933954       -0.63808854397373
N            2.59838490399759        0.15704222680251        0.03939383991997
C            1.47469669442447       -0.15679882347036       -0.48800687003088
C            0.51685034353008       -1.07379230428092        0.23961422070353
C            0.89075980230572       -1.15673943208594        1.72120936949591
C            0.53650381375872       -2.45808134103014       -0.42301897199360
N           -0.83756919354010       -0.48890718695199        0.11498660109724
C           -1.93568382377804       -1.08527921975421        0.57705161784204
O           -2.02506242909063       -2.16020355193852        1.14341032113477
C           -3.17526427592163       -0.27826817016368        0.33142832321550
O           -3.19282484284558        0.90945157500475       -0.25930680216735
C           -4.48050374523997        1.30004795904314       -0.27186174948966
C           -4.86873587208086        2.59213981631864       -0.86205564473363
N           -5.24589495523965        0.40737327889708        0.28436381940443
N           -4.41342012625850       -0.58060107690326        0.66340459327595
C           -4.94537165695352       -1.76352240257352        1.30598399175525
N            1.11242197481326        0.26611574568786       -1.75191831871637
C            1.89800381259062        1.08002917431017       -2.53616718943682
O            1.49885110795031        1.42463518045477       -3.64226154205282
C            3.23006980020029        1.47891656416652       -1.93636334302082
O            3.98606829396098        2.20721291527741       -2.59739213623658
H            5.89416792843527        0.27422685354958        2.95211191806591
H            6.11245277060414        1.90333129739440        2.25241277935521
H            6.86628939825903        0.49193784422680        1.46862759713962
H            0.79975511550857       -0.17424959059080        2.18178822455154
H            0.23901850942881       -1.85733770911323        2.23814425125121
H            1.92388607661837       -1.49181960124906        1.80761061384880
H           -0.09327595472876       -3.15635183022247        0.12374111229854
H            1.55895448915850       -2.83436785239056       -0.42834653920957
H            0.17842716586110       -2.38507788214294       -1.44817898271659
H           -0.92672713377228        0.43010239782299       -0.28879190116405
H           -5.94575881986662        2.72120641660061       -0.79128515185442
H           -4.55688864921631        2.62700099037016       -1.90656706089633
H           -4.36298238452598        3.40255553126242       -0.33542941130832
H           -4.23404588549361       -2.10855200636395        2.05364373416625
H           -5.08641090551290       -2.53685695899367        0.55116485241528
H           -5.89816765375254       -1.50081386585403        1.75806522170699
H            0.22742304114955       -0.01091820075052       -2.13739792040339

          :  Hamiltonian                  GFN1-xTB          :
         :: total energy             -82.981738420114 Eh    ::
         :: gradient norm              0.000842592207 Eh/a0 ::
         :: HOMO-LUMO gap              0.184206093285 eV    ::
         :: SCC energy               -83.770244098602 Eh    ::
         :: -> Gsolv                  -0.115334582135 Eh    ::
         :: repulsion energy           0.813640409271 Eh    ::

    * Orbital Energies and Occupations

         #    Occupation            Energy/Eh            Energy/eV
      -------------------------------------------------------------
         1        2.0000           -0.9288554             -25.2754
       ...           ...                  ...                  ...
        55        2.0000           -0.5094409             -13.8626
        56        2.0000           -0.5052942             -13.7498
        57        2.0000           -0.5013329             -13.6420
        58        2.0000           -0.4914813             -13.3739
        59        2.0000           -0.4851718             -13.2022
        60        2.0000           -0.4714895             -12.8299
        61        2.0000           -0.4696159             -12.7789
        62        2.0000           -0.4648597             -12.6495
        63        2.0000           -0.4496083             -12.2345
        64        2.0000           -0.4438347             -12.0774
        65        2.0000           -0.4270729             -11.6212
        66        2.0000           -0.3861027             -10.5064
        67        1.9448           -0.3743957             -10.1878 (HOMO)
        68        0.0552           -0.3676262             -10.0036 (LUMO)
        69                         -0.3165257              -8.6131
        70                         -0.2776696              -7.5558
        71                         -0.2507646              -6.8237
        72                         -0.2454863              -6.6800
        73                         -0.2037355              -5.5439
        74                         -0.1658604              -4.5133
        75                         -0.1632818              -4.4431
        76                         -0.1276041              -3.4723
        77                         -0.1255447              -3.4162
        78                         -0.1242691              -3.3815
       ...                                ...                  ...
       134                          0.7645562              20.8046
      -------------------------------------------------------------
                  HL-Gap            0.0067694 Eh            0.1842 eV

Wiberg/Mayer (AO) data.
largest (>0.10) Wiberg bond orders for each atom

     #   Z sym  total        # sym  WBO       # sym  WBO       # sym  WBO
 ---------------------------------------------------------------------------
     1   6 C    3.896 --    26 H    0.987    27 H    0.980    28 H    0.980
                             2 O    0.923
     2   8 O    2.142 --     3 C    1.035     1 C    0.923     4 O    0.112
     3   6 C    3.848 --     4 O    1.603     5 C    1.104     2 O    1.035
     4   8 O    1.872 --     3 C    1.603     2 O    0.112
     5   6 C    3.885 --    24 C    1.254     6 N    1.167     3 C    1.104
                            25 O    0.122
     6   7 N    3.029 --     7 C    1.623     5 C    1.167
     7   6 C    3.918 --     6 N    1.623    21 N    1.094     8 C    0.980
     8   6 C    3.910 --     9 C    0.991    10 C    0.981     7 C    0.980
                            11 N    0.892
     9   6 C    3.987 --     8 C    0.991    29 H    0.985    30 H    0.984
                            31 H    0.981
    10   6 C    3.985 --    34 H    0.985    33 H    0.984     8 C    0.981
                            32 H    0.980
    11   7 N    3.391 --    12 C    1.314     8 C    0.892    35 H    0.888
                            13 O    0.199
    12   6 C    3.920 --    13 O    1.568    11 N    1.314    14 C    0.964
    13   8 O    1.922 --    12 C    1.568    11 N    0.199
    14   6 C    3.802 --    19 N    1.430    15 O    1.116    12 C    0.964
    15   8 O    2.355 --    14 C    1.116    16 C    1.066
    16   6 C    3.839 --    18 N    1.581    15 O    1.066    17 C    1.042
    17   6 C    3.971 --    16 C    1.042    36 H    0.978    37 H    0.951
                            38 H    0.950
    18   7 N    2.962 --    16 C    1.581    19 N    1.151
    19   7 N    3.625 --    14 C    1.430    18 N    1.151    20 C    0.911
    20   6 C    3.883 --    41 H    0.978    39 H    0.969    40 H    0.960
                            19 N    0.911
    21   7 N    3.415 --    22 C    1.146     7 C    1.094    42 H    0.896
                            23 O    0.133
    22   6 C    3.870 --    23 O    1.595    21 N    1.146    24 C    0.963
    23   8 O    1.867 --    22 C    1.595    21 N    0.133
    24   6 C    3.934 --    25 O    1.540     5 C    1.254    22 C    0.963
    25   8 O    1.827 --    24 C    1.540     5 C    0.122
    26   1 H    1.015 --     1 C    0.987
    27   1 H    1.012 --     1 C    0.980
    28   1 H    1.013 --     1 C    0.980
    29   1 H    1.005 --     9 C    0.985
    30   1 H    1.006 --     9 C    0.984
    31   1 H    1.013 --     9 C    0.981
    32   1 H    1.007 --    10 C    0.980
    33   1 H    1.002 --    10 C    0.984
    34   1 H    1.001 --    10 C    0.985
    35   1 H    0.931 --    11 N    0.888
    36   1 H    0.991 --    17 C    0.978
    37   1 H    0.989 --    17 C    0.951
    38   1 H    0.989 --    17 C    0.950
    39   1 H    1.004 --    20 C    0.969
    40   1 H    0.991 --    20 C    0.960
    41   1 H    0.995 --    20 C    0.978
    42   1 H    0.942 --    21 N    0.896
 ---------------------------------------------------------------------------

           -------------------------------------------------
          | TOTAL ENERGY              -82.981738420114 Eh   |
          | GRADIENT NORM               0.000842592207 Eh/α |
          | HOMO-LUMO GAP               0.184206093285 eV   |
           -------------------------------------------------

 * finished run on 2023/06/21 at 17:36:26.725
