   * xtb version 6.5.1 (579679a) compiled by 'ehlert@majestix' on 2022-07-11
          program call               : /lustre/hpc/kemi/ree/PhD/git/ReactivityQM/dep/xtb-6.5.1/bin/xtb --gfn 1 /lustre/hpc/kemi/ree/PhD/git/ReactivityQM/calculations/R03/reac02prodE10/conf09/R03_reac02prodE10_conf09_gfn1.xyz --opt --vfukui --chrg -1 --uhf 0 --alpb DMSO

   ID    Z sym.   atoms
    1    6 C      1, 3, 5, 7-10, 12, 14, 17-19, 22, 23, 25
    2    8 O      2, 4, 13, 20, 24, 26
    3    7 N      6, 11, 15, 16, 21
    4    1 H      27-46

      * Solvation model:               ALPB
        Solvent                        DMSO
        Solvent mass                       7.8130E+01 g/mol
          :  Hamiltonian                  GFN1-xTB          :
 * total energy  :   -86.9911373 Eh     change       -0.6536993E-11 Eh
 * total energy  :   -87.0031418 Eh     change       -0.1200443E-01 Eh
 * total energy  :   -87.0075285 Eh     change       -0.4386704E-02 Eh
 * total energy  :   -87.0080691 Eh     change       -0.5406912E-03 Eh
 * total energy  :   -87.0086051 Eh     change       -0.5359115E-03 Eh
 * total energy  :   -87.0087766 Eh     change       -0.1715773E-03 Eh
 * total energy  :   -87.0089396 Eh     change       -0.1629143E-03 Eh
 * total energy  :   -87.0090149 Eh     change       -0.7537349E-04 Eh
 * total energy  :   -87.0090634 Eh     change       -0.4843196E-04 Eh
 * total energy  :   -87.0090932 Eh     change       -0.2982361E-04 Eh
 * total energy  :   -87.0091132 Eh     change       -0.2001833E-04 Eh
 * total energy  :   -87.0091263 Eh     change       -0.1306358E-04 Eh
 * total energy  :   -87.0091378 Eh     change       -0.1156458E-04 Eh
 * total energy  :   -87.0091454 Eh     change       -0.7595910E-05 Eh
 * total energy  :   -87.0091537 Eh     change       -0.8299972E-05 Eh
 * total energy  :   -87.0091571 Eh     change       -0.3360682E-05 Eh
 * total energy  :   -87.0091608 Eh     change       -0.3728162E-05 Eh
   *** GEOMETRY OPTIMIZATION CONVERGED AFTER 17 ITERATIONS ***

 final structure:
================
46
 xtb: 6.5.1 (579679a)
C           -5.08363261149588       -1.80074993434876        3.12972574604571
O           -4.16968861414890       -1.35690032038831        2.13729709233736
C           -4.45602033864697       -0.14309114154686        1.57840206360504
O           -5.45854147565506        0.49840361328981        1.93888953633208
C           -3.52631320270148        0.29298793403557        0.57772501859674
N           -2.45689442859146       -0.51969709887694        0.27051429036185
C           -1.59011037387041       -0.17376659887589       -0.62247634937455
C           -0.48809603237754       -1.19687614160041       -0.91356012061462
C           -0.73946636236338       -1.80076754075858       -2.30616282781746
C           -0.55931185918336       -2.31422642163506        0.14374006697133
N            0.81053844994251       -0.51977956545253       -0.84442732465363
C            2.00912162810365       -1.28975617943087       -0.96976452458175
O            2.03378993782911       -2.40798857919433       -1.54920903209402
C            3.13329330070611       -0.64203849950965       -0.46108345695324
N            4.44031945107004       -1.08177719419554       -0.44157956338284
N            5.09541841880565       -0.11317371206121        0.19450120396815
C            6.52057222904532       -0.23423025262875        0.39200218250645
C            4.32360469812782        0.88299686453594        0.56750339747628
C            4.70611621241384        2.11534233079101        1.29474769027670
O            3.05115554346720        0.63066477873967        0.19058571908410
N           -1.68918862566366        1.01514969014370       -1.30990749175084
C           -0.76199132432860        1.46918113276423       -2.34352333485093
C           -2.76990286922843        1.91547294000855       -1.10216061888156
O           -2.82290097685360        2.95255313005407       -1.78647803769301
C           -3.69413581872747        1.51128410428044       -0.10309212129946
O           -4.74999721167515        2.33676838210269        0.15451699150378
H           -5.11905534989546       -1.09669374172589        3.96742667086904
H           -6.09092609306377       -1.90220727641651        2.71261278444747
H           -4.73066682518841       -2.77065204720788        3.47915391191986
H           -0.54665118913989       -1.07305635694612       -3.09154308536120
H           -1.77823760175729       -2.12404561496625       -2.37527940455885
H           -0.09394407578299       -2.66209688254594       -2.46871632364460
H           -0.41777160982579       -1.89677119973550        1.14007272380161
H            0.21653205346606       -3.05405941977582       -0.04692609472963
H           -1.53167216521435       -2.80380348235930        0.10566758359656
H            0.86080407186001        0.10594206564723       -0.04862728212455
H            6.76205201865317       -0.03153501723495        1.43359289784773
H            7.04031428097335        0.48037205505546       -0.24548242861810
H            6.81305293217476       -1.24790138053605        0.12830280568755
H            3.84794111095471        2.78220052301751        1.34526627755518
H            5.52701892793029        2.62225789144409        0.78684839754556
H            5.03366084875017        1.88225268584936        2.30965222802994
H           -1.23223374757410        1.37804679764761       -3.32564397592776
H            0.16033226100621        0.89728313779897       -2.31858718414803
H           -0.53190464008159        2.52172169035390       -2.16676569503544
H           -5.29638795224599        1.91858085239025        0.86224899773042

          :  Hamiltonian                  GFN1-xTB          :
         :: total energy             -87.009160811045 Eh    ::
         :: gradient norm              0.000582845738 Eh/a0 ::
         :: HOMO-LUMO gap              0.037117242946 eV    ::
         :: SCC energy               -87.796254341181 Eh    ::
         :: -> Gsolv                  -0.124360692708 Eh    ::
         :: repulsion energy           0.815512284677 Eh    ::

    * Orbital Energies and Occupations

         #    Occupation            Energy/Eh            Energy/eV
      -------------------------------------------------------------
         1        2.0000           -0.8392279             -22.8366
       ...           ...                  ...                  ...
        59        2.0000           -0.4714895             -12.8299
        60        2.0000           -0.4644042             -12.6371
        61        2.0000           -0.4633553             -12.6085
        62        2.0000           -0.4470012             -12.1635
        63        2.0000           -0.4395564             -11.9609
        64        2.0000           -0.4268034             -11.6139
        65        2.0000           -0.4191080             -11.4045
        66        2.0000           -0.4137510             -11.2587
        67        2.0000           -0.4043337             -11.0025
        68        2.0000           -0.4002876             -10.8924
        69        2.0000           -0.3882450             -10.5647
        70        2.0000           -0.3808556             -10.3636
        71        1.3443           -0.2904691              -7.9041 (HOMO)
        72        0.6557           -0.2891050              -7.8669 (LUMO)
        73                         -0.2606409              -7.0924
        74                         -0.2375538              -6.4642
        75                         -0.1950260              -5.3069
        76                         -0.1534851              -4.1765
        77                         -0.1470236              -4.0007
        78                         -0.1387870              -3.7766
        79                         -0.1201802              -3.2703
        80                         -0.1159665              -3.1556
        81                         -0.1101669              -2.9978
        82                         -0.1000525              -2.7226
       ...                                ...                  ...
       144                          0.6979683              18.9927
      -------------------------------------------------------------
                  HL-Gap            0.0013640 Eh            0.0371 eV

Wiberg/Mayer (AO) data.
largest (>0.10) Wiberg bond orders for each atom

     #   Z sym  total        # sym  WBO       # sym  WBO       # sym  WBO
 ---------------------------------------------------------------------------
     1   6 C    3.898 --    29 H    0.987    28 H    0.980    27 H    0.980
                             2 O    0.926
     2   8 O    2.111 --     3 C    1.024     1 C    0.926
     3   6 C    3.727 --     4 O    1.477     5 C    1.157     2 O    1.024
     4   8 O    1.786 --     3 C    1.477
     5   6 C    3.829 --    25 C    1.298     3 C    1.157     6 N    1.149
     6   7 N    3.004 --     7 C    1.592     5 C    1.149
     7   6 C    3.909 --     6 N    1.592    21 N    1.151     8 C    0.971
     8   6 C    3.956 --    10 C    0.990     9 C    0.985     7 C    0.971
                            11 N    0.952
     9   6 C    3.992 --    31 H    0.988     8 C    0.985    30 H    0.983
                            32 H    0.978
    10   6 C    3.993 --     8 C    0.990    33 H    0.986    35 H    0.986
                            34 H    0.982
    11   7 N    3.111 --    12 C    1.007     8 C    0.952    36 H    0.926
    12   6 C    3.806 --    13 O    1.391    14 C    1.307    11 N    1.007
    13   8 O    1.653 --    12 C    1.391
    14   6 C    3.563 --    12 C    1.307    15 N    1.197    20 O    0.879
    15   7 N    2.690 --    14 C    1.197    16 N    1.172    18 C    0.203
    16   7 N    3.638 --    18 C    1.397    15 N    1.172    17 C    0.940
    17   6 C    3.937 --    39 H    0.983    37 H    0.981    38 H    0.977
                            16 N    0.940
    18   6 C    3.772 --    16 N    1.397    20 O    1.064    19 C    1.029
                            15 N    0.203
    19   6 C    3.987 --    18 C    1.029    40 H    0.980    41 H    0.969
                            42 H    0.964
    20   8 O    2.111 --    18 C    1.064    14 C    0.879
    21   7 N    3.364 --     7 C    1.151    23 C    1.027    22 C    0.945
                            24 O    0.103
    22   6 C    3.942 --    43 H    0.980    45 H    0.978    44 H    0.973
                            21 N    0.945
    23   6 C    3.833 --    24 O    1.477    25 C    1.206    21 N    1.027
    24   8 O    1.751 --    23 C    1.477    21 N    0.103
    25   6 C    3.735 --     5 C    1.298    23 C    1.206    26 O    1.050
    26   8 O    1.981 --    25 C    1.050    46 H    0.794
    27   1 H    1.013 --     1 C    0.980
    28   1 H    1.013 --     1 C    0.980
    29   1 H    1.016 --     1 C    0.987
    30   1 H    1.007 --     9 C    0.983
    31   1 H    1.007 --     9 C    0.988
    32   1 H    1.025 --     9 C    0.978
    33   1 H    1.014 --    10 C    0.986
    34   1 H    1.016 --    10 C    0.982
    35   1 H    1.019 --    10 C    0.986
    36   1 H    0.967 --    11 N    0.926
    37   1 H    0.999 --    17 C    0.981
    38   1 H    0.999 --    17 C    0.977
    39   1 H    1.006 --    17 C    0.983
    40   1 H    0.997 --    19 C    0.980
    41   1 H    0.996 --    19 C    0.969
    42   1 H    0.995 --    19 C    0.964
    43   1 H    1.007 --    22 C    0.980
    44   1 H    1.026 --    22 C    0.973
    45   1 H    1.014 --    22 C    0.978
    46   1 H    0.880 --    26 O    0.794
 ---------------------------------------------------------------------------

           -------------------------------------------------
          | TOTAL ENERGY              -87.009160811045 Eh   |
          | GRADIENT NORM               0.000582845738 Eh/α |
          | HOMO-LUMO GAP               0.037117242946 eV   |
           -------------------------------------------------

 * finished run on 2023/06/20 at 15:30:03.891
