   * xtb version 6.5.1 (579679a) compiled by 'ehlert@majestix' on 2022-07-11
          program call               : /lustre/hpc/kemi/ree/PhD/git/ReactivityQM/dep/xtb-6.5.1/bin/xtb --gfn 1 /lustre/hpc/kemi/ree/PhD/git/ReactivityQM/calculations/R02oxygendeprot/reac01prodN05/conf11/R02oxygendeprot_reac01prodN05_conf11_gfn1.xyz --opt --vfukui --chrg 0 --uhf 0 --alpb DMSO

   ID    Z sym.   atoms
    1    6 C      1, 3, 5, 6, 8, 11-14, 16, 18, 21, 22, 25
    2    8 O      2, 4, 7, 9, 17, 23
    3    7 N      10, 15, 19, 20, 24
    4    1 H      26-42

      * Solvation model:               ALPB
        Solvent                        DMSO
        Solvent mass                       7.8130E+01 g/mol
          :  Hamiltonian                  GFN1-xTB          :
 * total energy  :   -82.9722376 Eh     change       -0.6323830E-11 Eh
 * total energy  :   -82.9830174 Eh     change       -0.1077979E-01 Eh
 * total energy  :   -82.9870211 Eh     change       -0.4003677E-02 Eh
 * total energy  :   -82.9878397 Eh     change       -0.8186265E-03 Eh
 * total energy  :   -82.9883859 Eh     change       -0.5462307E-03 Eh
 * total energy  :   -82.9887967 Eh     change       -0.4107643E-03 Eh
 * total energy  :   -82.9891783 Eh     change       -0.3815858E-03 Eh
 * total energy  :   -82.9894680 Eh     change       -0.2897805E-03 Eh
 * total energy  :   -82.9896665 Eh     change       -0.1984593E-03 Eh
 * total energy  :   -82.9898259 Eh     change       -0.1594157E-03 Eh
 * total energy  :   -82.9908850 Eh     change       -0.1518153E-04 Eh
 * total energy  :   -82.9908910 Eh     change       -0.6063799E-05 Eh
 * total energy  :   -82.9909003 Eh     change       -0.9226745E-05 Eh
 * total energy  :   -82.9909114 Eh     change       -0.1109663E-04 Eh
 * total energy  :   -82.9909174 Eh     change       -0.6005780E-05 Eh
 * total energy  :   -82.9909304 Eh     change       -0.1307398E-04 Eh
 * total energy  :   -82.9909358 Eh     change       -0.5312770E-05 Eh
 * total energy  :   -82.9909408 Eh     change       -0.5005066E-05 Eh
 * total energy  :   -82.9909439 Eh     change       -0.3145502E-05 Eh
   *** GEOMETRY OPTIMIZATION CONVERGED AFTER 40 ITERATIONS ***

 final structure:
================
42
 xtb: 6.5.1 (579679a)
C           -3.03956122910451        2.35754404746021        2.54574336993489
O           -2.50023102668960        1.33831583411400        1.69833008298697
C           -3.37861625778075        0.40174772911390        1.27470703920501
O           -4.54422255225188        0.43564904148286        1.60078059732482
C           -2.76592187110106       -0.67219042849653        0.47542358673788
C           -3.36202109798871       -1.96310090677195        0.54139782004331
O           -4.43931336054097       -2.23237046163564        1.07187814999895
C           -2.54614676325454       -3.08180389095887       -0.05429356855009
O           -2.87911379089653       -4.24710945277011       -0.11035374979716
N           -1.29502062592388       -2.70843209591694       -0.52897212572048
C           -0.82049130099841       -1.44909823111828       -0.66574028449004
C            0.50781677256008       -1.31416700899002       -1.40553133606879
C            1.38967595309197       -2.55728370235422       -1.19444621762264
C            0.21500356427394       -1.14081060905537       -2.90389417195630
N            1.24719221340396       -0.18919181050617       -0.82634175530556
C            2.23121408119999        0.49147754724011       -1.47533702020766
O            2.44425221283479        0.47280745957034       -2.67162755764841
C            3.03149301532424        1.32963549168796       -0.55106001950299
N            4.02416163123037        2.10657491212808       -0.85513240633962
N            4.47479193333032        2.64441704183285        0.31071873705853
C            3.73155157545296        2.16235798762440        1.25810749865007
C            3.82817706908852        2.43327087635968        2.70841160604967
O            2.79640857326154        1.32364851791181        0.77992766287816
N           -1.56637575351262       -0.45805461155804       -0.22213048596631
C           -1.22912481345133        0.93019693330200       -0.56517303561965
H           -3.39381081179197        1.91951210637931        3.48263439802599
H           -2.23107888475735        3.05837283784920        2.74014889179271
H           -3.86786397153533        2.86622260253910        2.04584217097320
H           -0.74031564480297       -3.47649867073272       -0.87353213849052
H            1.46136498767231       -2.80261363071144       -0.13675087639874
H            1.00672448790972       -3.41386533630236       -1.74553545918089
H            2.38734170535110       -2.33402462957927       -1.56914507478323
H           -0.54714560828096       -1.86206519162831       -3.19595512674644
H           -0.14039675189052       -0.13791949160717       -3.12867168055432
H            1.11513486326086       -1.33051132044400       -3.48434218118411
H            1.31188292514150       -0.20592902787549        0.18038426495644
H            2.90562948453158        2.89039219600738        3.06567285474140
H            3.97228649765373        1.49911626541766        3.25133834933622
H            4.66380081271898        3.10295528492375        2.90023355496690
H           -2.14903218899200        1.50346204068052       -0.64244179924738
H           -0.72177341859608        0.95338921451522       -1.52288500537055
H           -0.58832363515565        1.35597354086145        0.20285844107233

          :  Hamiltonian                  GFN1-xTB          :
         :: total energy             -82.990943909512 Eh    ::
         :: gradient norm              0.000594034524 Eh/a0 ::
         :: HOMO-LUMO gap              2.485485104326 eV    ::
         :: SCC energy               -83.772676450331 Eh    ::
         :: -> Gsolv                  -0.079132879813 Eh    ::
         :: repulsion energy           0.808992842413 Eh    ::

    * Orbital Energies and Occupations

         #    Occupation            Energy/Eh            Energy/eV
      -------------------------------------------------------------
         1        2.0000           -0.8696464             -23.6643
       ...           ...                  ...                  ...
        55        2.0000           -0.5098664             -13.8742
        56        2.0000           -0.5092415             -13.8572
        57        2.0000           -0.4925241             -13.4023
        58        2.0000           -0.4920851             -13.3903
        59        2.0000           -0.4894046             -13.3174
        60        2.0000           -0.4841954             -13.1756
        61        2.0000           -0.4754197             -12.9368
        62        2.0000           -0.4734080             -12.8821
        63        2.0000           -0.4663388             -12.6897
        64        2.0000           -0.4569173             -12.4334
        65        2.0000           -0.4545260             -12.3683
        66        2.0000           -0.4234691             -11.5232
        67        2.0000           -0.4131846             -11.2433 (HOMO)
        68                         -0.3218447              -8.7578 (LUMO)
        69                         -0.3183458              -8.6626
        70                         -0.3030702              -8.2470
        71                         -0.2602421              -7.0815
        72                         -0.2387407              -6.4965
        73                         -0.2061583              -5.6099
        74                         -0.1689360              -4.5970
        75                         -0.1485911              -4.0434
        76                         -0.1435915              -3.9073
        77                         -0.1407168              -3.8291
        78                         -0.1344839              -3.6595
       ...                                ...                  ...
       134                          0.7579630              20.6252
      -------------------------------------------------------------
                  HL-Gap            0.0913399 Eh            2.4855 eV

Wiberg/Mayer (AO) data.
largest (>0.10) Wiberg bond orders for each atom

     #   Z sym  total        # sym  WBO       # sym  WBO       # sym  WBO
 ---------------------------------------------------------------------------
     1   6 C    3.872 --    27 H    0.986    28 H    0.980    26 H    0.980
                             2 O    0.898
     2   8 O    2.170 --     3 C    1.059     1 C    0.898     4 O    0.121
     3   6 C    3.863 --     4 O    1.643     5 C    1.068     2 O    1.059
     4   8 O    1.921 --     3 C    1.643     2 O    0.121
     5   6 C    3.852 --     6 C    1.256     3 C    1.068    24 N    1.061
                             7 O    0.141
     6   6 C    3.945 --     7 O    1.574     5 C    1.256     8 C    0.954
     7   8 O    1.884 --     6 C    1.574     5 C    0.141
     8   6 C    3.866 --     9 O    1.660    10 N    1.086     6 C    0.954
     9   8 O    1.936 --     8 C    1.660    10 N    0.117
    10   7 N    3.452 --    11 C    1.207     8 C    1.086    29 H    0.878
                             9 O    0.117
    11   6 C    3.914 --    24 N    1.428    10 N    1.207    12 C    0.977
    12   6 C    3.934 --    13 C    0.984    14 C    0.977    11 C    0.977
                            15 N    0.934
    13   6 C    3.985 --    12 C    0.984    30 H    0.983    32 H    0.979
                            31 H    0.977
    14   6 C    3.981 --    33 H    0.984    12 C    0.977    34 H    0.976
                            35 H    0.976
    15   7 N    3.316 --    16 C    1.214    12 C    0.934    36 H    0.895
                            17 O    0.166
    16   6 C    3.911 --    17 O    1.612    15 N    1.214    18 C    0.997
    17   8 O    1.922 --    16 C    1.612    15 N    0.166
    18   6 C    3.874 --    19 N    1.620    23 O    1.046    16 C    0.997
    19   7 N    3.003 --    18 C    1.620    20 N    1.203
    20   7 N    2.983 --    21 C    1.607    19 N    1.203
    21   6 C    3.867 --    20 N    1.607    23 O    1.071    22 C    1.033
    22   6 C    3.986 --    21 C    1.033    39 H    0.982    38 H    0.963
                            37 H    0.962
    23   8 O    2.316 --    21 C    1.071    18 C    1.046
    24   7 N    3.588 --    11 C    1.428     5 C    1.061    25 C    0.918
    25   6 C    3.913 --    40 H    0.978    41 H    0.976    42 H    0.972
                            24 N    0.918
    26   1 H    1.008 --     1 C    0.980
    27   1 H    1.011 --     1 C    0.986
    28   1 H    1.009 --     1 C    0.980
    29   1 H    0.932 --    10 N    0.878
    30   1 H    0.996 --    13 C    0.983
    31   1 H    0.996 --    13 C    0.977
    32   1 H    0.997 --    13 C    0.979
    33   1 H    1.000 --    14 C    0.984
    34   1 H    1.004 --    14 C    0.976
    35   1 H    1.009 --    14 C    0.976
    36   1 H    0.938 --    15 N    0.895
    37   1 H    0.996 --    22 C    0.962
    38   1 H    0.996 --    22 C    0.963
    39   1 H    0.998 --    22 C    0.982
    40   1 H    1.003 --    25 C    0.978
    41   1 H    1.008 --    25 C    0.976
    42   1 H    1.012 --    25 C    0.972
 ---------------------------------------------------------------------------

           -------------------------------------------------
          | TOTAL ENERGY              -82.990943909512 Eh   |
          | GRADIENT NORM               0.000594034524 Eh/α |
          | HOMO-LUMO GAP               2.485485104326 eV   |
           -------------------------------------------------

 * finished run on 2023/06/21 at 17:21:04.341
