   * xtb version 6.5.1 (579679a) compiled by 'ehlert@majestix' on 2022-07-11
          program call               : /lustre/hpc/kemi/ree/PhD/git/ReactivityQM/dep/xtb-6.5.1/bin/xtb --gfn 1 /lustre/hpc/kemi/ree/PhD/git/ReactivityQM/calculations/RaltegravirCLI/reac01prodN08/conf02/RaltegravirCLI_reac01prodN08_conf02_gfn1.xyz --opt --vfukui --chrg 1 --uhf 0 --alpb DMSO

   ID    Z sym.   atoms
    1    6 C      1, 3, 5, 8, 9
    2   17 Cl     2
    3    8 O      4, 10
    4    7 N      6, 7
    5    1 H      11-16

      * Solvation model:               ALPB
        Solvent                        DMSO
        Solvent mass                       7.8130E+01 g/mol
          :  Hamiltonian                  GFN1-xTB          :
 * total energy  :   -33.3905652 Eh     change       -0.9329426E-11 Eh
 * total energy  :   -33.3947886 Eh     change       -0.4223450E-02 Eh
 * total energy  :   -33.3964608 Eh     change       -0.1672211E-02 Eh
 * total energy  :   -33.3972764 Eh     change       -0.8155823E-03 Eh
 * total energy  :   -33.3978643 Eh     change       -0.5878478E-03 Eh
 * total energy  :   -33.3982846 Eh     change       -0.4203254E-03 Eh
 * total energy  :   -33.3985148 Eh     change       -0.2302355E-03 Eh
 * total energy  :   -33.3986109 Eh     change       -0.9603044E-04 Eh
 * total energy  :   -33.3986499 Eh     change       -0.3905214E-04 Eh
 * total energy  :   -33.3986651 Eh     change       -0.1521663E-04 Eh
 * total energy  :   -33.3986719 Eh     change       -0.6806337E-05 Eh
 * total energy  :   -33.3986751 Eh     change       -0.3160927E-05 Eh
   *** GEOMETRY OPTIMIZATION CONVERGED AFTER 12 ITERATIONS ***

 final structure:
================
16
 xtb: 6.5.1 (579679a)
C           -3.65279532104559        0.09188050845058        0.44182642970909
Cl          -1.90941963173432        0.39570511064728        0.67761347895799
C           -1.13532773257713       -0.72484522856924       -0.55950425323530
O           -1.84516506799298       -1.38433324243111       -1.23282643317145
C            0.28508067278498       -0.60708822027401       -0.50029481416219
N            1.17549357816860       -1.25568022069013       -1.21483600633716
N            2.37223126878072       -0.83258907276739       -0.81920283231204
C            2.18121402188894        0.06310443698128        0.12520957929770
C            3.20283193388306        0.82657472556212        0.86153034286427
O            0.88443060601667        0.24091907044089        0.36424652680991
H           -3.78561592221240       -0.44304921983604       -0.49742152597473
H           -4.01406101148798       -0.50296540462292        1.27593034567503
H           -4.14446513582563        1.05928900148338        0.40654345085175
H            3.54332179073024        1.66292454312942        0.24677789408018
H            4.06110022248374        0.19066572021546        1.07451644439061
H            2.78114672813855        1.21948849228027        1.78351937255661

          :  Hamiltonian                  GFN1-xTB          :
         :: total energy             -33.398675107402 Eh    ::
         :: gradient norm              0.000908370894 Eh/a0 ::
         :: HOMO-LUMO gap              2.754355225265 eV    ::
         :: SCC energy               -33.693225078650 Eh    ::
         :: -> Gsolv                  -0.088043164173 Eh    ::
         :: repulsion energy           0.301334459714 Eh    ::

    * Orbital Energies and Occupations

         #    Occupation            Energy/Eh            Energy/eV
      -------------------------------------------------------------
         1        2.0000           -1.0682593             -29.0688
       ...           ...                  ...                  ...
        15        2.0000           -0.6278396             -17.0844
        16        2.0000           -0.6107534             -16.6194
        17        2.0000           -0.6049072             -16.4604
        18        2.0000           -0.5839724             -15.8907
        19        2.0000           -0.5770998             -15.7037
        20        2.0000           -0.5726966             -15.5839
        21        2.0000           -0.5591488             -15.2152
        22        2.0000           -0.5555865             -15.1183
        23        2.0000           -0.5497670             -14.9599
        24        2.0000           -0.5440227             -14.8036
        25        2.0000           -0.5264470             -14.3254
        26        2.0000           -0.5001557             -13.6099
        27        2.0000           -0.4959525             -13.4956 (HOMO)
        28                         -0.3947318             -10.7412 (LUMO)
        29                         -0.3165953              -8.6150
        30                         -0.3003857              -8.1739
        31                         -0.2978327              -8.1044
        32                         -0.2714197              -7.3857
        33                         -0.1860116              -5.0616
        34                         -0.1807011              -4.9171
        35                         -0.1627235              -4.4279
        36                         -0.1597879              -4.3480
        37                         -0.1595893              -4.3426
        38                         -0.1102967              -3.0013
       ...                                ...                  ...
        57                          0.7705547              20.9679
      -------------------------------------------------------------
                  HL-Gap            0.1012207 Eh            2.7544 eV

Wiberg/Mayer (AO) data.
largest (>0.10) Wiberg bond orders for each atom

     #   Z sym  total        # sym  WBO       # sym  WBO       # sym  WBO
 ---------------------------------------------------------------------------
     1   6 C    3.860 --    12 H    0.980    13 H    0.977    11 H    0.968
                             2 Cl   0.912
     2  17 Cl   1.920 --     1 C    0.912     3 C    0.787     4 O    0.146
     3   6 C    3.871 --     4 O    1.835     5 C    1.116     2 Cl   0.787
     4   8 O    2.156 --     3 C    1.835     2 Cl   0.146
     5   6 C    3.883 --     6 N    1.496     3 C    1.116    10 O    1.037
     6   7 N    3.023 --     5 C    1.496     7 N    1.311
     7   7 N    2.997 --     8 C    1.491     6 N    1.311
     8   6 C    3.845 --     7 N    1.491    10 O    1.114     9 C    1.045
     9   6 C    3.974 --     8 C    1.045    16 H    0.974    15 H    0.963
                            14 H    0.939
    10   8 O    2.339 --     8 C    1.114     5 C    1.037
    11   1 H    0.994 --     1 C    0.968
    12   1 H    0.994 --     1 C    0.980
    13   1 H    0.993 --     1 C    0.977
    14   1 H    0.985 --     9 C    0.939
    15   1 H    0.990 --     9 C    0.963
    16   1 H    0.991 --     9 C    0.974
 ---------------------------------------------------------------------------

           -------------------------------------------------
          | TOTAL ENERGY              -33.398675107402 Eh   |
          | GRADIENT NORM               0.000908370894 Eh/α |
          | HOMO-LUMO GAP               2.754355225265 eV   |
           -------------------------------------------------

 * finished run on 2023/06/20 at 14:55:57.692
