                         Program Version 5.0.1 -  RELEASE  -
|  1> # ORCA input file
|  2> ! SP r2SCAN-3c CPCM
|  3>
|  4> %maxcore 1875.0
|  5> %pal nprocs 4 end
|  6> %cpcm smd true SMDsolvent "DMSO" end
|  7>
|  8> *xyz -2 1
|  9> C      -5.527084    0.870787    1.719768
| 10> O      -4.914754    0.303960    0.569983
| 11> C      -3.582744    0.554360    0.411978
| 12> O      -2.981986    1.266759    1.203693
| 13> C      -2.951516   -0.293050   -0.704810
| 14> C      -3.920313   -0.476386   -1.886840
| 15> N      -1.728315    0.333874   -1.169531
| 16> C      -0.604446   -0.070546   -0.623873
| 17> C       0.624541    0.730811   -1.094790
| 18> C       0.829275    0.488737   -2.598271
| 19> C       0.392801    2.223847   -0.821921
| 20> N       1.775422    0.249662   -0.341908
| 21> C       3.040665    0.686038   -0.477244
| 22> O       3.402859    1.589557   -1.244638
| 23> C       3.964332   -0.029775    0.411759
| 24> N       3.652191   -0.975848    1.269720
| 25> N       4.816285   -1.351814    1.880799
| 26> C       5.758848   -0.627015    1.371467
| 27> C       7.201875   -0.663252    1.707108
| 28> O       5.303477    0.232550    0.438234
| 29> N      -0.355385   -1.055427    0.225181
| 30> C      -1.425081   -1.900379    0.552753
| 31> O      -1.233499   -2.963646    1.228212
| 32> C      -2.680123   -1.553751    0.056727
| 33> O      -3.776411   -2.404852    0.321259
| 34> H      -6.587047    0.621393    1.675464
| 35> H      -5.406785    1.959871    1.725600
| 36> H      -5.089894    0.463451    2.638510
| 37> H      -4.196506    0.493896   -2.299347
| 38> H      -3.427503   -1.059174   -2.664641
| 39> H      -4.821486   -0.999393   -1.569830
| 40> H       1.639201    1.104560   -2.988188
| 41> H      -0.092667    0.738853   -3.123743
| 42> H       1.064202   -0.560182   -2.780971
| 43> H       0.313721    2.401741    0.251273
| 44> H      -0.541447    2.525179   -1.296672
| 45> H       1.207079    2.827221   -1.221779
| 46> H       1.565414   -0.534875    0.283657
| 47> H       7.531285    0.311716    2.065495
| 48> H       7.788583   -0.911816    0.823003
| 49> H       7.377899   -1.409350    2.477826
| 50> H      -3.404963   -3.138293    0.841613
| 51> **                         ****END OF INPUT****

CARTESIAN COORDINATES (ANGSTROEM)
---------------------------------
  C     -5.527084    0.870787    1.719768
  O     -4.914754    0.303960    0.569983
  C     -3.582744    0.554360    0.411978
  O     -2.981986    1.266759    1.203693
  C     -2.951516   -0.293050   -0.704810
  C     -3.920313   -0.476386   -1.886840
  N     -1.728315    0.333874   -1.169531
  C     -0.604446   -0.070546   -0.623873
  C      0.624541    0.730811   -1.094790
  C      0.829275    0.488737   -2.598271
  C      0.392801    2.223847   -0.821921
  N      1.775422    0.249662   -0.341908
  C      3.040665    0.686038   -0.477244
  O      3.402859    1.589557   -1.244638
  C      3.964332   -0.029775    0.411759
  N      3.652191   -0.975848    1.269720
  N      4.816285   -1.351814    1.880799
  C      5.758848   -0.627015    1.371467
  C      7.201875   -0.663252    1.707108
  O      5.303477    0.232550    0.438234
  N     -0.355385   -1.055427    0.225181
  C     -1.425081   -1.900379    0.552753
  O     -1.233499   -2.963646    1.228212
  C     -2.680123   -1.553751    0.056727
  O     -3.776411   -2.404852    0.321259
  H     -6.587047    0.621393    1.675464
  H     -5.406785    1.959871    1.725600
  H     -5.089894    0.463451    2.638510
  H     -4.196506    0.493896   -2.299347
  H     -3.427503   -1.059174   -2.664641
  H     -4.821486   -0.999393   -1.569830
  H      1.639201    1.104560   -2.988188
  H     -0.092667    0.738853   -3.123743
  H      1.064202   -0.560182   -2.780971
  H      0.313721    2.401741    0.251273
  H     -0.541447    2.525179   -1.296672
  H      1.207079    2.827221   -1.221779
  H      1.565414   -0.534875    0.283657
  H      7.531285    0.311716    2.065495
  H      7.788583   -0.911816    0.823003
  H      7.377899   -1.409350    2.477826
  H     -3.404963   -3.138293    0.841613

 Total Charge           Charge          ....   -2
 Multiplicity           Mult            ....    1
 Number of Electrons    NEL             ....  186
 Basis Dimension        Dim             ....  615

ORBITAL ENERGIES
----------------

  NO   OCC          E(Eh)            E(eV)
   0   2.0000     -19.048745      -518.3427
   1   2.0000     -18.964064      -516.0384
   2   2.0000     -18.918483      -514.7981
   3   2.0000     -18.906342      -514.4677
   4   2.0000     -18.897944      -514.2392
   5   2.0000     -18.837384      -512.5913
   6   2.0000     -14.190558      -386.1447
   7   2.0000     -14.186256      -386.0277
   8   2.0000     -14.164384      -385.4325
   9   2.0000     -14.077732      -383.0746
  10   2.0000     -14.077586      -383.0706
  11   2.0000     -10.133385      -275.7434
  12   2.0000     -10.128562      -275.6122
  13   2.0000     -10.127340      -275.5789
  14   2.0000     -10.110556      -275.1222
  15   2.0000     -10.059658      -273.7372
  16   2.0000     -10.058195      -273.6974
  17   2.0000     -10.044042      -273.3123
  18   2.0000     -10.042140      -273.2605
  19   2.0000     -10.038947      -273.1736
  20   2.0000     -10.035205      -273.0718
  21   2.0000     -10.002183      -272.1732
  22   2.0000      -9.999776      -272.1077
  23   2.0000      -9.997355      -272.0418
  24   2.0000      -9.991617      -271.8857
  25   2.0000      -1.131803       -30.7979
  26   2.0000      -1.030901       -28.0522
  27   2.0000      -0.987575       -26.8733
  28   2.0000      -0.958473       -26.0814
  29   2.0000      -0.951620       -25.8949
  30   2.0000      -0.939494       -25.5649
  31   2.0000      -0.899962       -24.4892
  32   2.0000      -0.883799       -24.0494
  33   2.0000      -0.852376       -23.1943
  34   2.0000      -0.814534       -22.1646
  35   2.0000      -0.770185       -20.9578
  36   2.0000      -0.740031       -20.1373
  37   2.0000      -0.704931       -19.1821
  38   2.0000      -0.693232       -18.8638
  39   2.0000      -0.655300       -17.8316
  40   2.0000      -0.646122       -17.5819
  41   2.0000      -0.636591       -17.3225
  42   2.0000      -0.625088       -17.0095
  43   2.0000      -0.598868       -16.2960
  44   2.0000      -0.571193       -15.5430
  45   2.0000      -0.552290       -15.0286
  46   2.0000      -0.540072       -14.6961
  47   2.0000      -0.507946       -13.8219
  48   2.0000      -0.495596       -13.4859
  49   2.0000      -0.492933       -13.4134
  50   2.0000      -0.476240       -12.9591
  51   2.0000      -0.453583       -12.3426
  52   2.0000      -0.450073       -12.2471
  53   2.0000      -0.443066       -12.0564
  54   2.0000      -0.421021       -11.4566
  55   2.0000      -0.415915       -11.3176
  56   2.0000      -0.407848       -11.0981
  57   2.0000      -0.400276       -10.8921
  58   2.0000      -0.398820       -10.8524
  59   2.0000      -0.396737       -10.7957
  60   2.0000      -0.390520       -10.6266
  61   2.0000      -0.382908       -10.4195
  62   2.0000      -0.377165       -10.2632
  63   2.0000      -0.371065       -10.0972
  64   2.0000      -0.370498       -10.0818
  65   2.0000      -0.359108        -9.7718
  66   2.0000      -0.348264        -9.4767
  67   2.0000      -0.335071        -9.1177
  68   2.0000      -0.332615        -9.0509
  69   2.0000      -0.329622        -8.9695
  70   2.0000      -0.328575        -8.9410
  71   2.0000      -0.322618        -8.7789
  72   2.0000      -0.318369        -8.6633
  73   2.0000      -0.313841        -8.5401
  74   2.0000      -0.310762        -8.4563
  75   2.0000      -0.304960        -8.2984
  76   2.0000      -0.301002        -8.1907
  77   2.0000      -0.293001        -7.9730
  78   2.0000      -0.288611        -7.8535
  79   2.0000      -0.283463        -7.7134
  80   2.0000      -0.271169        -7.3789
  81   2.0000      -0.257096        -6.9959
  82   2.0000      -0.249244        -6.7823
  83   2.0000      -0.242048        -6.5864
  84   2.0000      -0.233002        -6.3403
  85   2.0000      -0.222553        -6.0560
  86   2.0000      -0.217445        -5.9170
  87   2.0000      -0.214184        -5.8282
  88   2.0000      -0.207279        -5.6404
  89   2.0000      -0.170000        -4.6259
  90   2.0000      -0.157941        -4.2978
  91   2.0000      -0.147464        -4.0127
  92   2.0000      -0.081455        -2.2165
  93   0.0000      -0.072421        -1.9707
  94   0.0000      -0.008701        -0.2368
  95   0.0000       0.007995         0.2176
  96   0.0000       0.048613         1.3228
  97   0.0000       0.063436         1.7262

MULLIKEN ATOMIC CHARGES
-----------------------
   0 C :   -0.351643
   1 O :   -0.146783
   2 C :    0.175870
   3 O :   -0.429127
   4 C :    0.130683
   5 C :   -0.640834
   6 N :   -0.329764
   7 C :    0.383425
   8 C :   -0.087349
   9 C :   -0.687160
  10 C :   -0.682016
  11 N :    0.047922
  12 C :   -0.174736
  13 O :   -0.471679
  14 C :    0.361351
  15 N :   -0.163516
  16 N :   -0.313488
  17 C :    0.400988
  18 C :   -0.646140
  19 O :   -0.040351
  20 N :   -0.275717
  21 C :   -0.273326
  22 O :   -0.496780
  23 C :   -0.119205
  24 O :   -0.417194
  25 H :    0.161070
  26 H :    0.162156
  27 H :    0.162294
  28 H :    0.160977
  29 H :    0.158906
  30 H :    0.171108
  31 H :    0.183766
  32 H :    0.181670
  33 H :    0.172064
  34 H :    0.168348
  35 H :    0.181730
  36 H :    0.181866
  37 H :    0.305014
  38 H :    0.196169
  39 H :    0.196247
  40 H :    0.201380
  41 H :    0.301804
Sum of atomic charges:   -2.0000000

LOEWDIN ATOMIC CHARGES
----------------------
   0 C :   -0.063424
   1 O :   -0.623185
   2 C :    0.381071
   3 O :   -0.475859
   4 C :    0.103882
   5 C :   -0.379115
   6 N :   -0.728521
   7 C :    0.284195
   8 C :    0.105690
   9 C :   -0.366101
  10 C :   -0.366078
  11 N :   -0.613796
  12 C :    0.363332
  13 O :   -0.506072
  14 C :    0.416269
  15 N :   -0.377422
  16 N :   -0.380345
  17 C :    0.365356
  18 C :   -0.321904
  19 O :   -0.377261
  20 N :   -0.703828
  21 C :    0.242048
  22 O :   -0.673628
  23 C :    0.111439
  24 O :   -0.578161
  25 H :    0.176001
  26 H :    0.172748
  27 H :    0.171365
  28 H :    0.157741
  29 H :    0.156234
  30 H :    0.169655
  31 H :    0.167002
  32 H :    0.168387
  33 H :    0.164878
  34 H :    0.164205
  35 H :    0.171009
  36 H :    0.165299
  37 H :    0.311073
  38 H :    0.188071
  39 H :    0.188146
  40 H :    0.188537
  41 H :    0.281066

  Mayer bond orders larger than 0.100000
B(  0-C ,  1-O ) :   0.8424 B(  0-C , 25-H ) :   0.9681 B(  0-C , 26-H ) :   0.9643
B(  0-C , 27-H ) :   0.9634 B(  1-O ,  2-C ) :   1.0269 B(  2-C ,  3-O ) :   1.8512
B(  2-C ,  4-C ) :   0.8997 B(  4-C ,  5-C ) :   0.8345 B(  4-C ,  6-N ) :   1.0274
B(  4-C , 23-C ) :   0.9418 B(  5-C , 28-H ) :   0.9776 B(  5-C , 29-H ) :   0.9904
B(  5-C , 30-H ) :   0.9933 B(  6-N ,  7-C ) :   1.4294 B(  6-N , 20-N ) :   0.1040
B(  7-C ,  8-C ) :   0.7727 B(  7-C , 11-N ) :  -0.1219 B(  7-C , 20-N ) :   1.4726
B(  8-C ,  9-C ) :   0.8778 B(  8-C , 10-C ) :   0.8890 B(  8-C , 11-N ) :   0.9579
B(  8-C , 20-N ) :   0.1422 B(  9-C , 31-H ) :   0.9720 B(  9-C , 32-H ) :   0.9724
B(  9-C , 33-H ) :   0.9808 B( 10-C , 34-H ) :   0.9781 B( 10-C , 35-H ) :   0.9681
B( 10-C , 36-H ) :   0.9767 B( 11-N , 12-C ) :   1.1767 B( 11-N , 37-H ) :   0.8133
B( 12-C , 13-O ) :   1.8873 B( 12-C , 14-C ) :   0.8668 B( 14-C , 15-N ) :   1.6458
B( 14-C , 19-O ) :   1.1046 B( 15-N , 16-N ) :   1.2166 B( 16-N , 17-C ) :   1.6360
B( 17-C , 18-C ) :   0.8280 B( 17-C , 19-O ) :   1.0645 B( 18-C , 38-H ) :   0.9454
B( 18-C , 39-H ) :   0.9446 B( 18-C , 40-H ) :   0.9922 B( 20-N , 21-C ) :   1.1740
B( 20-N , 22-O ) :  -0.1456 B( 21-C , 22-O ) :   2.1161 B( 21-C , 23-C ) :   1.1391
B( 22-O , 23-C ) :  -0.1513 B( 23-C , 24-O ) :   0.9142 B( 24-O , 41-H ) :   0.8401

Dispersion correction           -0.019374243
FINAL SINGLE POINT ENERGY     -1268.841476772483

DIPOLE MOMENT
-------------
                                X             Y             Z
Electronic contribution:     11.63967      -4.94050       6.39040
Nuclear contribution   :     -7.31926       7.53971      -6.50805
                        -----------------------------------------
Total Dipole Moment    :      4.32041       2.59920      -0.11764
                        -----------------------------------------
Magnitude (a.u.)       :      5.04338
Magnitude (Debye)      :     12.81925

Rotational constants in cm-1:     0.016059     0.003402     0.003151
Rotational constants in MHz :   481.424006   101.993168    94.459224

                             ****ORCA TERMINATED NORMALLY****
TOTAL RUN TIME: 0 days 0 hours 3 minutes 15 seconds 921 msec
