   * xtb version 6.5.1 (579679a) compiled by 'ehlert@majestix' on 2022-07-11
          program call               : /lustre/hpc/kemi/ree/PhD/git/ReactivityQM/dep/xtb-6.5.1/bin/xtb --gfn 1 /lustre/hpc/kemi/ree/PhD/git/ReactivityQM/calculations/R02deprot/reac01prodE04/conf12/R02deprot_reac01prodE04_conf12_gfn1.xyz --opt --vfukui --chrg -2 --uhf 0 --alpb DMSO

   ID    Z sym.   atoms
    1    6 C      1, 3, 5, 6, 8-11, 13, 15, 18, 19, 22, 24
    2    8 O      2, 4, 14, 20, 23, 25
    3    7 N      7, 12, 16, 17, 21
    4    1 H      26-42

      * Solvation model:               ALPB
        Solvent                        DMSO
        Solvent mass                       7.8130E+01 g/mol
          :  Hamiltonian                  GFN1-xTB          :
 * total energy  :   -83.5712965 Eh     change       -0.8341772E-11 Eh
 * total energy  :   -83.5887998 Eh     change       -0.1750331E-01 Eh
 * total energy  :   -83.5952765 Eh     change       -0.6476697E-02 Eh
 * total energy  :   -83.5966638 Eh     change       -0.1387233E-02 Eh
 * total energy  :   -83.5973891 Eh     change       -0.7253194E-03 Eh
 * total energy  :   -83.5976232 Eh     change       -0.2340631E-03 Eh
 * total energy  :   -83.5977410 Eh     change       -0.1178302E-03 Eh
 * total energy  :   -83.5978421 Eh     change       -0.1010920E-03 Eh
 * total energy  :   -83.5979475 Eh     change       -0.1054412E-03 Eh
 * total energy  :   -83.5980777 Eh     change       -0.1301529E-03 Eh
 * total energy  :   -83.6023942 Eh     change       -0.6114884E-05 Eh
 * total energy  :   -83.6024080 Eh     change       -0.1387831E-04 Eh
 * total energy  :   -83.6024152 Eh     change       -0.7166417E-05 Eh
 * total energy  :   -83.6024318 Eh     change       -0.1659571E-04 Eh
 * total energy  :   -83.6024436 Eh     change       -0.1184164E-04 Eh
 * total energy  :   -83.6024547 Eh     change       -0.1101656E-04 Eh
 * total energy  :   -83.6024574 Eh     change       -0.2713140E-05 Eh
 * total energy  :   -83.6024648 Eh     change       -0.7393995E-05 Eh
 * total energy  :   -83.6024680 Eh     change       -0.3194102E-05 Eh
   *** GEOMETRY OPTIMIZATION CONVERGED AFTER 54 ITERATIONS ***

 final structure:
================
42
 xtb: 6.5.1 (579679a)
C           -5.52708378178993        0.87078652503275        1.71976787472886
O           -4.91475445340188        0.30396016881109        0.56998289052185
C           -3.58274362219750        0.55436043197969        0.41197823099191
O           -2.98198628196336        1.26675918039623        1.20369305984787
C           -2.95151626044487       -0.29304972236120       -0.70480973750088
C           -3.92031253986396       -0.47638577779348       -1.88683968904602
N           -1.72831454712236        0.33387443501503       -1.16953052448594
C           -0.60444635458157       -0.07054626060913       -0.62387303300655
C            0.62454147824703        0.73081137192389       -1.09479040164995
C            0.82927526914054        0.48873716896488       -2.59827120651660
C            0.39280107394794        2.22384715538119       -0.82192083041666
N            1.77542229431067        0.24966152063053       -0.34190809171475
C            3.04066535101507        0.68603767074301       -0.47724419487117
O            3.40285915585519        1.58955661937387       -1.24463783660061
C            3.96433180517347       -0.02977470022771        0.41175890252601
N            3.65219093321846       -0.97584813737552        1.26971960014842
N            4.81628496890715       -1.35181433031019        1.88079903709876
C            5.75884812547069       -0.62701457355197        1.37146708992848
C            7.20187481775068       -0.66325176003864        1.70710844843230
O            5.30347721284893        0.23255032711761        0.43823425207387
N           -0.35538477650621       -1.05542729989823        0.22518109850026
C           -1.42508092765903       -1.90037906565349        0.55275282918054
O           -1.23349892287596       -2.96364643597191        1.22821241903146
C           -2.68012303822586       -1.55375069441089        0.05672731675595
O           -3.77641120775547       -2.40485175352902        0.32125877275517
H           -6.58704728180608        0.62139274277791        1.67546388135168
H           -5.40678532722449        1.95987052563840        1.72559979587453
H           -5.08989423366331        0.46345060156209        2.63850955568942
H           -4.19650595756900        0.49389596872570       -2.29934699747517
H           -3.42750250108439       -1.05917449562266       -2.66464091711529
H           -4.82148589478817       -0.99939339207020       -1.56983045760642
H            1.63920112767745        1.10455962020331       -2.98818750764873
H           -0.09266749441008        0.73885302475609       -3.12374347152275
H            1.06420229570771       -0.56018189341251       -2.78097113337467
H            0.31372110139324        2.40174054354773        0.25127339835070
H           -0.54144737544921        2.52517855961573       -1.29667172790631
H            1.20707862339360        2.82722090354636       -1.22177868447709
H            1.56541366103973       -0.53487538633214        0.28365684622846
H            7.53128530410595        0.31171633875561        2.06549511362243
H            7.78858296912956       -0.91181584178990        0.82300278220563
H            7.37789907856718       -1.40934992520623        2.47782550895996
H           -3.40496286651263       -3.13829295834116        0.84161273813021

          :  Hamiltonian                  GFN1-xTB          :
         :: total energy             -83.602467964816 Eh    ::
         :: gradient norm              0.000760570764 Eh/a0 ::
         :: HOMO-LUMO gap              0.096813350852 eV    ::
         :: SCC energy               -84.327158161045 Eh    ::
         :: -> Gsolv                  -0.280855416794 Eh    ::
         :: repulsion energy           0.750879172487 Eh    ::

    * Orbital Energies and Occupations

         #    Occupation            Energy/Eh            Energy/eV
      -------------------------------------------------------------
         1        2.0000           -0.8254933             -22.4628
       ...           ...                  ...                  ...
        56        2.0000           -0.4381553             -11.9228
        57        2.0000           -0.4317356             -11.7481
        58        2.0000           -0.4238040             -11.5323
        59        2.0000           -0.4232997             -11.5186
        60        2.0000           -0.4178506             -11.3703
        61        2.0000           -0.4086283             -11.1193
        62        2.0000           -0.4028855             -10.9631
        63        2.0000           -0.3929824             -10.6936
        64        2.0000           -0.3829021             -10.4193
        65        2.0000           -0.3491730              -9.5015
        66        2.0000           -0.3246270              -8.8335
        67        2.0000           -0.3220597              -8.7637
        68        1.7335           -0.2767871              -7.5318 (HOMO)
        69        0.2665           -0.2732293              -7.4349 (LUMO)
        70                         -0.2272368              -6.1834
        71                         -0.2103652              -5.7243
        72                         -0.1686624              -4.5895
        73                         -0.1548975              -4.2150
        74                         -0.1314676              -3.5774
        75                         -0.1192839              -3.2459
        76                         -0.0947146              -2.5773
        77                         -0.0900344              -2.4500
        78                         -0.0875439              -2.3822
        79                         -0.0795916              -2.1658
       ...                                ...                  ...
       134                          0.7107901              19.3416
      -------------------------------------------------------------
                  HL-Gap            0.0035578 Eh            0.0968 eV

Wiberg/Mayer (AO) data.
largest (>0.10) Wiberg bond orders for each atom

     #   Z sym  total        # sym  WBO       # sym  WBO       # sym  WBO
 ---------------------------------------------------------------------------
     1   6 C    3.902 --    26 H    0.987    27 H    0.981    28 H    0.981
                             2 O    0.925
     2   8 O    2.146 --     3 C    1.033     1 C    0.925     4 O    0.106
     3   6 C    3.769 --     4 O    1.604     2 O    1.033     5 C    0.911
                            24 C    0.111
     4   8 O    1.862 --     3 C    1.604     2 O    0.106
     5   6 C    3.973 --     7 N    0.995     6 C    0.978    24 C    0.962
                             3 C    0.911
     6   6 C    3.985 --    29 H    0.988    30 H    0.987    31 H    0.986
                             5 C    0.978
     7   7 N    2.863 --     8 C    1.492     5 C    0.995    21 N    0.174
     8   6 C    3.958 --     7 N    1.492    21 N    1.397     9 C    0.951
     9   6 C    3.925 --    11 C    0.988    10 C    0.984     8 C    0.951
                            12 N    0.928
    10   6 C    3.994 --    34 H    0.987    33 H    0.985    32 H    0.985
                             9 C    0.984
    11   6 C    3.995 --     9 C    0.988    35 H    0.987    37 H    0.985
                            36 H    0.984
    12   7 N    3.320 --    13 C    1.258     9 C    0.928    38 H    0.871
                            14 O    0.165
    13   6 C    3.857 --    14 O    1.489    12 N    1.258    15 C    1.038
    14   8 O    1.776 --    13 C    1.489    12 N    0.165
    15   6 C    3.755 --    16 N    1.519    13 C    1.038    20 O    1.017
    16   7 N    2.876 --    15 C    1.519    17 N    1.185
    17   7 N    2.980 --    18 C    1.625    16 N    1.185
    18   6 C    3.846 --    17 N    1.625    20 O    1.065    19 C    1.026
    19   6 C    3.992 --    18 C    1.026    41 H    0.985    39 H    0.969
                            40 H    0.969
    20   8 O    2.248 --    18 C    1.065    15 C    1.017
    21   7 N    2.905 --     8 C    1.397    22 C    1.083     7 N    0.174
    22   6 C    3.914 --    23 O    1.356    24 C    1.350    21 N    1.083
    23   8 O    1.654 --    22 C    1.356    24 C    0.105
    24   6 C    3.620 --    22 C    1.350     5 C    0.962    25 O    0.952
                             3 C    0.111    23 O    0.105
    25   8 O    1.898 --    24 C    0.952    42 H    0.854
    26   1 H    1.016 --     1 C    0.987
    27   1 H    1.016 --     1 C    0.981
    28   1 H    1.013 --     1 C    0.981
    29   1 H    1.013 --     6 C    0.988
    30   1 H    1.018 --     6 C    0.987
    31   1 H    1.018 --     6 C    0.986
    32   1 H    1.016 --    10 C    0.985
    33   1 H    1.023 --    10 C    0.985
    34   1 H    1.009 --    10 C    0.987
    35   1 H    1.010 --    11 C    0.987
    36   1 H    1.028 --    11 C    0.984
    37   1 H    1.017 --    11 C    0.985
    38   1 H    1.001 --    12 N    0.871
    39   1 H    1.000 --    19 C    0.969
    40   1 H    0.999 --    19 C    0.969
    41   1 H    1.002 --    19 C    0.985
    42   1 H    0.906 --    25 O    0.854
 ---------------------------------------------------------------------------

           -------------------------------------------------
          | TOTAL ENERGY              -83.602467964816 Eh   |
          | GRADIENT NORM               0.000760570764 Eh/α |
          | HOMO-LUMO GAP               0.096813350852 eV   |
           -------------------------------------------------

 * finished run on 2023/06/20 at 17:37:17.574
