   * xtb version 6.5.1 (579679a) compiled by 'ehlert@majestix' on 2022-07-11
          program call               : /lustre/hpc/kemi/ree/PhD/git/ReactivityQM/dep/xtb-6.5.1/bin/xtb --gfn 1 /lustre/hpc/kemi/ree/PhD/git/ReactivityQM/calculations/R02/reac01prodE05/conf18/R02_reac01prodE05_conf18_gfn1.xyz --opt --vfukui --chrg -1 --uhf 0 --alpb DMSO

   ID    Z sym.   atoms
    1    6 C      1, 3, 5, 6, 8, 11-14, 16, 18, 21, 22, 25
    2    8 O      2, 4, 7, 9, 17, 23
    3    7 N      10, 15, 19, 20, 24
    4    1 H      26-43

      * Solvation model:               ALPB
        Solvent                        DMSO
        Solvent mass                       7.8130E+01 g/mol
          :  Hamiltonian                  GFN1-xTB          :
 * total energy  :   -83.7936292 Eh     change       -0.2435740E-10 Eh
 * total energy  :   -83.8083657 Eh     change       -0.1473650E-01 Eh
 * total energy  :   -83.8167498 Eh     change       -0.8384076E-02 Eh
 * total energy  :   -83.8189193 Eh     change       -0.2169517E-02 Eh
 * total energy  :   -83.8208962 Eh     change       -0.1976944E-02 Eh
 * total energy  :   -83.8216133 Eh     change       -0.7170786E-03 Eh
 * total energy  :   -83.8221126 Eh     change       -0.4992730E-03 Eh
 * total energy  :   -83.8224852 Eh     change       -0.3726490E-03 Eh
 * total energy  :   -83.8227776 Eh     change       -0.2923561E-03 Eh
 * total energy  :   -83.8230381 Eh     change       -0.2605257E-03 Eh
 * total energy  :   -83.8237314 Eh     change       -0.1193077E-04 Eh
 * total energy  :   -83.8237358 Eh     change       -0.4437033E-05 Eh
 * total energy  :   -83.8237431 Eh     change       -0.7341919E-05 Eh
 * total energy  :   -83.8237489 Eh     change       -0.5759139E-05 Eh
 * total energy  :   -83.8237541 Eh     change       -0.5228494E-05 Eh
 * total energy  :   -83.8237613 Eh     change       -0.7212385E-05 Eh
 * total energy  :   -83.8237683 Eh     change       -0.6953539E-05 Eh
 * total energy  :   -83.8237762 Eh     change       -0.7851199E-05 Eh
 * total energy  :   -83.8237809 Eh     change       -0.4783221E-05 Eh
   *** GEOMETRY OPTIMIZATION CONVERGED AFTER 38 ITERATIONS ***

 final structure:
================
43
 xtb: 6.5.1 (579679a)
C           -5.92342320200732        0.96735415879369        1.09255885694258
O           -4.56722945712021        0.79737843655196        0.71506182553406
C           -4.35046469416657       -0.17847243134254       -0.26871101117835
O           -5.33782724219245       -0.81351985789301       -0.72015338505430
C           -3.03740895796730       -0.36086792058762       -0.67962347783001
C           -2.66681593748535       -1.45597877106909       -1.57340731845677
O           -3.62007974870187       -1.91572204123003       -2.46894950772252
C           -1.42409801689095       -2.02637044482139       -1.51049312875548
O           -0.85696837065153       -2.94934328305270       -2.14673677274860
N           -0.59521602142579       -1.38935995770654       -0.45490583977627
C           -0.75384733228690       -0.15451962650789        0.00730870349284
C            0.43069190522369        0.34102036684678        0.84688366775706
C            0.62061612919629        1.84603476642646        1.05154346751577
C            0.24243816044168       -0.34546644371236        2.21271068672582
N            1.62396000836838       -0.17553306584922        0.16576312394430
C            2.88517787312116       -0.11212987225913        0.73733264630119
O            3.10200081225789        0.06231834602185        1.93712822316029
C            3.91098720682485       -0.33967310035462       -0.26465671384447
N            3.70878858885440       -0.52624729103993       -1.55367813580901
N            4.93822475988898       -0.70688551062334       -2.11879768392391
C            5.80896658864681       -0.62005038212746       -1.16373953118632
C            7.28058580959074       -0.75110968622534       -1.27610801943237
O            5.23934021989813       -0.38939644376849        0.03502071379955
N           -1.93793509715667        0.41061865453926       -0.14211113377613
C           -2.17933981050454        1.84239793354423        0.01625022672535
H           -6.53435965420216        1.28605768872528        0.23969077817022
H           -5.94692326282140        1.73833342048896        1.86362340755089
H           -6.34108328626688        0.03687969426486        1.49555998435918
H           -4.49502974630960       -1.64350077768717       -2.10272563508186
H            0.31025199308945       -1.82292597272639       -0.33500091597335
H            0.72044538409539        2.36438669611669        0.10032174484258
H           -0.19305002800531        2.27690081454762        1.62826841237136
H            1.54163344797477        1.99132117786675        1.61615736512707
H           -0.74441965273428       -0.09942015348957        2.60235172794961
H            0.99310520787937        0.00050148586120        2.91928370369933
H            0.32410656880278       -1.42610070505777        2.10672304550844
H            1.62715292349521       -0.01894130341188       -0.83539663628519
H            7.54739765168750       -0.99665302707508       -2.30071871438244
H            7.63938480169811       -1.53317422294481       -0.60843416127215
H            7.76549280231678        0.18197845439645       -0.99112294791148
H           -3.05926919143251        2.10710513196852       -0.56649990415179
H           -2.35892654203168        2.09071850478595        1.06188333553492
H           -1.33703359099013        2.41005856082270       -0.36945307247138

          :  Hamiltonian                  GFN1-xTB          :
         :: total energy             -83.823780934668 Eh    ::
         :: gradient norm              0.000990259704 Eh/a0 ::
         :: HOMO-LUMO gap              0.079955339706 eV    ::
         :: SCC energy               -84.578001202145 Eh    ::
         :: -> Gsolv                  -0.117832250483 Eh    ::
         :: repulsion energy           0.781429706161 Eh    ::

    * Orbital Energies and Occupations

         #    Occupation            Energy/Eh            Energy/eV
      -------------------------------------------------------------
         1        2.0000           -0.8353038             -22.7298
       ...           ...                  ...                  ...
        56        2.0000           -0.4709624             -12.8155
        57        2.0000           -0.4634157             -12.6102
        58        2.0000           -0.4586298             -12.4800
        59        2.0000           -0.4465282             -12.1507
        60        2.0000           -0.4428934             -12.0517
        61        2.0000           -0.4371918             -11.8966
        62        2.0000           -0.4346054             -11.8262
        63        2.0000           -0.4292081             -11.6793
        64        2.0000           -0.4243245             -11.5465
        65        2.0000           -0.4158037             -11.3146
        66        2.0000           -0.3966400             -10.7931
        67        2.0000           -0.3757369             -10.2243
        68        1.6488           -0.2975273              -8.0961 (HOMO)
        69        0.3512           -0.2945890              -8.0162 (LUMO)
        70                         -0.2712257              -7.3804
        71                         -0.2358662              -6.4182
        72                         -0.1769449              -4.8149
        73                         -0.1745104              -4.7487
        74                         -0.1379355              -3.7534
        75                         -0.1343720              -3.6564
        76                         -0.1186185              -3.2278
        77                         -0.1176442              -3.2013
        78                         -0.1139288              -3.1002
        79                         -0.1052912              -2.8651
       ...                                ...                  ...
       136                          0.7348745              19.9970
      -------------------------------------------------------------
                  HL-Gap            0.0029383 Eh            0.0800 eV

Wiberg/Mayer (AO) data.
largest (>0.10) Wiberg bond orders for each atom

     #   Z sym  total        # sym  WBO       # sym  WBO       # sym  WBO
 ---------------------------------------------------------------------------
     1   6 C    3.907 --    27 H    0.987    28 H    0.981    26 H    0.981
                             2 O    0.936
     2   8 O    2.068 --     3 C    0.939     1 C    0.936
     3   6 C    3.827 --     4 O    1.391     5 C    1.384     2 O    0.939
     4   8 O    1.752 --     3 C    1.391     5 C    0.124
     5   6 C    3.690 --     3 C    1.384     6 C    1.085    24 N    0.929
                             4 O    0.124
     6   6 C    3.754 --     8 C    1.439     5 C    1.085     7 O    1.002
                             9 O    0.139
     7   8 O    1.934 --     6 C    1.002    29 H    0.806
     8   6 C    3.814 --     6 C    1.439     9 O    1.393    10 N    0.845
     9   8 O    1.664 --     8 C    1.393     6 C    0.139
    10   7 N    3.392 --    11 C    1.344    30 H    0.895     8 C    0.845
                            24 N    0.145
    11   6 C    3.929 --    24 N    1.404    10 N    1.344    12 C    0.968
    12   6 C    3.944 --    13 C    0.993    14 C    0.975    11 C    0.968
                            15 N    0.940
    13   6 C    3.989 --    12 C    0.993    32 H    0.982    31 H    0.981
                            33 H    0.976
    14   6 C    3.989 --    34 H    0.986    36 H    0.985    35 H    0.976
                            12 C    0.975
    15   7 N    3.208 --    16 C    1.126    12 C    0.940    37 H    0.905
                            17 O    0.131
    16   6 C    3.798 --    17 O    1.531    15 N    1.126    18 C    1.072
    17   8 O    1.797 --    16 C    1.531    15 N    0.131
    18   6 C    3.770 --    19 N    1.494    16 C    1.072    23 O    1.019
    19   7 N    2.858 --    18 C    1.494    20 N    1.192
    20   7 N    2.979 --    21 C    1.617    19 N    1.192
    21   6 C    3.841 --    20 N    1.617    23 O    1.068    22 C    1.028
    22   6 C    3.990 --    21 C    1.028    38 H    0.984    39 H    0.968
                            40 H    0.966
    23   8 O    2.253 --    21 C    1.068    18 C    1.019
    24   7 N    3.499 --    11 C    1.404    25 C    0.937     5 C    0.929
                            10 N    0.145
    25   6 C    3.940 --    43 H    0.980    41 H    0.980    42 H    0.977
                            24 N    0.937
    26   1 H    1.017 --     1 C    0.981
    27   1 H    1.017 --     1 C    0.987
    28   1 H    1.018 --     1 C    0.981
    29   1 H    0.893 --     7 O    0.806
    30   1 H    0.960 --    10 N    0.895
    31   1 H    1.004 --    13 C    0.981
    32   1 H    1.004 --    13 C    0.982
    33   1 H    1.006 --    13 C    0.976
    34   1 H    1.003 --    14 C    0.986
    35   1 H    1.016 --    14 C    0.976
    36   1 H    1.004 --    14 C    0.985
    37   1 H    0.964 --    15 N    0.905
    38   1 H    1.001 --    22 C    0.984
    39   1 H    0.998 --    22 C    0.968
    40   1 H    0.998 --    22 C    0.966
    41   1 H    1.016 --    25 C    0.980
    42   1 H    1.016 --    25 C    0.977
    43   1 H    1.007 --    25 C    0.980
 ---------------------------------------------------------------------------

           -------------------------------------------------
          | TOTAL ENERGY              -83.823780934668 Eh   |
          | GRADIENT NORM               0.000990259704 Eh/α |
          | HOMO-LUMO GAP               0.079955339706 eV   |
           -------------------------------------------------

 * finished run on 2023/06/20 at 14:58:12.770
