                         Program Version 5.0.1 -  RELEASE  -
|  1> # ORCA input file
|  2> ! SP r2SCAN-3c CPCM
|  3>
|  4> %maxcore 1875.0
|  5> %pal nprocs 4 end
|  6> %cpcm smd true SMDsolvent "DMSO" end
|  7>
|  8> *xyz 0 1
|  9> C       6.745514    0.285626   -1.241692
| 10> O       5.799735    0.270066   -0.161599
| 11> C       4.517083    0.449755   -0.504761
| 12> O       4.161360    0.615973   -1.646358
| 13> C       3.583460    0.416080    0.659266
| 14> N       2.290921    0.563569    0.313790
| 15> C       1.389012    0.534525    1.294607
| 16> C      -0.001636   -0.304800    0.751339
| 17> C       0.060581   -0.929467   -0.602107
| 18> C      -0.612167   -1.111519    1.849573
| 19> N       0.064672    1.058550    0.896387
| 20> C      -2.832009    1.466088   -1.558659
| 21> C      -3.598939    2.558523   -2.237897
| 22> O      -1.624510    1.438009   -1.473111
| 23> C      -3.659842    0.388817   -0.979806
| 24> N      -3.261786   -0.668367   -0.330109
| 25> N      -4.370930   -1.370041    0.004487
| 26> C      -5.389484   -0.703949   -0.457811
| 27> C      -6.821228   -1.052395   -0.351200
| 28> O      -5.004942    0.413671   -1.085657
| 29> N       1.606801    0.389175    2.603260
| 30> C       2.881550    0.227189    3.047576
| 31> O       3.159629    0.079597    4.235750
| 32> C       3.933364    0.247005    1.993499
| 33> O       5.172142    0.091587    2.440240
| 34> H       6.738922    1.265064   -1.724560
| 35> H       6.485688   -0.483473   -1.971911
| 36> H       7.720370    0.082793   -0.805875
| 37> H      -0.967793   -1.071264   -0.940471
| 38> H       0.544760   -1.903335   -0.558790
| 39> H       0.578863   -0.287559   -1.310534
| 40> H      -0.102257   -2.065714    1.969222
| 41> H      -0.601590   -0.564023    2.790029
| 42> H      -1.645174   -1.310054    1.556934
| 43> H       0.160568    1.520998   -0.010045
| 44> H      -2.918352    3.313021   -2.624443
| 45> H      -4.186162    2.133028   -3.050523
| 46> H      -4.295527    3.007050   -1.530952
| 47> H      -7.265298   -1.101273   -1.345114
| 48> H      -7.348228   -0.283436    0.213861
| 49> H      -6.930094   -2.011767    0.148408
| 50> H       5.842952    0.102411    1.735756
| 51> **                         ****END OF INPUT****

CARTESIAN COORDINATES (ANGSTROEM)
---------------------------------
  C      6.745514    0.285626   -1.241692
  O      5.799735    0.270066   -0.161599
  C      4.517083    0.449755   -0.504761
  O      4.161360    0.615973   -1.646358
  C      3.583460    0.416080    0.659266
  N      2.290921    0.563569    0.313790
  C      1.389012    0.534525    1.294607
  C     -0.001636   -0.304800    0.751339
  C      0.060581   -0.929467   -0.602107
  C     -0.612167   -1.111519    1.849573
  N      0.064672    1.058550    0.896387
  C     -2.832009    1.466088   -1.558659
  C     -3.598939    2.558523   -2.237897
  O     -1.624510    1.438009   -1.473111
  C     -3.659842    0.388817   -0.979806
  N     -3.261786   -0.668367   -0.330109
  N     -4.370930   -1.370041    0.004487
  C     -5.389484   -0.703949   -0.457811
  C     -6.821228   -1.052395   -0.351200
  O     -5.004942    0.413671   -1.085657
  N      1.606801    0.389175    2.603260
  C      2.881550    0.227189    3.047576
  O      3.159629    0.079597    4.235750
  C      3.933364    0.247005    1.993499
  O      5.172142    0.091587    2.440240
  H      6.738922    1.265064   -1.724560
  H      6.485688   -0.483473   -1.971911
  H      7.720370    0.082793   -0.805875
  H     -0.967793   -1.071264   -0.940471
  H      0.544760   -1.903335   -0.558790
  H      0.578863   -0.287559   -1.310534
  H     -0.102257   -2.065714    1.969222
  H     -0.601590   -0.564023    2.790029
  H     -1.645174   -1.310054    1.556934
  H      0.160568    1.520998   -0.010045
  H     -2.918352    3.313021   -2.624443
  H     -4.186162    2.133028   -3.050523
  H     -4.295527    3.007050   -1.530952
  H     -7.265298   -1.101273   -1.345114
  H     -7.348228   -0.283436    0.213861
  H     -6.930094   -2.011767    0.148408
  H      5.842952    0.102411    1.735756

 Total Charge           Charge          ....    0
 Multiplicity           Mult            ....    1
 Number of Electrons    NEL             ....  184
 Basis Dimension        Dim             ....  615

ORBITAL ENERGIES
----------------

  NO   OCC          E(Eh)            E(eV)
   0   2.0000     -19.068019      -518.8672
   1   2.0000     -19.022735      -517.6349
   2   2.0000     -19.014723      -517.4169
   3   2.0000     -18.963422      -516.0210
   4   2.0000     -18.948538      -515.6159
   5   2.0000     -18.899995      -514.2950
   6   2.0000     -14.210572      -386.6893
   7   2.0000     -14.203336      -386.4924
   8   2.0000     -14.201872      -386.4526
   9   2.0000     -14.179455      -385.8426
  10   2.0000     -14.147991      -384.9864
  11   2.0000     -10.173628      -276.8385
  12   2.0000     -10.151559      -276.2380
  13   2.0000     -10.150563      -276.2109
  14   2.0000     -10.149004      -276.1684
  15   2.0000     -10.142212      -275.9836
  16   2.0000     -10.140281      -275.9311
  17   2.0000     -10.134898      -275.7846
  18   2.0000     -10.120310      -275.3876
  19   2.0000     -10.098857      -274.8039
  20   2.0000     -10.084238      -274.4061
  21   2.0000     -10.046772      -273.3866
  22   2.0000     -10.034573      -273.0546
  23   2.0000     -10.030547      -272.9451
  24   2.0000     -10.026499      -272.8349
  25   2.0000      -1.158772       -31.5318
  26   2.0000      -1.093279       -29.7496
  27   2.0000      -1.063984       -28.9525
  28   2.0000      -1.034209       -28.1423
  29   2.0000      -1.012670       -27.5561
  30   2.0000      -0.997293       -27.1377
  31   2.0000      -0.980211       -26.6729
  32   2.0000      -0.977909       -26.6103
  33   2.0000      -0.916733       -24.9456
  34   2.0000      -0.849473       -23.1153
  35   2.0000      -0.834319       -22.7030
  36   2.0000      -0.755362       -20.5545
  37   2.0000      -0.741690       -20.1824
  38   2.0000      -0.737151       -20.0589
  39   2.0000      -0.714007       -19.4291
  40   2.0000      -0.707638       -19.2558
  41   2.0000      -0.679030       -18.4773
  42   2.0000      -0.652277       -17.7494
  43   2.0000      -0.647106       -17.6086
  44   2.0000      -0.613119       -16.6838
  45   2.0000      -0.603239       -16.4150
  46   2.0000      -0.566277       -15.4092
  47   2.0000      -0.562085       -15.2951
  48   2.0000      -0.560617       -15.2552
  49   2.0000      -0.548184       -14.9168
  50   2.0000      -0.510834       -13.9005
  51   2.0000      -0.498907       -13.5760
  52   2.0000      -0.497701       -13.5431
  53   2.0000      -0.483141       -13.1469
  54   2.0000      -0.471974       -12.8431
  55   2.0000      -0.466838       -12.7033
  56   2.0000      -0.452678       -12.3180
  57   2.0000      -0.447341       -12.1728
  58   2.0000      -0.441442       -12.0122
  59   2.0000      -0.435606       -11.8534
  60   2.0000      -0.424032       -11.5385
  61   2.0000      -0.423332       -11.5194
  62   2.0000      -0.415891       -11.3170
  63   2.0000      -0.403844       -10.9892
  64   2.0000      -0.402026       -10.9397
  65   2.0000      -0.392142       -10.6707
  66   2.0000      -0.390276       -10.6200
  67   2.0000      -0.388737       -10.5781
  68   2.0000      -0.383099       -10.4246
  69   2.0000      -0.378363       -10.2958
  70   2.0000      -0.373305       -10.1581
  71   2.0000      -0.369932       -10.0664
  72   2.0000      -0.368232       -10.0201
  73   2.0000      -0.364226        -9.9111
  74   2.0000      -0.354271        -9.6402
  75   2.0000      -0.352311        -9.5869
  76   2.0000      -0.344496        -9.3742
  77   2.0000      -0.341683        -9.2977
  78   2.0000      -0.334778        -9.1098
  79   2.0000      -0.333931        -9.0867
  80   2.0000      -0.315835        -8.5943
  81   2.0000      -0.299587        -8.1522
  82   2.0000      -0.295323        -8.0362
  83   2.0000      -0.290728        -7.9111
  84   2.0000      -0.268576        -7.3083
  85   2.0000      -0.266367        -7.2482
  86   2.0000      -0.263436        -7.1685
  87   2.0000      -0.252993        -6.8843
  88   2.0000      -0.246014        -6.6944
  89   2.0000      -0.230946        -6.2844
  90   2.0000      -0.213721        -5.8157
  91   2.0000      -0.204473        -5.5640
  92   0.0000      -0.134045        -3.6475
  93   0.0000      -0.111482        -3.0336
  94   0.0000      -0.083133        -2.2622
  95   0.0000      -0.026569        -0.7230
  96   0.0000       0.018000         0.4898

MULLIKEN ATOMIC CHARGES
-----------------------
   0 C :   -0.312545
   1 O :   -0.195785
   2 C :    0.108928
   3 O :   -0.394347
   4 C :    0.264116
   5 N :   -0.089641
   6 C :   -0.177552
   7 C :    0.488749
   8 C :   -0.604803
   9 C :   -0.584533
  10 N :   -0.244115
  11 C :    0.068879
  12 C :   -0.553775
  13 O :   -0.334804
  14 C :    0.260247
  15 N :    0.062671
  16 N :   -0.446542
  17 C :    0.450440
  18 C :   -0.642450
  19 O :   -0.028937
  20 N :   -0.097314
  21 C :   -0.011643
  22 O :   -0.405167
  23 C :    0.084336
  24 O :   -0.313555
  25 H :    0.183092
  26 H :    0.182284
  27 H :    0.183298
  28 H :    0.222562
  29 H :    0.192705
  30 H :    0.188415
  31 H :    0.201378
  32 H :    0.197728
  33 H :    0.206390
  34 H :    0.329144
  35 H :    0.196252
  36 H :    0.203112
  37 H :    0.201909
  38 H :    0.201823
  39 H :    0.203940
  40 H :    0.206103
  41 H :    0.349005
Sum of atomic charges:   -0.0000000

LOEWDIN ATOMIC CHARGES
----------------------
   0 C :   -0.028189
   1 O :   -0.617475
   2 C :    0.405720
   3 O :   -0.393539
   4 C :    0.198252
   5 N :   -0.517826
   6 C :    0.372758
   7 C :    0.223364
   8 C :   -0.349599
   9 C :   -0.336805
  10 N :   -0.522404
  11 C :    0.290915
  12 C :   -0.357893
  13 O :   -0.446770
  14 C :    0.383006
  15 N :   -0.339082
  16 N :   -0.351602
  17 C :    0.384728
  18 C :   -0.315891
  19 O :   -0.382607
  20 N :   -0.521444
  21 C :    0.320096
  22 O :   -0.490966
  23 C :    0.319984
  24 O :   -0.399612
  25 H :    0.187108
  26 H :    0.187734
  27 H :    0.189365
  28 H :    0.206235
  29 H :    0.180748
  30 H :    0.186497
  31 H :    0.184009
  32 H :    0.191767
  33 H :    0.198507
  34 H :    0.298921
  35 H :    0.182405
  36 H :    0.195192
  37 H :    0.194640
  38 H :    0.192980
  39 H :    0.193917
  40 H :    0.191843
  41 H :    0.311014

  Mayer bond orders larger than 0.100000
B(  0-C ,  1-O ) :   0.8333 B(  0-C , 25-H ) :   0.9490 B(  0-C , 26-H ) :   0.9502
B(  0-C , 27-H ) :   0.9584 B(  1-O ,  2-C ) :   1.1565 B(  2-C ,  3-O ) :   1.9528
B(  2-C ,  4-C ) :   1.0039 B(  2-C ,  5-N ) :   0.1392 B(  4-C ,  5-N ) :   1.0091
B(  4-C , 23-C ) :   1.1011 B(  5-N ,  6-C ) :   1.4553 B(  6-C ,  7-C ) :   0.5027
B(  6-C , 10-N ) :   0.8675 B(  6-C , 20-N ) :   1.3849 B(  7-C ,  8-C ) :   0.8367
B(  7-C ,  9-C ) :   0.8366 B(  7-C , 10-N ) :   0.9465 B(  8-C , 28-H ) :   0.9252
B(  8-C , 29-H ) :   0.9426 B(  8-C , 30-H ) :   0.9807 B(  9-C , 31-H ) :   0.9512
B(  9-C , 32-H ) :   0.9862 B(  9-C , 33-H ) :   0.9191 B( 10-N , 34-H ) :   0.8710
B( 11-C , 12-C ) :   0.9464 B( 11-C , 13-O ) :   1.8219 B( 11-C , 14-C ) :   0.9003
B( 12-C , 35-H ) :   0.9698 B( 12-C , 36-H ) :   0.9349 B( 12-C , 37-H ) :   0.9374
B( 14-C , 15-N ) :   1.5893 B( 14-C , 16-N ) :   0.1587 B( 14-C , 19-O ) :   1.0654
B( 15-N , 16-N ) :   1.2621 B( 16-N , 17-C ) :   1.5741 B( 17-C , 18-C ) :   0.8453
B( 17-C , 19-O ) :   1.1116 B( 18-C , 38-H ) :   0.9428 B( 18-C , 39-H ) :   0.9376
B( 18-C , 40-H ) :   0.9845 B( 20-N , 21-C ) :   1.2583 B( 21-C , 22-O ) :   2.0539
B( 21-C , 23-C ) :   0.9364 B( 23-C , 24-O ) :   1.2003 B( 24-O , 41-H ) :   0.8060

Dispersion correction           -0.017595090
FINAL SINGLE POINT ENERGY     -1268.549264374416

DIPOLE MOMENT
-------------
                                X             Y             Z
Electronic contribution:      9.79847       3.15518       6.81210
Nuclear contribution   :    -13.44180      -3.11988     -11.43698
                        -----------------------------------------
Total Dipole Moment    :     -3.64333       0.03530      -4.62488
                        -----------------------------------------
Magnitude (a.u.)       :      5.88767
Magnitude (Debye)      :     14.96527

Rotational constants in cm-1:     0.015283     0.002969     0.002664
Rotational constants in MHz :   458.179492    89.009446    79.854056

                             ****ORCA TERMINATED NORMALLY****
TOTAL RUN TIME: 0 days 0 hours 2 minutes 16 seconds 18 msec
