   * xtb version 6.5.1 (579679a) compiled by 'ehlert@majestix' on 2022-07-11
          program call               : /lustre/hpc/kemi/ree/PhD/git/ReactivityQM/dep/xtb-6.5.1/bin/xtb --gfn 1 /lustre/hpc/kemi/ree/PhD/git/ReactivityQM/calculations/R02deprot/reac01prodN12/conf13/R02deprot_reac01prodN12_conf13_gfn1.xyz --opt --vfukui --chrg 0 --uhf 0 --alpb DMSO

   ID    Z sym.   atoms
    1    6 C      1, 3, 5, 7-10, 12, 13, 15, 18, 19, 22, 24
    2    8 O      2, 4, 14, 20, 23, 25
    3    7 N      6, 11, 16, 17, 21
    4    1 H      26-42

      * Solvation model:               ALPB
        Solvent                        DMSO
        Solvent mass                       7.8130E+01 g/mol
          :  Hamiltonian                  GFN1-xTB          :
 * total energy  :   -82.8334514 Eh     change       -0.1424809E-08 Eh
 * total energy  :   -82.8459115 Eh     change       -0.1246009E-01 Eh
 * total energy  :   -82.8516664 Eh     change       -0.5754988E-02 Eh
 * total energy  :   -82.8532391 Eh     change       -0.1572667E-02 Eh
 * total energy  :   -82.8547086 Eh     change       -0.1469498E-02 Eh
 * total energy  :   -82.8555740 Eh     change       -0.8654254E-03 Eh
 * total energy  :   -82.8561573 Eh     change       -0.5832938E-03 Eh
 * total energy  :   -82.8566979 Eh     change       -0.5406067E-03 Eh
 * total energy  :   -82.8571215 Eh     change       -0.4235324E-03 Eh
 * total energy  :   -82.8574864 Eh     change       -0.3649666E-03 Eh
 * total energy  :   -82.9184970 Eh     change       -0.1644151E-04 Eh
 * total energy  :   -82.9185137 Eh     change       -0.1665304E-04 Eh
 * total energy  :   -82.9185214 Eh     change       -0.7722271E-05 Eh
 * total energy  :   -82.9185356 Eh     change       -0.1425899E-04 Eh
 * total energy  :   -82.9185419 Eh     change       -0.6239804E-05 Eh
 * total energy  :   -82.9185519 Eh     change       -0.1005975E-04 Eh
 * total energy  :   -82.9185577 Eh     change       -0.5721416E-05 Eh
 * total energy  :   -82.9185632 Eh     change       -0.5528546E-05 Eh
 * total energy  :   -82.9185657 Eh     change       -0.2496707E-05 Eh
   *** GEOMETRY OPTIMIZATION CONVERGED AFTER 122 ITERATIONS ***

 final structure:
================
42
 xtb: 6.5.1 (579679a)
C            6.74551403942541        0.28562575192142       -1.24169162180445
O            5.79973532772271        0.27006566565432       -0.16159895466020
C            4.51708300458615        0.44975517634986       -0.50476098550997
O            4.16136005205239        0.61597342537362       -1.64635760676628
C            3.58346033861154        0.41608020724694        0.65926578102561
N            2.29092120342670        0.56356862283897        0.31379004534586
C            1.38901182517474        0.53452541271232        1.29460653586106
C           -0.00163585150771       -0.30479959118026        0.75133882456012
C            0.06058079205691       -0.92946728616383       -0.60210714939355
C           -0.61216668704826       -1.11151857991614        1.84957284411596
N            0.06467242334366        1.05854963607281        0.89638744525828
C           -2.83200901940684        1.46608812420039       -1.55865862274013
C           -3.59893922968398        2.55852311947182       -2.23789707475514
O           -1.62450981474344        1.43800875007301       -1.47311076267732
C           -3.65984215721376        0.38881670350852       -0.97980597610149
N           -3.26178574544234       -0.66836694324399       -0.33010857132510
N           -4.37093012127581       -1.37004095511655        0.00448692979688
C           -5.38948365397504       -0.70394879644568       -0.45781061716890
C           -6.82122770893865       -1.05239470803193       -0.35119965791896
O           -5.00494187668921        0.41367134743143       -1.08565726578327
N            1.60680131111961        0.38917537337256        2.60325969582603
C            2.88154979989225        0.22718868040270        3.04757580503991
O            3.15962876030884        0.07959668627634        4.23574969915276
C            3.93336393600485        0.24700549731231        1.99349935543182
O            5.17214238587917        0.09158718540428        2.44024032927339
H            6.73892153550996        1.26506368923365       -1.72456018063961
H            6.48568776978874       -0.48347312897902       -1.97191071722659
H            7.72036962062439        0.08279322244104       -0.80587519229898
H           -0.96779342939743       -1.07126375013618       -0.94047106808578
H            0.54476043443687       -1.90333528663384       -0.55879045613271
H            0.57886308678162       -0.28755934460570       -1.31053401703287
H           -0.10225719671780       -2.06571409276225        1.96922231954170
H           -0.60158998325677       -0.56402299596626        2.79002910079804
H           -1.64517424918562       -1.31005378920515        1.55693402317243
H            0.16056792624562        1.52099832302372       -0.01004539993728
H           -2.91835167956310        3.31302113238953       -2.62444316535904
H           -4.18616166081436        2.13302756285712       -3.05052257583266
H           -4.29552690526799        3.00705031758563       -1.53095212786617
H           -7.26529809112192       -1.10127271981707       -1.34511369858106
H           -7.34822770037945       -0.28343609407080        0.21386099284019
H           -6.93009388167634       -2.01176735919174        0.14840824502586
H            5.84295207077472        0.10241080819859        1.73575649385217

          :  Hamiltonian                  GFN1-xTB          :
         :: total energy             -82.918565679756 Eh    ::
         :: gradient norm              0.000332520491 Eh/a0 ::
         :: HOMO-LUMO gap              1.525889578899 eV    ::
         :: SCC energy               -83.699721058862 Eh    ::
         :: -> Gsolv                  -0.066565214515 Eh    ::
         :: repulsion energy           0.805485205195 Eh    ::

    * Orbital Energies and Occupations

         #    Occupation            Energy/Eh            Energy/eV
      -------------------------------------------------------------
         1        2.0000           -0.8772405             -23.8709
       ...           ...                  ...                  ...
        55        2.0000           -0.5139204             -13.9845
        56        2.0000           -0.4993313             -13.5875
        57        2.0000           -0.4937372             -13.4353
        58        2.0000           -0.4876484             -13.2696
        59        2.0000           -0.4816580             -13.1066
        60        2.0000           -0.4786114             -13.0237
        61        2.0000           -0.4764072             -12.9637
        62        2.0000           -0.4679100             -12.7325
        63        2.0000           -0.4619659             -12.5707
        64        2.0000           -0.4587002             -12.4819
        65        2.0000           -0.4484863             -12.2039
        66        2.0000           -0.4164116             -11.3311
        67        2.0000           -0.4141582             -11.2698 (HOMO)
        68                         -0.3580828              -9.7439 (LUMO)
        69                         -0.3419843              -9.3059
        70                         -0.3101364              -8.4392
        71                         -0.2692120              -7.3256
        72                         -0.2275220              -6.1912
        73                         -0.2268203              -6.1721
        74                         -0.1961448              -5.3374
        75                         -0.1475833              -4.0159
        76                         -0.1412452              -3.8435
        77                         -0.1403369              -3.8188
        78                         -0.1365845              -3.7167
       ...                                ...                  ...
       134                          0.7296259              19.8541
      -------------------------------------------------------------
                  HL-Gap            0.0560754 Eh            1.5259 eV

Wiberg/Mayer (AO) data.
largest (>0.10) Wiberg bond orders for each atom

     #   Z sym  total        # sym  WBO       # sym  WBO       # sym  WBO
 ---------------------------------------------------------------------------
     1   6 C    3.860 --    28 H    0.986    27 H    0.980    26 H    0.980
                             2 O    0.884
     2   8 O    2.203 --     3 C    1.090     1 C    0.884     4 O    0.130
     3   6 C    3.845 --     4 O    1.674     2 O    1.090     5 C    0.998
     4   8 O    1.934 --     3 C    1.674     2 O    0.130
     5   6 C    3.958 --    24 C    1.384     6 N    1.305     3 C    0.998
     6   7 N    3.035 --     5 C    1.305     7 C    1.283    21 N    0.135
     7   6 C    3.907 --     6 N    1.283    21 N    1.263    11 N    0.784
                             8 C    0.448
     8   6 C    3.849 --    11 N    1.129     9 C    1.034    10 C    1.032
                             7 C    0.448
     9   6 C    3.986 --     8 C    1.034    31 H    0.976    30 H    0.971
                            29 H    0.941
    10   6 C    3.987 --     8 C    1.032    33 H    0.977    32 H    0.973
                            34 H    0.947
    11   7 N    3.047 --     8 C    1.129    35 H    0.913     7 C    0.784
    12   6 C    3.863 --    14 O    1.730    15 C    1.018    13 C    1.015
    13   6 C    3.989 --    12 C    1.015    36 H    0.981    38 H    0.955
                            37 H    0.954
    14   8 O    1.991 --    12 C    1.730
    15   6 C    3.871 --    16 N    1.585    20 O    1.050    12 C    1.018
    16   7 N    3.042 --    15 C    1.585    17 N    1.224
    17   7 N    2.984 --    18 C    1.578    16 N    1.224
    18   6 C    3.866 --    17 N    1.578    20 O    1.090    19 C    1.034
    19   6 C    3.984 --    18 C    1.034    41 H    0.982    39 H    0.961
                            40 H    0.959
    20   8 O    2.327 --    18 C    1.090    15 C    1.050
    21   7 N    2.997 --     7 C    1.263    22 C    1.230    23 O    0.137
                             6 N    0.135
    22   6 C    3.928 --    23 O    1.549    21 N    1.230    24 C    1.028
    23   8 O    1.842 --    22 C    1.549    21 N    0.137
    24   6 C    3.885 --     5 C    1.384    25 O    1.151    22 C    1.028
    25   8 O    2.108 --    24 C    1.151    42 H    0.796
    26   1 H    1.006 --     1 C    0.980
    27   1 H    1.006 --     1 C    0.980
    28   1 H    1.009 --     1 C    0.986
    29   1 H    1.020 --     9 C    0.941
    30   1 H    0.999 --     9 C    0.971
    31   1 H    1.013 --     9 C    0.976
    32   1 H    1.000 --    10 C    0.973
    33   1 H    1.018 --    10 C    0.977
    34   1 H    1.008 --    10 C    0.947
    35   1 H    0.968 --    11 N    0.913
    36   1 H    0.998 --    13 C    0.981
    37   1 H    0.996 --    13 C    0.954
    38   1 H    0.997 --    13 C    0.955
    39   1 H    0.995 --    19 C    0.961
    40   1 H    0.995 --    19 C    0.959
    41   1 H    0.997 --    19 C    0.982
    42   1 H    0.851 --    25 O    0.796
 ---------------------------------------------------------------------------

           -------------------------------------------------
          | TOTAL ENERGY              -82.918565679756 Eh   |
          | GRADIENT NORM               0.000332520491 Eh/α |
          | HOMO-LUMO GAP               1.525889578899 eV   |
           -------------------------------------------------

 * finished run on 2023/06/20 at 18:20:55.293
