   * xtb version 6.5.1 (579679a) compiled by 'ehlert@majestix' on 2022-07-11
          program call               : /lustre/hpc/kemi/ree/PhD/git/ReactivityQM/dep/xtb-6.5.1/bin/xtb --gfn 1 /lustre/hpc/kemi/ree/PhD/git/ReactivityQM/calculations/R02oxygendeprot/reac01prodN12/conf14/R02oxygendeprot_reac01prodN12_conf14_gfn1.xyz --opt --vfukui --chrg 0 --uhf 0 --alpb DMSO

   ID    Z sym.   atoms
    1    6 C      1, 3, 5, 7-10, 12, 14, 15, 18, 19, 22, 24
    2    8 O      2, 4, 13, 20, 23, 25
    3    7 N      6, 11, 16, 17, 21
    4    1 H      26-42

      * Solvation model:               ALPB
        Solvent                        DMSO
        Solvent mass                       7.8130E+01 g/mol
          :  Hamiltonian                  GFN1-xTB          :
 * total energy  :   -82.9294061 Eh     change       -0.8024443E-09 Eh
 * total energy  :   -82.9399102 Eh     change       -0.1050410E-01 Eh
 * total energy  :   -82.9437244 Eh     change       -0.3814175E-02 Eh
 * total energy  :   -82.9444380 Eh     change       -0.7136266E-03 Eh
 * total energy  :   -82.9450159 Eh     change       -0.5778886E-03 Eh
 * total energy  :   -82.9453491 Eh     change       -0.3331506E-03 Eh
 * total energy  :   -82.9455659 Eh     change       -0.2167958E-03 Eh
 * total energy  :   -82.9456812 Eh     change       -0.1153433E-03 Eh
 * total energy  :   -82.9457416 Eh     change       -0.6042086E-04 Eh
 * total energy  :   -82.9457851 Eh     change       -0.4347779E-04 Eh
 * total energy  :   -82.9465254 Eh     change       -0.1614963E-04 Eh
 * total energy  :   -82.9465359 Eh     change       -0.1048618E-04 Eh
 * total energy  :   -82.9465484 Eh     change       -0.1247078E-04 Eh
 * total energy  :   -82.9465638 Eh     change       -0.1540826E-04 Eh
 * total energy  :   -82.9465759 Eh     change       -0.1214371E-04 Eh
 * total energy  :   -82.9465896 Eh     change       -0.1368928E-04 Eh
 * total energy  :   -82.9466006 Eh     change       -0.1096447E-04 Eh
 * total energy  :   -82.9466073 Eh     change       -0.6674794E-05 Eh
 * total energy  :   -82.9466109 Eh     change       -0.3636233E-05 Eh
   *** GEOMETRY OPTIMIZATION CONVERGED AFTER 37 ITERATIONS ***

 final structure:
================
42
 xtb: 6.5.1 (579679a)
C           -5.41964994349725        1.38291251297824       -2.10380026508269
O           -4.36315054297913        0.79693898774048       -1.34465722727857
C           -4.45948337877208       -0.52837185074119       -1.12057433112658
O           -5.38700686667536       -1.18594469852210       -1.54228592144913
C           -3.32559670826327       -1.03796494601061       -0.32298738190592
N           -2.39211429308877       -0.11637455120826        0.02578873504274
C           -1.37007260276226       -0.44758032253513        0.74771964668701
C           -0.35404889991521        0.59667979041623        1.14257954686960
C           -0.62132016316392        1.89921710436679        0.38740367736577
C           -0.38749642424986        0.80931172366306        2.66168248228993
N            0.96913584270344        0.05611451568359        0.75598941316774
C            2.10408614802485        0.71359873156731        0.95676109247432
O            2.25549503623755        1.80283477598519        1.45319550677047
C            3.38556114903244       -0.11442111683498        0.50302923428699
C            4.23554089965747       -0.34375317164511        1.75174558526494
N            3.01607874190026       -1.30758215123600       -0.16790670838304
N            3.41618080846277       -1.23774576259286       -1.39800367856330
C            4.05416700977936       -0.07347303579567       -1.56443556251012
C            4.67209583976662        0.39849709491265       -2.81137735131603
O            4.08181111408352        0.64137600034732       -0.46939165744597
N           -1.17544542012273       -1.72650970979779        1.18722012441418
C           -2.02845684845879       -2.77810493500055        0.90351385354909
O           -1.78635722984540       -3.89087886545645        1.33324749116571
C           -3.23038708398255       -2.42034472642621        0.05236600950681
O           -4.03157366208795       -3.30235901858615       -0.25707577236844
H           -6.38205525469238        1.20776984155886       -1.61477813308582
H           -5.44529628128432        0.95739464648219       -3.11083461387642
H           -5.21398838018820        2.45031211249887       -2.15437077450454
H           -0.55941184656141        1.72631981647304       -0.68570050932372
H            0.10452104940720        2.65694893125134        0.67336560082112
H           -1.62237250989589        2.25273070763625        0.62930361119799
H           -0.10464050111591       -0.10765923284168        3.17478872888181
H            0.30290496796920        1.60099532515793        2.94504645397327
H           -1.39468972304700        1.09099627642237        2.96477244904612
H            1.01270984697615       -0.85269381872398        0.31645111374902
H            3.69420389723190       -0.99002768517854        2.43785608157682
H            5.17297764385854       -0.81348936971473        1.46387715277044
H            4.43148698878218        0.61748645120779        2.22302043978061
H            4.45712620133502        1.45605647279058       -2.95895070562065
H            5.75618658013600        0.29056315625295       -2.73697924747059
H            4.31502409892081       -0.18794298475501       -3.65418583283639
H           -0.38268129961274       -1.94183102178717        1.76913164350584

          :  Hamiltonian                  GFN1-xTB          :
         :: total energy             -82.946610899746 Eh    ::
         :: gradient norm              0.000552144714 Eh/a0 ::
         :: HOMO-LUMO gap              0.091570225162 eV    ::
         :: SCC energy               -83.717848534198 Eh    ::
         :: -> Gsolv                  -0.078468913534 Eh    ::
         :: repulsion energy           0.797448837961 Eh    ::

    * Orbital Energies and Occupations

         #    Occupation            Energy/Eh            Energy/eV
      -------------------------------------------------------------
         1        2.0000           -0.8894686             -24.2037
       ...           ...                  ...                  ...
        55        2.0000           -0.5114678             -13.9177
        56        2.0000           -0.5095265             -13.8649
        57        2.0000           -0.5064336             -13.7808
        58        2.0000           -0.4965189             -13.5110
        59        2.0000           -0.4879170             -13.2769
        60        2.0000           -0.4875895             -13.2680
        61        2.0000           -0.4791073             -13.0372
        62        2.0000           -0.4756835             -12.9440
        63        2.0000           -0.4735607             -12.8862
        64        2.0000           -0.4688783             -12.7588
        65        2.0000           -0.4550179             -12.3817
        66        2.0000           -0.4152785             -11.3003
        67        1.7092           -0.4017669             -10.9326 (HOMO)
        68        0.2908           -0.3984017             -10.8411 (LUMO)
        69                         -0.3036791              -8.2635
        70                         -0.2919249              -7.9437
        71                         -0.2808282              -7.6417
        72                         -0.2784011              -7.5757
        73                         -0.2288554              -6.2275
        74                         -0.1591428              -4.3305
        75                         -0.1489325              -4.0527
        76                         -0.1423721              -3.8741
        77                         -0.1363552              -3.7104
        78                         -0.1332917              -3.6271
       ...                                ...                  ...
       134                          0.7543577              20.5271
      -------------------------------------------------------------
                  HL-Gap            0.0033651 Eh            0.0916 eV

Wiberg/Mayer (AO) data.
largest (>0.10) Wiberg bond orders for each atom

     #   Z sym  total        # sym  WBO       # sym  WBO       # sym  WBO
 ---------------------------------------------------------------------------
     1   6 C    3.881 --    28 H    0.986    27 H    0.980    26 H    0.979
                             2 O    0.908
     2   8 O    2.167 --     3 C    1.077     1 C    0.908     4 O    0.126
     3   6 C    3.841 --     4 O    1.638     2 O    1.077     5 C    1.043
     4   8 O    1.883 --     3 C    1.638     2 O    0.126
     5   6 C    3.739 --     6 N    1.258    24 C    1.185     3 C    1.043
     6   7 N    3.000 --     7 C    1.522     5 C    1.258
     7   6 C    3.834 --     6 N    1.522    21 N    1.156     8 C    0.984
     8   6 C    3.918 --     9 C    0.995     7 C    0.984    10 C    0.980
                            11 N    0.892
     9   6 C    3.988 --     8 C    0.995    29 H    0.984    31 H    0.983
                            30 H    0.981
    10   6 C    3.982 --    34 H    0.984    32 H    0.983     8 C    0.980
                            33 H    0.979
    11   7 N    3.359 --    12 C    1.327     8 C    0.892    35 H    0.881
                            13 O    0.177
    12   6 C    3.870 --    13 O    1.643    11 N    1.327    14 C    0.798
    13   8 O    1.988 --    12 C    1.643    11 N    0.177
    14   6 C    3.847 --    16 N    1.074    15 C    0.934    20 O    0.902
                            12 C    0.798
    15   6 C    3.938 --    36 H    0.981    37 H    0.979    38 H    0.978
                            14 C    0.934
    16   7 N    2.747 --    17 N    1.473    14 C    1.074
    17   7 N    2.955 --    16 N    1.473    18 C    1.332
    18   6 C    3.701 --    17 N    1.332    20 O    1.192    19 C    1.052
    19   6 C    3.973 --    18 C    1.052    41 H    0.976    39 H    0.957
                            40 H    0.933
    20   8 O    2.252 --    18 C    1.192    14 C    0.902
    21   7 N    3.421 --     7 C    1.156    22 C    1.116    42 H    0.887
                            23 O    0.119
    22   6 C    3.846 --    23 O    1.640    21 N    1.116    24 C    0.952
    23   8 O    1.872 --    22 C    1.640    21 N    0.119
    24   6 C    3.884 --    25 O    1.598     5 C    1.185    22 C    0.952
    25   8 O    1.796 --    24 C    1.598
    26   1 H    1.009 --     1 C    0.979
    27   1 H    1.008 --     1 C    0.980
    28   1 H    1.013 --     1 C    0.986
    29   1 H    1.006 --     9 C    0.984
    30   1 H    1.006 --     9 C    0.981
    31   1 H    1.009 --     9 C    0.983
    32   1 H    1.000 --    10 C    0.983
    33   1 H    1.003 --    10 C    0.979
    34   1 H    0.999 --    10 C    0.984
    35   1 H    0.948 --    11 N    0.881
    36   1 H    0.995 --    15 C    0.981
    37   1 H    0.994 --    15 C    0.979
    38   1 H    0.999 --    15 C    0.978
    39   1 H    0.986 --    19 C    0.957
    40   1 H    0.978 --    19 C    0.933
    41   1 H    0.993 --    19 C    0.976
    42   1 H    0.932 --    21 N    0.887
 ---------------------------------------------------------------------------

           -------------------------------------------------
          | TOTAL ENERGY              -82.946610899746 Eh   |
          | GRADIENT NORM               0.000552144714 Eh/α |
          | HOMO-LUMO GAP               0.091570225162 eV   |
           -------------------------------------------------

 * finished run on 2023/06/21 at 17:27:20.116
