   * xtb version 6.5.1 (579679a) compiled by 'ehlert@majestix' on 2022-07-11
          program call               : /lustre/hpc/kemi/ree/PhD/git/ReactivityQM/dep/xtb-6.5.1/bin/xtb --gfn 1 /lustre/hpc/kemi/ree/PhD/git/ReactivityQM/calculations/R03/reac02prodN12/conf04/R03_reac02prodN12_conf04_gfn1.xyz --opt --vfukui --chrg 1 --uhf 0 --alpb DMSO

   ID    Z sym.   atoms
    1    6 C      1, 3, 5, 7-10, 12, 14, 15, 18, 19, 22, 23, 25
    2    8 O      2, 4, 13, 20, 24, 26
    3    7 N      6, 11, 16, 17, 21
    4    1 H      27-46

      * Solvation model:               ALPB
        Solvent                        DMSO
        Solvent mass                       7.8130E+01 g/mol
          :  Hamiltonian                  GFN1-xTB          :
 * total energy  :   -86.2909020 Eh     change       -0.4436913E-09 Eh
 * total energy  :   -86.3058920 Eh     change       -0.1499007E-01 Eh
 * total energy  :   -86.3119836 Eh     change       -0.6091561E-02 Eh
 * total energy  :   -86.3129209 Eh     change       -0.9372688E-03 Eh
 * total energy  :   -86.3133544 Eh     change       -0.4335223E-03 Eh
 * total energy  :   -86.3134882 Eh     change       -0.1337932E-03 Eh
 * total energy  :   -86.3136454 Eh     change       -0.1572240E-03 Eh
 * total energy  :   -86.3137846 Eh     change       -0.1392108E-03 Eh
 * total energy  :   -86.3139157 Eh     change       -0.1311241E-03 Eh
 * total energy  :   -86.3140114 Eh     change       -0.9564115E-04 Eh
 * total energy  :   -86.3145725 Eh     change       -0.9809665E-05 Eh
 * total energy  :   -86.3146007 Eh     change       -0.2811864E-04 Eh
 * total energy  :   -86.3146169 Eh     change       -0.1621334E-04 Eh
 * total energy  :   -86.3146267 Eh     change       -0.9801567E-05 Eh
 * total energy  :   -86.3146345 Eh     change       -0.7799730E-05 Eh
 * total energy  :   -86.3146420 Eh     change       -0.7547468E-05 Eh
 * total energy  :   -86.3146492 Eh     change       -0.7156795E-05 Eh
 * total energy  :   -86.3146549 Eh     change       -0.5774675E-05 Eh
 * total energy  :   -86.3146598 Eh     change       -0.4844721E-05 Eh
   *** GEOMETRY OPTIMIZATION CONVERGED AFTER 39 ITERATIONS ***

 final structure:
================
46
 xtb: 6.5.1 (579679a)
C           -4.76138034965479        0.74142876825113       -4.39923062068357
O           -4.27737133592283        0.73541386278660       -3.05169480380652
C           -3.13476001079318        0.09401034047955       -2.83176285304108
O           -2.50523342750370       -0.46814107904737       -3.69767516182123
C           -2.70602576564768        0.13362156988350       -1.40056046772840
N           -1.53788305953266       -0.53463059827861       -1.15347192013461
C           -1.02998557938083       -0.61083231499920        0.03059154372937
C            0.23929041233113       -1.44638899050267        0.14710799340041
C           -0.01973004277744       -2.71214858259926        0.96741236148569
C            0.74313524923619       -1.81102398045502       -1.25399996056109
N            1.28930620934654       -0.59068457385638        0.76467633660236
C            2.35661334470713       -1.07389122668254        1.36756830382046
O            2.62350848862497       -2.18165575899703        1.73042815756123
C            3.43853162729890        0.10530563469707        1.70978353149225
C            4.68400112345041       -0.54630324700024        2.29150372019660
N            2.75732804518520        1.00506167388730        2.54280413032742
N            2.57763748729302        2.10374737004755        1.93058747875868
C            3.17591859775622        2.00178969998924        0.70530588541186
C            3.24138160926242        3.05493963555635       -0.30306707374585
O            3.69751645367042        0.83628591704444        0.54122403033458
N           -1.62728213623057       -0.02435557561154        1.11986073823068
C           -1.11145763561628       -0.09446536236314        2.48814642482005
C           -2.81382652872085        0.67748312545292        0.98215843188842
O           -3.37943353116135        1.20932865253820        1.92918237113782
C           -3.35964815357941        0.74732999301551       -0.36877587059588
O           -4.50102417270003        1.42706560761129       -0.48327264496291
H           -5.67825371222438        1.32752202545119       -4.39693816990321
H           -4.96316900848777       -0.28056554887260       -4.72900359244438
H           -4.02041690127729        1.19574472828758       -5.06081415508334
H           -0.07088335863479       -2.49585069184760        2.03101879741559
H           -0.96625951294872       -3.14648678811418        0.64718140731043
H            0.77125118202074       -3.44043127490616        0.79890107350511
H            1.68145032394583       -2.35592714353606       -1.17187937534885
H            0.00529748114013       -2.43282098461802       -1.75830307938539
H            0.90324390382068       -0.90790017962714       -1.83971829860163
H            1.28538058962363        0.37376276272577        0.47607729518852
H            4.40817162960037       -1.07182887580596        3.20301001938091
H            5.08717770377111       -1.25107613380871        1.56775449170760
H            5.41790045021722        0.22632556175508        2.50852012869036
H            3.50400055857581        2.64220920224342       -1.27476201802165
H            2.29894767966053        3.60033588761585       -0.34264657794616
H            4.01508876179320        3.76874634711197       -0.00214171222150
H           -1.48885900578447       -0.99300046449461        2.97579075944102
H           -0.02790031685903       -0.09455042106222        2.48086416976609
H           -1.47247539468547        0.78346571636138        3.02342017231953
H           -4.74881997225123        1.77403671428459        0.39541360210703

          :  Hamiltonian                  GFN1-xTB          :
         :: total energy             -86.314659793718 Eh    ::
         :: gradient norm              0.000657286922 Eh/a0 ::
         :: HOMO-LUMO gap              0.371200073800 eV    ::
         :: SCC energy               -87.145379351751 Eh    ::
         :: -> Gsolv                  -0.116507535173 Eh    ::
         :: repulsion energy           0.861062069100 Eh    ::

    * Orbital Energies and Occupations

         #    Occupation            Energy/Eh            Energy/eV
      -------------------------------------------------------------
         1        2.0000           -0.9367571             -25.4905
       ...           ...                  ...                  ...
        58        2.0000           -0.5341842             -14.5359
        59        2.0000           -0.5290323             -14.3957
        60        2.0000           -0.5212161             -14.1830
        61        2.0000           -0.5178207             -14.0906
        62        2.0000           -0.5172864             -14.0761
        63        2.0000           -0.5071911             -13.8014
        64        2.0000           -0.5008679             -13.6293
        65        2.0000           -0.4978532             -13.5473
        66        2.0000           -0.4930592             -13.4168
        67        2.0000           -0.4874773             -13.2649
        68        2.0000           -0.4714488             -12.8288
        69        2.0000           -0.4596332             -12.5073
        70        1.9985           -0.4417424             -12.0204 (HOMO)
        71        0.0015           -0.4281010             -11.6492 (LUMO)
        72                         -0.3344983              -9.1022
        73                         -0.3333410              -9.0707
        74                         -0.3070270              -8.3546
        75                         -0.2996021              -8.1526
        76                         -0.2491657              -6.7801
        77                         -0.1781262              -4.8471
        78                         -0.1690400              -4.5998
        79                         -0.1573919              -4.2829
        80                         -0.1547597              -4.2112
        81                         -0.1429113              -3.8888
       ...                                ...                  ...
       144                          0.7372123              20.0606
      -------------------------------------------------------------
                  HL-Gap            0.0136414 Eh            0.3712 eV

Wiberg/Mayer (AO) data.
largest (>0.10) Wiberg bond orders for each atom

     #   Z sym  total        # sym  WBO       # sym  WBO       # sym  WBO
 ---------------------------------------------------------------------------
     1   6 C    3.868 --    27 H    0.986    29 H    0.979    28 H    0.979
                             2 O    0.893
     2   8 O    2.208 --     3 C    1.122     1 C    0.893     4 O    0.137
     3   6 C    3.854 --     4 O    1.660     2 O    1.122     5 C    0.993
     4   8 O    1.923 --     3 C    1.660     2 O    0.137
     5   6 C    3.956 --    25 C    1.491     6 N    1.184     3 C    0.993
     6   7 N    3.033 --     7 C    1.583     5 C    1.184
     7   6 C    3.936 --     6 N    1.583    21 N    1.164     8 C    0.972
     8   6 C    3.901 --    10 C    0.990     9 C    0.990     7 C    0.972
                            11 N    0.870
     9   6 C    3.983 --     8 C    0.990    31 H    0.980    30 H    0.980
                            32 H    0.976
    10   6 C    3.986 --     8 C    0.990    33 H    0.984    35 H    0.982
                            34 H    0.980
    11   7 N    3.391 --    12 C    1.354    36 H    0.890     8 C    0.870
                            13 O    0.181
    12   6 C    3.903 --    13 O    1.686    11 N    1.354    14 C    0.704
    13   8 O    2.084 --    12 C    1.686    11 N    0.181
    14   6 C    3.834 --    16 N    1.117    15 C    0.933    20 O    0.913
                            12 C    0.704
    15   6 C    3.950 --    38 H    0.976    39 H    0.975    37 H    0.975
                            14 C    0.933
    16   7 N    3.001 --    17 N    1.614    14 C    1.117
    17   7 N    3.014 --    16 N    1.614    18 C    1.221
    18   6 C    3.808 --    20 O    1.272    17 N    1.221    19 C    1.076
    19   6 C    3.963 --    18 C    1.076    40 H    0.967    41 H    0.947
                            42 H    0.905
    20   8 O    2.373 --    18 C    1.272    14 C    0.913
    21   7 N    3.506 --     7 C    1.164    23 C    1.128    22 C    0.926
                            24 O    0.135
    22   6 C    3.917 --    44 H    0.979    43 H    0.973    45 H    0.972
                            21 N    0.926
    23   6 C    3.911 --    24 O    1.567    21 N    1.128    25 C    1.068
    24   8 O    1.910 --    23 C    1.567    21 N    0.135
    25   6 C    3.917 --     5 C    1.491    26 O    1.119    23 C    1.068
    26   8 O    2.094 --    25 C    1.119    46 H    0.801
    27   1 H    1.010 --     1 C    0.986
    28   1 H    1.006 --     1 C    0.979
    29   1 H    1.007 --     1 C    0.979
    30   1 H    1.000 --     9 C    0.980
    31   1 H    0.997 --     9 C    0.980
    32   1 H    1.003 --     9 C    0.976
    33   1 H    0.998 --    10 C    0.984
    34   1 H    1.006 --    10 C    0.980
    35   1 H    1.006 --    10 C    0.982
    36   1 H    0.930 --    11 N    0.890
    37   1 H    0.996 --    15 C    0.975
    38   1 H    0.994 --    15 C    0.976
    39   1 H    0.991 --    15 C    0.975
    40   1 H    0.985 --    19 C    0.967
    41   1 H    0.984 --    19 C    0.947
    42   1 H    0.973 --    19 C    0.905
    43   1 H    0.999 --    22 C    0.973
    44   1 H    1.008 --    22 C    0.979
    45   1 H    1.004 --    22 C    0.972
    46   1 H    0.843 --    26 O    0.801
 ---------------------------------------------------------------------------

           -------------------------------------------------
          | TOTAL ENERGY              -86.314659793718 Eh   |
          | GRADIENT NORM               0.000657286922 Eh/α |
          | HOMO-LUMO GAP               0.371200073800 eV   |
           -------------------------------------------------

 * finished run on 2023/06/20 at 15:47:45.509
