                         Program Version 5.0.1 -  RELEASE  -
|  1> # ORCA input file
|  2> ! SP r2SCAN-3c CPCM
|  3>
|  4> %maxcore 1875.0
|  5> %pal nprocs 4 end
|  6> %cpcm smd true SMDsolvent "DMSO" end
|  7>
|  8> *xyz -1 1
|  9> C       3.748699   -2.592623    0.680373
| 10> O       2.557871   -1.867437    0.396925
| 11> C       2.680417   -0.523288    0.347891
| 12> O       3.770470    0.015210    0.548966
| 13> C       1.450530    0.187960    0.048468
| 14> C       1.431942    1.550587   -0.051470
| 15> O       2.529278    2.306093    0.119737
| 16> C       0.167299    2.345605   -0.504465
| 17> C      -0.031718    3.527307    0.506368
| 18> O       0.179821    2.679568   -1.754351
| 19> N      -0.990509    1.371334   -0.165786
| 20> C      -0.829014    0.034786   -0.264960
| 21> C      -2.108550   -0.785586   -0.385029
| 22> C      -2.716429   -0.914683    1.018745
| 23> C      -1.801200   -2.173653   -0.961060
| 24> N      -3.060182   -0.062220   -1.231241
| 25> N       0.291892   -0.593215   -0.133237
| 26> H       4.509300   -2.396306   -0.081212
| 27> H       4.146612   -2.310416    1.659500
| 28> H       3.485763   -3.649289    0.677845
| 29> H       3.305836    1.734093    0.324646
| 30> H      -0.943861    4.060918    0.246403
| 31> H      -0.104744    3.157506    1.527770
| 32> H       0.813441    4.208619    0.422458
| 33> H      -1.887473    1.706109   -0.499874
| 34> H      -2.000001   -1.379966    1.696057
| 35> H      -3.617078   -1.526816    0.986883
| 36> H      -2.976152    0.071896    1.403079
| 37> H      -1.357236   -2.080432   -1.952154
| 38> H      -2.715640   -2.759370   -1.038473
| 39> H      -1.096131   -2.694934   -0.312893
| 40> H      -3.989631   -0.419954   -1.069554
| 41> H      -2.843622   -0.227401   -2.206356
| 42> **                         ****END OF INPUT****

CARTESIAN COORDINATES (ANGSTROEM)
---------------------------------
  C      3.748699   -2.592623    0.680373
  O      2.557871   -1.867437    0.396925
  C      2.680417   -0.523288    0.347891
  O      3.770470    0.015210    0.548966
  C      1.450530    0.187960    0.048468
  C      1.431942    1.550587   -0.051470
  O      2.529278    2.306093    0.119737
  C      0.167299    2.345605   -0.504465
  C     -0.031718    3.527307    0.506368
  O      0.179821    2.679568   -1.754351
  N     -0.990509    1.371334   -0.165786
  C     -0.829014    0.034786   -0.264960
  C     -2.108550   -0.785586   -0.385029
  C     -2.716429   -0.914683    1.018745
  C     -1.801200   -2.173653   -0.961060
  N     -3.060182   -0.062220   -1.231241
  N      0.291892   -0.593215   -0.133237
  H      4.509300   -2.396306   -0.081212
  H      4.146612   -2.310416    1.659500
  H      3.485763   -3.649289    0.677845
  H      3.305836    1.734093    0.324646
  H     -0.943861    4.060918    0.246403
  H     -0.104744    3.157506    1.527770
  H      0.813441    4.208619    0.422458
  H     -1.887473    1.706109   -0.499874
  H     -2.000001   -1.379966    1.696057
  H     -3.617078   -1.526816    0.986883
  H     -2.976152    0.071896    1.403079
  H     -1.357236   -2.080432   -1.952154
  H     -2.715640   -2.759370   -1.038473
  H     -1.096131   -2.694934   -0.312893
  H     -3.989631   -0.419954   -1.069554
  H     -2.843622   -0.227401   -2.206356

 Total Charge           Charge          ....   -1
 Multiplicity           Mult            ....    1
 Number of Electrons    NEL             ....  130
 Basis Dimension        Dim             ....  438

ORBITAL ENERGIES
----------------

  NO   OCC          E(Eh)            E(eV)
   0   2.0000     -18.983569      -516.5692
   1   2.0000     -18.965795      -516.0855
   2   2.0000     -18.927811      -515.0519
   3   2.0000     -18.826439      -512.2935
   4   2.0000     -14.137085      -384.6896
   5   2.0000     -14.128586      -384.4584
   6   2.0000     -14.108991      -383.9252
   7   2.0000     -10.141633      -275.9679
   8   2.0000     -10.082132      -274.3488
   9   2.0000     -10.077393      -274.2198
  10   2.0000     -10.067619      -273.9539
  11   2.0000     -10.065324      -273.8914
  12   2.0000     -10.059857      -273.7426
  13   2.0000     -10.037056      -273.1222
  14   2.0000     -10.009829      -272.3813
  15   2.0000     -10.002062      -272.1699
  16   2.0000      -9.989075      -271.8165
  17   2.0000      -1.057222       -28.7685
  18   2.0000      -1.013246       -27.5718
  19   2.0000      -0.964923       -26.2569
  20   2.0000      -0.920760       -25.0552
  21   2.0000      -0.880903       -23.9706
  22   2.0000      -0.846483       -23.0340
  23   2.0000      -0.803106       -21.8536
  24   2.0000      -0.727649       -19.8003
  25   2.0000      -0.698338       -19.0027
  26   2.0000      -0.679383       -18.4869
  27   2.0000      -0.654653       -17.8140
  28   2.0000      -0.642721       -17.4893
  29   2.0000      -0.599268       -16.3069
  30   2.0000      -0.578343       -15.7375
  31   2.0000      -0.531020       -14.4498
  32   2.0000      -0.506497       -13.7825
  33   2.0000      -0.497274       -13.5315
  34   2.0000      -0.477646       -12.9974
  35   2.0000      -0.461316       -12.5531
  36   2.0000      -0.450051       -12.2465
  37   2.0000      -0.436846       -11.8872
  38   2.0000      -0.430994       -11.7279
  39   2.0000      -0.413910       -11.2631
  40   2.0000      -0.407241       -11.0816
  41   2.0000      -0.388101       -10.5608
  42   2.0000      -0.380981       -10.3670
  43   2.0000      -0.373889       -10.1740
  44   2.0000      -0.366915        -9.9843
  45   2.0000      -0.357713        -9.7339
  46   2.0000      -0.349092        -9.4993
  47   2.0000      -0.345680        -9.4064
  48   2.0000      -0.340166        -9.2564
  49   2.0000      -0.335007        -9.1160
  50   2.0000      -0.330143        -8.9836
  51   2.0000      -0.323186        -8.7943
  52   2.0000      -0.313010        -8.5174
  53   2.0000      -0.306865        -8.3502
  54   2.0000      -0.302781        -8.2391
  55   2.0000      -0.296785        -8.0759
  56   2.0000      -0.288395        -7.8476
  57   2.0000      -0.263332        -7.1656
  58   2.0000      -0.246821        -6.7163
  59   2.0000      -0.233667        -6.3584
  60   2.0000      -0.214566        -5.8386
  61   2.0000      -0.200225        -5.4484
  62   2.0000      -0.168352        -4.5811
  63   2.0000      -0.150972        -4.1081
  64   2.0000      -0.142002        -3.8641
  65   0.0000      -0.039879        -1.0852
  66   0.0000       0.013844         0.3767
  67   0.0000       0.064523         1.7558
  68   0.0000       0.086770         2.3611
  69   0.0000       0.095229         2.5913

MULLIKEN ATOMIC CHARGES
-----------------------
   0 C :   -0.327481
   1 O :   -0.192815
   2 C :    0.237004
   3 O :   -0.503528
   4 C :   -0.140036
   5 C :    0.048892
   6 O :   -0.368461
   7 C :   -0.085839
   8 C :   -0.583728
   9 O :   -0.450415
  10 N :   -0.166581
  11 C :    0.184287
  12 C :    0.202140
  13 C :   -0.597440
  14 C :   -0.583296
  15 N :   -0.687074
  16 N :   -0.204027
  17 H :    0.169641
  18 H :    0.169048
  19 H :    0.169204
  20 H :    0.355357
  21 H :    0.162318
  22 H :    0.156854
  23 H :    0.161935
  24 H :    0.280852
  25 H :    0.177988
  26 H :    0.171362
  27 H :    0.174549
  28 H :    0.167747
  29 H :    0.164578
  30 H :    0.170775
  31 H :    0.286796
  32 H :    0.279395
Sum of atomic charges:   -1.0000000

LOEWDIN ATOMIC CHARGES
----------------------
   0 C :   -0.047513
   1 O :   -0.590359
   2 C :    0.399175
   3 O :   -0.518015
   4 C :    0.110786
   5 C :    0.278936
   6 O :   -0.484913
   7 C :    0.221856
   8 C :   -0.393196
   9 O :   -0.716371
  10 N :   -0.601295
  11 C :    0.302761
  12 C :    0.056039
  13 C :   -0.363469
  14 C :   -0.381924
  15 N :   -0.702994
  16 N :   -0.657608
  17 H :    0.177164
  18 H :    0.176796
  19 H :    0.181188
  20 H :    0.305421
  21 H :    0.157009
  22 H :    0.155191
  23 H :    0.160969
  24 H :    0.283388
  25 H :    0.168124
  26 H :    0.162386
  27 H :    0.167515
  28 H :    0.164375
  29 H :    0.157336
  30 H :    0.168376
  31 H :    0.251782
  32 H :    0.251084

  Mayer bond orders larger than 0.100000
B(  0-C ,  1-O ) :   0.8380 B(  0-C , 17-H ) :   0.9608 B(  0-C , 18-H ) :   0.9608
B(  0-C , 19-H ) :   0.9651 B(  1-O ,  2-C ) :   1.1392 B(  2-C ,  3-O ) :   1.6850
B(  2-C ,  4-C ) :   1.1688 B(  3-O , 20-H ) :   0.1024 B(  4-C ,  5-C ) :   1.4453
B(  4-C , 16-N ) :   0.9079 B(  5-C ,  6-O ) :   1.1396 B(  5-C ,  7-C ) :   0.8551
B(  6-O , 20-H ) :   0.7671 B(  7-C ,  8-C ) :   0.8917 B(  7-C ,  9-O ) :   1.8570
B(  7-C , 10-N ) :   0.6559 B(  8-C , 21-H ) :   0.9768 B(  8-C , 22-H ) :   0.9805
B(  8-C , 23-H ) :   0.9802 B(  9-O , 10-N ) :  -0.1255 B( 10-N , 11-C ) :   1.2652
B( 10-N , 24-H ) :   0.8656 B( 11-C , 12-C ) :   0.8626 B( 11-C , 16-N ) :   1.7110
B( 12-C , 13-C ) :   0.8923 B( 12-C , 14-C ) :   0.9644 B( 12-C , 15-N ) :   0.8820
B( 13-C , 25-H ) :   0.9781 B( 13-C , 26-H ) :   0.9660 B( 13-C , 27-H ) :   0.9747
B( 14-C , 28-H ) :   0.9730 B( 14-C , 29-H ) :   0.9733 B( 14-C , 30-H ) :   0.9756
B( 15-N , 31-H ) :   0.9133 B( 15-N , 32-H ) :   0.9110

Dispersion correction           -0.013417530
FINAL SINGLE POINT ENERGY      -855.831422152918

DIPOLE MOMENT
-------------
                                X             Y             Z
Electronic contribution:     12.23156       4.56958      -1.64528
Nuclear contribution   :    -13.46736      -8.13149       3.23898
                        -----------------------------------------
Total Dipole Moment    :     -1.23580      -3.56191       1.59371
                        -----------------------------------------
Magnitude (a.u.)       :      4.09320
Magnitude (Debye)      :     10.40409

Rotational constants in cm-1:     0.019201     0.013054     0.008596
Rotational constants in MHz :   575.623738   391.354352   257.714274

                             ****ORCA TERMINATED NORMALLY****
TOTAL RUN TIME: 0 days 0 hours 1 minutes 12 seconds 299 msec
