   * xtb version 6.5.1 (579679a) compiled by 'ehlert@majestix' on 2022-07-11
          program call               : /lustre/hpc/kemi/ree/PhD/git/ReactivityQM/dep/xtb-6.5.1/bin/xtb --gfn 1 /lustre/hpc/kemi/ree/PhD/git/ReactivityQM/calculations/R01/reac02prodE06/conf14/R01_reac02prodE06_conf14_gfn1.xyz --opt --vfukui --chrg -1 --uhf 0 --alpb DMSO

   ID    Z sym.   atoms
    1    6 C      1, 3, 5, 6, 8, 9, 12-15
    2    8 O      2, 4, 7, 10
    3    7 N      11, 16, 17
    4    1 H      18-33

      * Solvation model:               ALPB
        Solvent                        DMSO
        Solvent mass                       7.8130E+01 g/mol
          :  Hamiltonian                  GFN1-xTB          :
 * total energy  :   -58.5373190 Eh     change       -0.8526513E-11 Eh
 * total energy  :   -58.5446839 Eh     change       -0.7364886E-02 Eh
 * total energy  :   -58.5475001 Eh     change       -0.2816167E-02 Eh
 * total energy  :   -58.5480613 Eh     change       -0.5612190E-03 Eh
 * total energy  :   -58.5483960 Eh     change       -0.3346854E-03 Eh
 * total energy  :   -58.5485385 Eh     change       -0.1424934E-03 Eh
 * total energy  :   -58.5486696 Eh     change       -0.1311838E-03 Eh
 * total energy  :   -58.5487452 Eh     change       -0.7553717E-04 Eh
 * total energy  :   -58.5488027 Eh     change       -0.5749886E-04 Eh
 * total energy  :   -58.5488418 Eh     change       -0.3915917E-04 Eh
 * total energy  :   -58.5489142 Eh     change       -0.1857646E-04 Eh
 * total energy  :   -58.5489334 Eh     change       -0.1926198E-04 Eh
 * total energy  :   -58.5489500 Eh     change       -0.1654315E-04 Eh
 * total energy  :   -58.5489703 Eh     change       -0.2035468E-04 Eh
 * total energy  :   -58.5489883 Eh     change       -0.1797462E-04 Eh
 * total energy  :   -58.5490031 Eh     change       -0.1483935E-04 Eh
 * total energy  :   -58.5490160 Eh     change       -0.1287614E-04 Eh
 * total energy  :   -58.5490264 Eh     change       -0.1038026E-04 Eh
 * total energy  :   -58.5490307 Eh     change       -0.4316223E-05 Eh
   *** GEOMETRY OPTIMIZATION CONVERGED AFTER 22 ITERATIONS ***

 final structure:
================
33
 xtb: 6.5.1 (579679a)
C            3.74869875437510       -2.59262287971898        0.68037334309313
O            2.55787091852808       -1.86743711383761        0.39692542217993
C            2.68041747700343       -0.52328823034046        0.34789076587782
O            3.77047021192387        0.01521011894701        0.54896626725608
C            1.45052961294576        0.18796016352272        0.04846807066877
C            1.43194232009645        1.55058661589685       -0.05146985296573
O            2.52927781590532        2.30609264836329        0.11973702117035
C            0.16729905131401        2.34560455661175       -0.50446455144397
C           -0.03171793100801        3.52730668759460        0.50636767605245
O            0.17982105954026        2.67956822708964       -1.75435052014304
N           -0.99050932842251        1.37133439995149       -0.16578644109490
C           -0.82901376873880        0.03478593572835       -0.26495960305387
C           -2.10854966937297       -0.78558629492910       -0.38502944009533
C           -2.71642949881254       -0.91468318645681        1.01874497671269
C           -1.80120025320176       -2.17365301423573       -0.96105986241383
N           -3.06018247773690       -0.06222006150944       -1.23124066168331
N            0.29189192401587       -0.59321529800898       -0.13323660375228
H            4.50930013019113       -2.39630642282887       -0.08121169773312
H            4.14661155572124       -2.31041611496613        1.65950040306000
H            3.48576270684761       -3.64928880496045        0.67784464455522
H            3.30583638683750        1.73409339550590        0.32464642664990
H           -0.94386142569578        4.06091816860901        0.24640267500744
H           -0.10474413126481        3.15750574378685        1.52776983406611
H            0.81344115961996        4.20861929630259        0.42245827610045
H           -1.88747321051260        1.70610928123392       -0.49987436653490
H           -2.00000053029047       -1.37996616140557        1.69605744151143
H           -3.61707754406463       -1.52681629399132        0.98688291816023
H           -2.97615216655154        0.07189638658197        1.40307904739278
H           -1.35723645619561       -2.08043198789547       -1.95215422105424
H           -2.71563984853954       -2.75937008565324       -1.03847281274211
H           -1.09613091785370       -2.69493356118152       -0.31289283922331
H           -3.98963137159692       -0.41995355661599       -1.06955433301134
H           -2.84362155500711       -0.22740055719064       -2.20635640256928

          :  Hamiltonian                  GFN1-xTB          :
         :: total energy             -58.549030697922 Eh    ::
         :: gradient norm              0.000334517950 Eh/a0 ::
         :: HOMO-LUMO gap              2.229858070301 eV    ::
         :: SCC energy               -59.086126057434 Eh    ::
         :: -> Gsolv                  -0.113413368187 Eh    ::
         :: repulsion energy           0.555665880208 Eh    ::

    * Orbital Energies and Occupations

         #    Occupation            Energy/Eh            Energy/eV
      -------------------------------------------------------------
         1        2.0000           -0.8078740             -21.9834
       ...           ...                  ...                  ...
        36        2.0000           -0.4741682             -12.9028
        37        2.0000           -0.4729057             -12.8684
        38        2.0000           -0.4706557             -12.8072
        39        2.0000           -0.4659485             -12.6791
        40        2.0000           -0.4527932             -12.3211
        41        2.0000           -0.4476790             -12.1820
        42        2.0000           -0.4361413             -11.8680
        43        2.0000           -0.4152422             -11.2993
        44        2.0000           -0.3974043             -10.8139
        45        2.0000           -0.3838207             -10.4443
        46        2.0000           -0.3609977              -9.8232
        47        2.0000           -0.3471655              -9.4469
        48        2.0000           -0.3444609              -9.3733 (HOMO)
        49                         -0.2625151              -7.1434 (LUMO)
        50                         -0.2129724              -5.7953
        51                         -0.1314300              -3.5764
        52                         -0.1256026              -3.4178
        53                         -0.1096829              -2.9846
        54                         -0.1050475              -2.8585
        55                         -0.0886896              -2.4134
        56                         -0.0850884              -2.3154
        57                         -0.0629164              -1.7120
        58                         -0.0621869              -1.6922
        59                         -0.0618065              -1.6818
       ...                                ...                  ...
       100                          0.6977122              18.9857
      -------------------------------------------------------------
                  HL-Gap            0.0819458 Eh            2.2299 eV

Wiberg/Mayer (AO) data.
largest (>0.10) Wiberg bond orders for each atom

     #   Z sym  total        # sym  WBO       # sym  WBO       # sym  WBO
 ---------------------------------------------------------------------------
     1   6 C    3.892 --    20 H    0.987    19 H    0.980    18 H    0.980
                             2 O    0.918
     2   8 O    2.170 --     3 C    1.068     1 C    0.918     4 O    0.106
     3   6 C    3.839 --     4 O    1.541     5 C    1.106     2 O    1.068
     4   8 O    1.898 --     3 C    1.541     2 O    0.106
     5   6 C    3.946 --     6 C    1.538     3 C    1.106    17 N    1.070
     6   6 C    3.863 --     5 C    1.538     7 O    1.106     8 C    0.899
     7   8 O    2.078 --     6 C    1.106    21 H    0.790
     8   6 C    3.926 --    10 O    1.236     9 C    0.935     6 C    0.899
                            11 N    0.787
     9   6 C    3.991 --    23 H    0.992    22 H    0.987    24 H    0.986
                             8 C    0.935
    10   8 O    1.533 --     8 C    1.236
    11   7 N    3.275 --    12 C    1.240    25 H    0.912     8 C    0.787
                            17 N    0.159
    12   6 C    3.948 --    17 N    1.585    11 N    1.240    13 C    0.967
    13   6 C    3.965 --    15 C    0.992    14 C    0.987    16 N    0.979
                            12 C    0.967
    14   6 C    3.995 --    13 C    0.987    26 H    0.987    28 H    0.986
                            27 H    0.985
    15   6 C    3.996 --    13 C    0.992    30 H    0.987    29 H    0.985
                            31 H    0.983
    16   7 N    2.977 --    13 C    0.979    32 H    0.948    33 H    0.947
    17   7 N    2.962 --    12 C    1.585     5 C    1.070    11 N    0.159
    18   1 H    1.012 --     1 C    0.980
    19   1 H    1.013 --     1 C    0.980
    20   1 H    1.015 --     1 C    0.987
    21   1 H    0.876 --     7 O    0.790
    22   1 H    1.014 --     9 C    0.987
    23   1 H    1.015 --     9 C    0.992
    24   1 H    1.017 --     9 C    0.986
    25   1 H    0.984 --    11 N    0.912
    26   1 H    1.008 --    14 C    0.987
    27   1 H    1.003 --    14 C    0.985
    28   1 H    1.009 --    14 C    0.986
    29   1 H    1.010 --    15 C    0.985
    30   1 H    1.006 --    15 C    0.987
    31   1 H    1.020 --    15 C    0.983
    32   1 H    0.963 --    16 N    0.948
    33   1 H    0.963 --    16 N    0.947
 ---------------------------------------------------------------------------

           -------------------------------------------------
          | TOTAL ENERGY              -58.549030697922 Eh   |
          | GRADIENT NORM               0.000334517950 Eh/α |
          | HOMO-LUMO GAP               2.229858070301 eV   |
           -------------------------------------------------

 * finished run on 2023/06/20 at 15:00:32.363
