   * xtb version 6.5.1 (579679a) compiled by 'ehlert@majestix' on 2022-07-11
          program call               : /lustre/hpc/kemi/ree/PhD/git/ReactivityQM/dep/xtb-6.5.1/bin/xtb --gfn 1 /lustre/hpc/kemi/ree/PhD/git/ReactivityQM/calculations/RaltegravirCLI/reac02prodE03/conf05/RaltegravirCLI_reac02prodE03_conf05_gfn1.xyz --opt --vfukui --chrg -1 --uhf 0 --alpb DMSO

   ID    Z sym.   atoms
    1    6 C      1, 3, 5, 7, 8, 11-15, 17, 18, 20-24
    2    7 N      2, 10, 19, 25
    3    8 O      4, 6, 9
    4    9 F      16
    5    1 H      26-47

      * Solvation model:               ALPB
        Solvent                        DMSO
        Solvent mass                       7.8130E+01 g/mol
          :  Hamiltonian                  GFN1-xTB          :
 * total energy  :   -80.1275430 Eh     change       -0.6608047E-10 Eh
 * total energy  :   -80.1389142 Eh     change       -0.1137122E-01 Eh
 * total energy  :   -80.1439187 Eh     change       -0.5004485E-02 Eh
 * total energy  :   -80.1459766 Eh     change       -0.2057850E-02 Eh
 * total energy  :   -80.1474168 Eh     change       -0.1440222E-02 Eh
 * total energy  :   -80.1486979 Eh     change       -0.1281130E-02 Eh
 * total energy  :   -80.1498587 Eh     change       -0.1160777E-02 Eh
 * total energy  :   -80.1513669 Eh     change       -0.1508238E-02 Eh
 * total energy  :   -80.1531547 Eh     change       -0.1787808E-02 Eh
 * total energy  :   -80.1547082 Eh     change       -0.1553503E-02 Eh
 * total energy  :   -80.1673026 Eh     change       -0.3332707E-04 Eh
 * total energy  :   -80.1673194 Eh     change       -0.1676721E-04 Eh
 * total energy  :   -80.1673315 Eh     change       -0.1212431E-04 Eh
 * total energy  :   -80.1673387 Eh     change       -0.7204477E-05 Eh
 * total energy  :   -80.1673480 Eh     change       -0.9300513E-05 Eh
 * total energy  :   -80.1673550 Eh     change       -0.7039559E-05 Eh
 * total energy  :   -80.1673620 Eh     change       -0.6942261E-05 Eh
 * total energy  :   -80.1673676 Eh     change       -0.5622552E-05 Eh
 * total energy  :   -80.1673710 Eh     change       -0.3427039E-05 Eh
   *** GEOMETRY OPTIMIZATION CONVERGED AFTER 68 ITERATIONS ***

 final structure:
================
47
 xtb: 6.5.1 (579679a)
C           -4.10788647493173       -0.80461122431389        1.41898543248418
N           -2.69773728161975       -0.54398717658353        1.14582095331793
C           -1.77000822476661       -1.24464192401341        1.91419068596357
O           -2.11904239609961       -1.93359080142979        2.93012319648980
C           -0.46914570675502       -1.25992744533793        1.36603529653129
O            0.36209827202246       -2.26494697152274        1.82941990996730
C           -0.12468828742731       -0.41749361588842        0.30024012788600
C            0.90590899687769       -0.56935082778946       -0.67960904573908
O            1.02515316003712        0.15581853529924       -1.68784932214966
N            1.79099191365721       -1.63953739044655       -0.49430155035432
C            3.03633646253796       -1.62086693114652       -1.25097133439871
C            4.02808063658790       -0.65165359714929       -0.64109755302597
C            4.04785904664413        0.68342186011733       -1.04184860151504
C            4.92865923034915        1.58489472053451       -0.46144277206695
C            5.77948169233668        1.12572518685574        0.52747662423663
F            6.63828338395260        1.99449652377047        1.09680154822533
C            5.78907566189250       -0.18985995824211        0.95206797627610
C            4.90241579001698       -1.07744988679323        0.35705402158203
N           -0.96378669579040        0.76355215542504        0.17721257895979
C           -0.73144862976694        1.74095194715481        1.26560146638359
C           -2.31594380093495        0.29762544714674        0.14085445469606
C           -3.12995666453947        0.56217738003028       -1.10901076472162
C           -2.20219275586656        1.07164173874106       -2.22744472981076
C           -4.21322964907032        1.62857697503514       -0.84935224625559
N           -3.80882223658552       -0.66679511024332       -1.55522863337979
H           -4.61563004895605       -1.14554320572111        0.51542641950696
H           -4.59005934011027        0.10505370661485        1.78241776312981
H           -4.17818697614248       -1.57469969877599        2.18936967665854
H           -0.12304314035027       -2.70577288315226        2.55120724077318
H            1.90901128850196       -1.95974668582432        0.45850246772098
H            2.81058041177499       -1.33443676081331       -2.28349775977663
H            3.45054961063458       -2.63361393575749       -1.24949518269246
H            3.36666573192264        1.02107149613004       -1.81584042041541
H            4.95985614802216        2.62272426750186       -0.76753720083023
H            6.47549046812466       -0.51044472469526        1.72451350414831
H            4.90022929830259       -2.11491766640705        0.67158297625258
H           -1.38558590831505        2.59803281913086        1.10068522689534
H            0.30906621016965        2.06590247780341        1.22557730286399
H           -0.93677830304334        1.31617707921229        2.25671280626927
H           -2.77324500206812        1.20212398740842       -3.14602275093851
H           -1.76083243479563        2.02760801737992       -1.94599551023975
H           -1.39482492718590        0.36208650818481       -2.41013972295704
H           -3.75723463240379        2.52223557225110       -0.42440319239759
H           -4.71013810326777        1.89751583084082       -1.78179063052869
H           -4.96424288712675        1.25596639657561       -0.15499605633927
H           -4.44892199888304       -0.43321226262612       -2.30089469570878
H           -3.12318190756649       -1.30828294446822       -1.93647398097937

          :  Hamiltonian                  GFN1-xTB          :
         :: total energy             -80.167371028843 Eh    ::
         :: gradient norm              0.000459635964 Eh/a0 ::
         :: HOMO-LUMO gap              0.924773528226 eV    ::
         :: SCC energy               -81.011975841295 Eh    ::
         :: -> Gsolv                  -0.101083303141 Eh    ::
         :: repulsion energy           0.876582163932 Eh    ::

    * Orbital Energies and Occupations

         #    Occupation            Energy/Eh            Energy/eV
      -------------------------------------------------------------
         1        2.0000           -0.8538178             -23.2336
       ...           ...                  ...                  ...
        56        2.0000           -0.4596680             -12.5082
        57        2.0000           -0.4588468             -12.4859
        58        2.0000           -0.4507372             -12.2652
        59        2.0000           -0.4388229             -11.9410
        60        2.0000           -0.4257746             -11.5859
        61        2.0000           -0.4129370             -11.2366
        62        2.0000           -0.4065530             -11.0629
        63        2.0000           -0.3936087             -10.7106
        64        2.0000           -0.3917218             -10.6593
        65        2.0000           -0.3846357             -10.4665
        66        2.0000           -0.3665929              -9.9755
        67        2.0000           -0.3617672              -9.8442
        68        2.0000           -0.2947952              -8.0218 (HOMO)
        69                         -0.2608104              -7.0970 (LUMO)
        70                         -0.2555445              -6.9537
        71                         -0.2518786              -6.8540
        72                         -0.1718134              -4.6753
        73                         -0.1326564              -3.6098
        74                         -0.1208593              -3.2887
        75                         -0.1159627              -3.1555
        76                         -0.1046779              -2.8484
        77                         -0.1026825              -2.7941
        78                         -0.0976298              -2.6566
        79                         -0.0935655              -2.5460
       ...                                ...                  ...
       144                          0.6779807              18.4488
      -------------------------------------------------------------
                  HL-Gap            0.0339848 Eh            0.9248 eV

Wiberg/Mayer (AO) data.
largest (>0.10) Wiberg bond orders for each atom

     #   Z sym  total        # sym  WBO       # sym  WBO       # sym  WBO
 ---------------------------------------------------------------------------
     1   6 C    3.953 --    27 H    0.982    28 H    0.977    26 H    0.975
                             2 N    0.949
     2   7 N    3.505 --    21 C    1.213     3 C    1.092     1 C    0.949
                             4 O    0.112
     3   6 C    3.918 --     4 O    1.323     5 C    1.251     2 N    1.092
                            21 C    0.121
     4   8 O    1.695 --     3 C    1.323     2 N    0.112
     5   6 C    3.887 --     7 C    1.338     3 C    1.251     6 O    0.994
                            21 C    0.130
     6   8 O    1.995 --     5 C    0.994    29 H    0.832
     7   6 C    3.904 --     5 C    1.338     8 C    1.202    19 N    0.954
                            21 C    0.135
     8   6 C    3.909 --     9 O    1.470     7 C    1.202    10 N    1.089
     9   8 O    1.811 --     8 C    1.470    10 N    0.101
    10   7 N    3.196 --     8 C    1.089    11 C    0.962    30 H    0.912
                             9 O    0.101
    11   6 C    3.969 --    12 C    0.994    32 H    0.978    31 H    0.973
                            10 N    0.962
    12   6 C    3.985 --    18 C    1.418    13 C    1.413    11 C    0.994
    13   6 C    3.991 --    14 C    1.445    12 C    1.413    33 H    0.968
                            17 C    0.111
    14   6 C    3.992 --    13 C    1.445    15 C    1.401    34 H    0.971
                            18 C    0.109
    15   6 C    3.855 --    17 C    1.403    14 C    1.401    16 F    0.915
    16   9 F    1.039 --    15 C    0.915
    17   6 C    3.992 --    18 C    1.441    15 C    1.403    35 H    0.970
                            13 C    0.111
    18   6 C    3.994 --    17 C    1.441    12 C    1.418    36 H    0.972
                            14 C    0.109
    19   7 N    3.045 --    21 C    0.988    20 C    0.960     7 C    0.954
    20   6 C    3.986 --    37 H    0.989    38 H    0.988    39 H    0.982
                            19 N    0.960
    21   6 C    3.854 --     2 N    1.213    22 C    0.993    19 N    0.988
                             7 C    0.135     5 C    0.130     3 C    0.121
    22   6 C    3.963 --    21 C    0.993    23 C    0.989    24 C    0.982
                            25 N    0.966
    23   6 C    3.995 --    22 C    0.989    40 H    0.987    41 H    0.984
                            42 H    0.981
    24   6 C    3.990 --    43 H    0.986    44 H    0.985    45 H    0.983
                            22 C    0.982
    25   7 N    2.984 --    22 C    0.966    46 H    0.950    47 H    0.950
    26   1 H    1.034 --     1 C    0.975
    27   1 H    1.011 --     1 C    0.982
    28   1 H    1.023 --     1 C    0.977
    29   1 H    0.886 --     6 O    0.832
    30   1 H    0.972 --    10 N    0.912
    31   1 H    1.020 --    11 C    0.973
    32   1 H    1.010 --    11 C    0.978
    33   1 H    1.019 --    13 C    0.968
    34   1 H    1.000 --    14 C    0.971
    35   1 H    0.999 --    17 C    0.970
    36   1 H    1.001 --    18 C    0.972
    37   1 H    1.024 --    20 C    0.989
    38   1 H    1.020 --    20 C    0.988
    39   1 H    1.010 --    20 C    0.982
    40   1 H    1.007 --    23 C    0.987
    41   1 H    1.018 --    23 C    0.984
    42   1 H    1.027 --    23 C    0.981
    43   1 H    1.012 --    24 C    0.986
    44   1 H    1.003 --    24 C    0.985
    45   1 H    1.011 --    24 C    0.983
    46   1 H    0.966 --    25 N    0.950
    47   1 H    0.970 --    25 N    0.950
 ---------------------------------------------------------------------------

           -------------------------------------------------
          | TOTAL ENERGY              -80.167371028843 Eh   |
          | GRADIENT NORM               0.000459635964 Eh/α |
          | HOMO-LUMO GAP               0.924773528226 eV   |
           -------------------------------------------------

 * finished run on 2023/06/20 at 14:59:47.682
