   * xtb version 6.5.1 (579679a) compiled by 'ehlert@majestix' on 2022-07-11
          program call               : /lustre/hpc/kemi/ree/PhD/git/ReactivityQM/dep/xtb-6.5.1/bin/xtb --gfn 1 /lustre/hpc/kemi/ree/PhD/git/ReactivityQM/calculations/R02/reac01prodE10/conf08/R02_reac01prodE10_conf08_gfn1.xyz --opt --vfukui --chrg -1 --uhf 0 --alpb DMSO

   ID    Z sym.   atoms
    1    6 C      1, 3, 5, 7-10, 12, 14, 17-19, 22, 24
    2    8 O      2, 4, 13, 20, 23, 25
    3    7 N      6, 11, 15, 16, 21
    4    1 H      26-43

      * Solvation model:               ALPB
        Solvent                        DMSO
        Solvent mass                       7.8130E+01 g/mol
          :  Hamiltonian                  GFN1-xTB          :
 * total energy  :   -83.8052790 Eh     change       -0.3601173E-09 Eh
 * total energy  :   -83.8188272 Eh     change       -0.1354822E-01 Eh
 * total energy  :   -83.8240262 Eh     change       -0.5199048E-02 Eh
 * total energy  :   -83.8246765 Eh     change       -0.6502840E-03 Eh
 * total energy  :   -83.8251422 Eh     change       -0.4657104E-03 Eh
 * total energy  :   -83.8252852 Eh     change       -0.1429547E-03 Eh
 * total energy  :   -83.8254352 Eh     change       -0.1500118E-03 Eh
 * total energy  :   -83.8255133 Eh     change       -0.7810478E-04 Eh
 * total energy  :   -83.8255664 Eh     change       -0.5313272E-04 Eh
 * total energy  :   -83.8256026 Eh     change       -0.3619662E-04 Eh
 * total energy  :   -83.8258502 Eh     change       -0.1011350E-04 Eh
 * total energy  :   -83.8258649 Eh     change       -0.1469185E-04 Eh
 * total energy  :   -83.8258809 Eh     change       -0.1593907E-04 Eh
 * total energy  :   -83.8258935 Eh     change       -0.1267053E-04 Eh
 * total energy  :   -83.8259055 Eh     change       -0.1191790E-04 Eh
 * total energy  :   -83.8259170 Eh     change       -0.1157187E-04 Eh
 * total energy  :   -83.8259264 Eh     change       -0.9404604E-05 Eh
 * total energy  :   -83.8259325 Eh     change       -0.6062987E-05 Eh
 * total energy  :   -83.8259372 Eh     change       -0.4732713E-05 Eh
   *** GEOMETRY OPTIMIZATION CONVERGED AFTER 33 ITERATIONS ***

 final structure:
================
43
 xtb: 6.5.1 (579679a)
C            6.92629196743695        0.48062903623056       -1.32805245013470
O            5.70490170533070        1.03836648984531       -0.85562165812247
C            4.72826720766782        0.11372691744810       -0.53607133110753
O            4.95172197750294       -1.08902650074961       -0.67537957574331
C            3.50018950411311        0.68785720004211       -0.04709846727334
N            2.54573388857023       -0.26415798878070        0.28530826898143
C            1.40160584964259        0.10429656271865        0.73955441761667
C            0.38346485898685       -0.93282917283354        1.18096547526307
C            0.59078348272571       -1.13554224013146        2.69257841048138
C            0.61671882451725       -2.24499175620503        0.41759455818958
N           -0.94589524407272       -0.37654804850321        0.91617987606871
C           -2.09094550749408       -1.20050037396556        1.15709148756605
O           -2.06755978220357       -2.16422876682602        1.96793983692072
C           -3.22849787285325       -0.78796646805530        0.46541892589535
N           -4.48748860655994       -1.34935553210397        0.48608159266976
N           -5.18134173907661       -0.61542068543606       -0.38044040234103
C           -6.57239491221494       -0.92528946005023       -0.61497684803163
C           -4.47671180406137        0.34766049415575       -0.93146404827281
C           -4.91440904940838        1.34200849369226       -1.93805145782435
O           -3.21425073205199        0.31081593817385       -0.45176725315289
N            1.07478474943976        1.41787634653586        0.93382522584832
C            1.94344942312555        2.47896524975841        0.63510116180946
O            1.56155110184321        3.64191524352398        0.83665598288974
C            3.20619788244900        2.05556375053803        0.12373716656574
O            4.08271040053992        3.06656435475844       -0.17235393337026
H            7.60043367935078        1.31028148171803       -1.53351909627776
H            7.36819327074215       -0.17632701710605       -0.57185902034266
H            6.75917522841746       -0.09521506575793       -2.24387813732214
H            1.63448479040735       -1.38537014734145        2.88448623806088
H           -0.03946821582555       -1.94086308332628        3.06529536503192
H            0.34383175027051       -0.21728487425249        3.22493078442755
H            0.43389053873094       -2.09431481419758       -0.64592728873908
H           -0.05082271729618       -3.02143072512413        0.78790101956990
H            1.64950463554124       -2.56634692621413        0.55272513152802
H           -0.99568961702357        0.04274557101120       -0.00529480723629
H           -6.73509622612079       -1.09187542867781       -1.67833555198918
H           -6.81605891543676       -1.82369033969215       -0.05277888366704
H           -7.19399297150061       -0.09598588800822       -0.27976935669533
H           -4.17984286095911        2.14271990805518       -1.99495088439715
H           -5.88422346762352        1.75851002642640       -1.66731757295462
H           -5.00907232677991        0.88273740029028       -2.92418525723725
H            0.15655785798224        1.65724788679273        1.27599860835650
H            4.91931799322818        2.71407095162467       -0.51638225150889

          :  Hamiltonian                  GFN1-xTB          :
         :: total energy             -83.825937226972 Eh    ::
         :: gradient norm              0.000648893491 Eh/a0 ::
         :: HOMO-LUMO gap              0.038541314560 eV    ::
         :: SCC energy               -84.581357435034 Eh    ::
         :: -> Gsolv                  -0.129137898020 Eh    ::
         :: repulsion energy           0.780957958162 Eh    ::

    * Orbital Energies and Occupations

         #    Occupation            Energy/Eh            Energy/eV
      -------------------------------------------------------------
         1        2.0000           -0.8387872             -22.8246
       ...           ...                  ...                  ...
        56        2.0000           -0.4706426             -12.8068
        57        2.0000           -0.4642416             -12.6327
        58        2.0000           -0.4635093             -12.6127
        59        2.0000           -0.4465024             -12.1499
        60        2.0000           -0.4365784             -11.8799
        61        2.0000           -0.4361204             -11.8674
        62        2.0000           -0.4185763             -11.3900
        63        2.0000           -0.4133599             -11.2481
        64        2.0000           -0.4058189             -11.0429
        65        2.0000           -0.4039095             -10.9909
        66        2.0000           -0.3890131             -10.5856
        67        2.0000           -0.3831433             -10.4259
        68        1.3564           -0.2900351              -7.8923 (HOMO)
        69        0.6436           -0.2886187              -7.8537 (LUMO)
        70                         -0.2601727              -7.0797
        71                         -0.2349862              -6.3943
        72                         -0.1940493              -5.2803
        73                         -0.1531036              -4.1662
        74                         -0.1465833              -3.9887
        75                         -0.1382383              -3.7617
        76                         -0.1197464              -3.2585
        77                         -0.1113868              -3.0310
        78                         -0.1017612              -2.7691
        79                         -0.0976430              -2.6570
       ...                                ...                  ...
       136                          0.6974683              18.9791
      -------------------------------------------------------------
                  HL-Gap            0.0014164 Eh            0.0385 eV

Wiberg/Mayer (AO) data.
largest (>0.10) Wiberg bond orders for each atom

     #   Z sym  total        # sym  WBO       # sym  WBO       # sym  WBO
 ---------------------------------------------------------------------------
     1   6 C    3.893 --    26 H    0.987    27 H    0.981    28 H    0.981
                             2 O    0.918
     2   8 O    2.113 --     3 C    0.985     1 C    0.918
     3   6 C    3.732 --     4 O    1.539     5 C    1.143     2 O    0.985
     4   8 O    1.761 --     3 C    1.539
     5   6 C    3.812 --    24 C    1.311     3 C    1.143     6 N    1.134
     6   7 N    3.001 --     7 C    1.614     5 C    1.134
     7   6 C    3.905 --     6 N    1.614    21 N    1.148     8 C    0.977
     8   6 C    3.957 --    10 C    0.989     9 C    0.979     7 C    0.977
                            11 N    0.956
     9   6 C    3.991 --    29 H    0.988    31 H    0.987     8 C    0.979
                            30 H    0.978
    10   6 C    3.993 --     8 C    0.989    32 H    0.987    34 H    0.984
                            33 H    0.983
    11   7 N    3.091 --    12 C    1.007     8 C    0.956    35 H    0.927
    12   6 C    3.805 --    13 O    1.392    14 C    1.306    11 N    1.007
    13   8 O    1.652 --    12 C    1.392
    14   6 C    3.565 --    12 C    1.306    15 N    1.198    20 O    0.880
    15   7 N    2.691 --    14 C    1.198    16 N    1.173    18 C    0.203
    16   7 N    3.638 --    18 C    1.396    15 N    1.173    17 C    0.940
    17   6 C    3.937 --    37 H    0.983    36 H    0.980    38 H    0.978
                            16 N    0.940
    18   6 C    3.771 --    16 N    1.396    20 O    1.064    19 C    1.029
                            15 N    0.203
    19   6 C    3.987 --    18 C    1.029    39 H    0.979    40 H    0.972
                            41 H    0.962
    20   8 O    2.112 --    18 C    1.064    14 C    0.880
    21   7 N    3.327 --     7 C    1.148    22 C    1.044    42 H    0.895
                            23 O    0.100
    22   6 C    3.831 --    23 O    1.488    24 C    1.195    21 N    1.044
    23   8 O    1.743 --    22 C    1.488    21 N    0.100
    24   6 C    3.719 --     5 C    1.311    22 C    1.195    25 O    1.032
    25   8 O    1.979 --    24 C    1.032    43 H    0.823
    26   1 H    1.014 --     1 C    0.987
    27   1 H    1.013 --     1 C    0.981
    28   1 H    1.013 --     1 C    0.981
    29   1 H    1.008 --     9 C    0.988
    30   1 H    1.025 --     9 C    0.978
    31   1 H    1.009 --     9 C    0.987
    32   1 H    1.007 --    10 C    0.987
    33   1 H    1.016 --    10 C    0.983
    34   1 H    1.018 --    10 C    0.984
    35   1 H    0.967 --    11 N    0.927
    36   1 H    0.999 --    17 C    0.980
    37   1 H    1.007 --    17 C    0.983
    38   1 H    0.999 --    17 C    0.978
    39   1 H    0.997 --    19 C    0.979
    40   1 H    0.997 --    19 C    0.972
    41   1 H    0.995 --    19 C    0.962
    42   1 H    0.956 --    21 N    0.895
    43   1 H    0.879 --    25 O    0.823
 ---------------------------------------------------------------------------

           -------------------------------------------------
          | TOTAL ENERGY              -83.825937226972 Eh   |
          | GRADIENT NORM               0.000648893491 Eh/α |
          | HOMO-LUMO GAP               0.038541314560 eV   |
           -------------------------------------------------

 * finished run on 2023/06/20 at 15:10:34.623
