   * xtb version 6.5.1 (579679a) compiled by 'ehlert@majestix' on 2022-07-11
          program call               : /lustre/hpc/kemi/ree/PhD/git/ReactivityQM/dep/xtb-6.5.1/bin/xtb --gfn 1 /lustre/hpc/kemi/ree/PhD/git/ReactivityQM/calculations/RaltegravirCLI/reac02prodN16/conf07/RaltegravirCLI_reac02prodN16_conf07_gfn1.xyz --opt --vfukui --chrg 1 --uhf 0 --alpb DMSO

   ID    Z sym.   atoms
    1    6 C      1, 3-7, 9, 11, 13-16, 19, 20, 22, 24, 25
    2    9 F      2
    3    7 N      8, 12, 17, 18
    4    8 O      10, 21, 23
    5    1 H      26-47

      * Solvation model:               ALPB
        Solvent                        DMSO
        Solvent mass                       7.8130E+01 g/mol
          :  Hamiltonian                  GFN1-xTB          :
 * total energy  :   -79.4234908 Eh     change       -0.9436008E-11 Eh
 * total energy  :   -79.4392713 Eh     change       -0.1578051E-01 Eh
 * total energy  :   -79.4440535 Eh     change       -0.4782125E-02 Eh
 * total energy  :   -79.4449807 Eh     change       -0.9272446E-03 Eh
 * total energy  :   -79.4456255 Eh     change       -0.6448079E-03 Eh
 * total energy  :   -79.4459465 Eh     change       -0.3210278E-03 Eh
 * total energy  :   -79.4460904 Eh     change       -0.1439154E-03 Eh
 * total energy  :   -79.4461530 Eh     change       -0.6252294E-04 Eh
 * total energy  :   -79.4462050 Eh     change       -0.5202647E-04 Eh
 * total energy  :   -79.4462564 Eh     change       -0.5141418E-04 Eh
 * total energy  :   -79.4514210 Eh     change       -0.2930930E-04 Eh
 * total energy  :   -79.4514379 Eh     change       -0.1690628E-04 Eh
 * total energy  :   -79.4514610 Eh     change       -0.2308016E-04 Eh
 * total energy  :   -79.4514730 Eh     change       -0.1206907E-04 Eh
 * total energy  :   -79.4514861 Eh     change       -0.1303162E-04 Eh
 * total energy  :   -79.4514947 Eh     change       -0.8637817E-05 Eh
 * total energy  :   -79.4515018 Eh     change       -0.7118103E-05 Eh
 * total energy  :   -79.4515077 Eh     change       -0.5825711E-05 Eh
 * total energy  :   -79.4515103 Eh     change       -0.2673664E-05 Eh
   *** GEOMETRY OPTIMIZATION CONVERGED AFTER 88 ITERATIONS ***

 final structure:
================
47
 xtb: 6.5.1 (579679a)
C            7.74111079211452       -0.59213459198146       -1.09101563239429
F            6.81609447088633        0.50142008649102       -1.25074116105037
C            5.59661186314629        0.75513663583709       -0.47437789571285
C            5.70970676131890        1.64207908196577        0.56563036512510
C            4.54301158599432        1.89163845475517        1.27730648127294
C            3.34639323793441        1.25893691225218        0.93475443744729
C            2.11075974901615        1.55458978411915        1.75358452026559
N            1.01206803437917        0.67276017552829        1.42342489047222
C           -0.05718210105950        1.11784931584867        0.72139528014844
O           -0.22138071677228        2.29382800666803        0.43815889730916
C           -1.03878804618718        0.04753598115996        0.34326454199492
N           -2.33136119392460        0.45881125137145        0.20899934247276
C           -3.27516604916617       -0.36767225096071       -0.12472099466108
C           -4.68010973495640        0.22078253878809       -0.17800499347488
C           -5.37265160105869       -0.05272477830182        1.16616196179550
C           -4.58278819628861        1.74064256907582       -0.39765260851235
N           -5.45581538156983       -0.38180194158193       -1.25586288224817
N           -3.02508209266591       -1.69714599019808       -0.35450904923120
C           -4.06545933915977       -2.66864607525501       -0.70510012924980
C           -1.73805168831270       -2.20190131450528       -0.30117899669912
O           -1.46953849076462       -3.37741636605847       -0.54235039785297
C           -0.71596460318574       -1.25002682363820        0.08074155757723
O            0.54503978805145       -1.73912995056734        0.13893016161341
C            3.31278600330270        0.37127462393650       -0.13900448608490
C            4.46237595643081        0.09775193219286       -0.87196431480391
H            8.49673294403926       -0.39987598933867       -1.84713446951742
H            7.17011069474464       -1.49793801342044       -1.27204553296371
H            8.11938503465049       -0.51943671276248       -0.07550445838770
H            6.64780116650501        2.11620040517496        0.81635357129594
H            4.57530854653915        2.58132520145526        2.11216761367292
H            1.78523894321126        2.58509301614765        1.56784588518917
H            2.34891578856598        1.45589163320384        2.81688539892061
H            1.13608384150401       -0.30702031513356        1.61012969489139
H           -6.35163860895681        0.42451988597949        1.17602115591798
H           -4.77312104957078        0.35408905503540        1.97980637486837
H           -5.50515538119391       -1.12081492566796        1.32907152392240
H           -5.58546657747354        2.15655007391498       -0.48086633705441
H           -4.03461931692572        1.95239254932837       -1.31460816545261
H           -4.06745723702660        2.21458427210966        0.43686830627279
H           -5.12683197274126       -0.03109301468384       -2.14588557565171
H           -6.42497092403005       -0.11203201735228       -1.15861845843520
H           -4.31869999194055       -2.57019004474282       -1.75943084908938
H           -4.95344542872247       -2.50050449112649       -0.10432735827478
H           -3.67335969471805       -3.66713191574004       -0.51325829099816
H            0.51713329957073       -2.68851382513684       -0.08865065822744
H            2.38946254540255       -0.12991632112165       -0.40552378503757
H            4.46197737109489       -0.59261677307766       -1.70317748139615

          :  Hamiltonian                  GFN1-xTB          :
         :: total energy             -79.451510326383 Eh    ::
         :: gradient norm              0.000552127771 Eh/a0 ::
         :: HOMO-LUMO gap              2.652307007639 eV    ::
         :: SCC energy               -80.351091506704 Eh    ::
         :: -> Gsolv                  -0.114399953744 Eh    ::
         :: repulsion energy           0.928887355334 Eh    ::

    * Orbital Energies and Occupations

         #    Occupation            Energy/Eh            Energy/eV
      -------------------------------------------------------------
         1        2.0000           -1.0100823             -27.4857
       ...           ...                  ...                  ...
        55        2.0000           -0.5110464             -13.9063
        56        2.0000           -0.5031507             -13.6914
        57        2.0000           -0.4953964             -13.4804
        58        2.0000           -0.4923546             -13.3977
        59        2.0000           -0.4874807             -13.2650
        60        2.0000           -0.4838823             -13.1671
        61        2.0000           -0.4725162             -12.8578
        62        2.0000           -0.4683777             -12.7452
        63        2.0000           -0.4539714             -12.3532
        64        2.0000           -0.4490757             -12.2200
        65        2.0000           -0.4382303             -11.9249
        66        2.0000           -0.4242683             -11.5449
        67        2.0000           -0.4142933             -11.2735 (HOMO)
        68                         -0.3168228              -8.6212 (LUMO)
        69                         -0.3143201              -8.5531
        70                         -0.3130466              -8.5184
        71                         -0.2772058              -7.5432
        72                         -0.2600128              -7.0753
        73                         -0.2361199              -6.4251
        74                         -0.1911783              -5.2022
        75                         -0.1842789              -5.0145
        76                         -0.1574569              -4.2846
        77                         -0.1448631              -3.9419
        78                         -0.1444369              -3.9303
       ...                                ...                  ...
       144                          0.7115504              19.3623
      -------------------------------------------------------------
                  HL-Gap            0.0974705 Eh            2.6523 eV

Wiberg/Mayer (AO) data.
largest (>0.10) Wiberg bond orders for each atom

     #   Z sym  total        # sym  WBO       # sym  WBO       # sym  WBO
 ---------------------------------------------------------------------------
     1   6 C    3.675 --    27 H    0.980    28 H    0.979    26 H    0.974
                             2 F    0.715
     2   9 F    1.439 --     1 C    0.715     3 C    0.637
     3   6 C    3.690 --    25 C    1.436     4 C    1.427     2 F    0.637
     4   6 C    3.984 --     5 C    1.431     3 C    1.427    29 H    0.961
                            24 C    0.109
     5   6 C    3.988 --     4 C    1.431     6 C    1.408    30 H    0.967
                            25 C    0.111
     6   6 C    3.983 --    24 C    1.417     5 C    1.408     7 C    1.003
     7   6 C    3.952 --     6 C    1.003     8 N    0.962    32 H    0.962
                            31 H    0.951
     8   7 N    3.334 --     9 C    1.240     7 C    0.962    33 H    0.892
                            10 O    0.167
     9   6 C    3.901 --    10 O    1.599     8 N    1.240    11 C    0.982
    10   8 O    1.892 --     9 C    1.599     8 N    0.167
    11   6 C    3.967 --    22 C    1.512    12 N    1.205     9 C    0.982
    12   7 N    3.028 --    13 C    1.554    11 C    1.205
    13   6 C    3.921 --    12 N    1.554    18 N    1.179    14 C    0.977
    14   6 C    3.966 --    16 C    0.988    17 N    0.986    15 C    0.980
                            13 C    0.977
    15   6 C    3.993 --    35 H    0.986    34 H    0.982    14 C    0.980
                            36 H    0.980
    16   6 C    3.994 --    14 C    0.988    37 H    0.986    38 H    0.985
                            39 H    0.983
    17   7 N    2.977 --    14 C    0.986    40 H    0.941    41 H    0.938
    18   7 N    3.517 --    13 C    1.179    20 C    1.133    19 C    0.926
                            21 O    0.132
    19   6 C    3.920 --    43 H    0.978    44 H    0.976    42 H    0.975
                            18 N    0.926
    20   6 C    3.918 --    21 O    1.538    18 N    1.133    22 C    1.096
    21   8 O    1.888 --    20 C    1.538    18 N    0.132
    22   6 C    3.916 --    11 C    1.512    20 C    1.096    23 O    1.060
    23   8 O    2.057 --    22 C    1.060    45 H    0.802
    24   6 C    3.986 --    25 C    1.420     6 C    1.417    46 H    0.960
                             4 C    0.109
    25   6 C    3.984 --     3 C    1.436    24 C    1.420    47 H    0.961
                             5 C    0.111
    26   1 H    0.991 --     1 C    0.974
    27   1 H    0.993 --     1 C    0.980
    28   1 H    0.993 --     1 C    0.979
    29   1 H    0.989 --     4 C    0.961
    30   1 H    0.993 --     5 C    0.967
    31   1 H    1.009 --     7 C    0.951
    32   1 H    1.001 --     7 C    0.962
    33   1 H    0.941 --     8 N    0.892
    34   1 H    0.999 --    15 C    0.982
    35   1 H    1.004 --    15 C    0.986
    36   1 H    1.004 --    15 C    0.980
    37   1 H    1.003 --    16 C    0.986
    38   1 H    1.007 --    16 C    0.985
    39   1 H    1.014 --    16 C    0.983
    40   1 H    0.956 --    17 N    0.941
    41   1 H    0.953 --    17 N    0.938
    42   1 H    1.017 --    19 C    0.975
    43   1 H    1.022 --    19 C    0.978
    44   1 H    1.009 --    19 C    0.976
    45   1 H    0.845 --    23 O    0.802
    46   1 H    1.009 --    24 C    0.960
    47   1 H    0.990 --    25 C    0.961
 ---------------------------------------------------------------------------

           -------------------------------------------------
          | TOTAL ENERGY              -79.451510326383 Eh   |
          | GRADIENT NORM               0.000552127771 Eh/α |
          | HOMO-LUMO GAP               2.652307007639 eV   |
           -------------------------------------------------

 * finished run on 2023/06/20 at 15:39:10.277
