   * xtb version 6.5.1 (579679a) compiled by 'ehlert@majestix' on 2022-07-11
          program call               : /lustre/hpc/kemi/ree/PhD/git/ReactivityQM/dep/xtb-6.5.1/bin/xtb --gfn 1 /lustre/hpc/kemi/ree/PhD/git/ReactivityQM/calculations/R02oxygendeprot/reac01prodN10/conf06/R02oxygendeprot_reac01prodN10_conf06_gfn1.xyz --opt --vfukui --chrg 0 --uhf 0 --alpb DMSO

   ID    Z sym.   atoms
    1    6 C      1, 3, 5, 6, 8, 11-15, 17, 19, 22, 23
    2    8 O      2, 4, 7, 9, 18, 24
    3    7 N      10, 16, 20, 21, 25
    4    1 H      26-42

      * Solvation model:               ALPB
        Solvent                        DMSO
        Solvent mass                       7.8130E+01 g/mol
          :  Hamiltonian                  GFN1-xTB          :
 * total energy  :   -82.9625168 Eh     change       -0.1536193E-10 Eh
 * total energy  :   -82.9743893 Eh     change       -0.1187250E-01 Eh
 * total energy  :   -82.9794911 Eh     change       -0.5101810E-02 Eh
 * total energy  :   -82.9805170 Eh     change       -0.1025846E-02 Eh
 * total energy  :   -82.9809997 Eh     change       -0.4827393E-03 Eh
 * total energy  :   -82.9812506 Eh     change       -0.2509118E-03 Eh
 * total energy  :   -82.9814255 Eh     change       -0.1748545E-03 Eh
 * total energy  :   -82.9815469 Eh     change       -0.1214286E-03 Eh
 * total energy  :   -82.9816603 Eh     change       -0.1133865E-03 Eh
 * total energy  :   -82.9817703 Eh     change       -0.1099799E-03 Eh
 * total energy  :   -82.9825462 Eh     change       -0.2842514E-04 Eh
 * total energy  :   -82.9825194 Eh     change        0.2678973E-04 Eh
 * total energy  :   -82.9825694 Eh     change       -0.5000032E-04 Eh
 * total energy  :   -82.9825805 Eh     change       -0.1108206E-04 Eh
 * total energy  :   -82.9825896 Eh     change       -0.9083550E-05 Eh
 * total energy  :   -82.9825998 Eh     change       -0.1026382E-04 Eh
 * total energy  :   -82.9826055 Eh     change       -0.5686598E-05 Eh
 * total energy  :   -82.9826100 Eh     change       -0.4477116E-05 Eh
 * total energy  :   -82.9826133 Eh     change       -0.3274799E-05 Eh
   *** GEOMETRY OPTIMIZATION CONVERGED AFTER 44 ITERATIONS ***

 final structure:
================
42
 xtb: 6.5.1 (579679a)
C            1.98338898557884        3.92235745987937       -0.75232991877980
O            1.90309861726896        2.49097304002616       -0.79257033475512
C            2.95235589148084        1.82149683378784       -0.34286775759601
O            3.95393453273002        2.32747782637810        0.09164964824902
C            2.73359791726485        0.32318568522881       -0.43061267400853
C            3.91736663743016       -0.57747445488878       -0.54022956188405
O            4.99768352651239       -0.21604722912711       -0.92892389297644
C            3.63486583703069       -2.03104861429699       -0.15288391209873
O            4.51477724237724       -2.82441656115520        0.11100099348091
N            2.32342104840819       -2.34798367989982       -0.11063854953374
C            1.21053170897386       -1.49382224964299       -0.47391724433047
C            0.81306327959171       -1.77326334490093       -1.93238903565616
C            0.03112394602207       -1.72487172683768        0.52654483425906
C           -0.58596328547138       -3.11575676269246        0.37400608326442
C            0.52859012659035       -1.49501724084403        1.95867217522535
N           -0.95990091384806       -0.70203350943968        0.19354626273371
C           -2.15587785804062       -0.58690403841511        0.81249761302061
O           -2.63564196693488       -1.38588887321048        1.59544493024021
C           -2.83898723942941        0.66374171200231        0.39199880597594
N           -2.35090900176946        1.57335633965082       -0.39738349883913
N           -3.29089816043240        2.55402361856528       -0.49466843857147
C           -4.29262466902658        2.18137911830521        0.24400586862612
C           -5.56545753659384        2.90196404362192        0.46626536054920
O           -4.06669508017856        0.99661931691427        0.82994063103935
N            1.53300349420394       -0.10280416545327       -0.40395714434867
H            1.13558317238782        4.29603268712454       -1.32205207754049
H            1.92758917887640        4.26547789858215        0.28278815564226
H            2.92232826914976        4.25689062969585       -1.19844789726738
H            2.11526424681612       -3.32411924101476        0.03461046348477
H            0.63303126779866       -2.83677737676567       -2.06561732435825
H           -0.08602236984853       -1.21588213909928       -2.18462926096784
H            1.62614780393033       -1.46536921899175       -2.58722686893895
H            0.18568601539266       -3.88092682116577        0.42306939221581
H           -1.29517873444792       -3.29250013882235        1.18098004992871
H           -1.11309097623973       -3.20064777522639       -0.57423076258581
H            1.28765439112216       -2.23263319668559        2.21175918742224
H           -0.30371102636311       -1.59196831336238        2.65390564161101
H            0.95474902144005       -0.49648650342293        2.04771627136209
H           -0.61641499258170        0.10929887609250       -0.30780923211592
H           -5.48511250236399        3.91398360360393        0.07703178388065
H           -6.37877458523322        2.38523897578211       -0.04384992299065
H           -5.79757425958780        2.93114651013115        1.52980415793518

          :  Hamiltonian                  GFN1-xTB          :
         :: total energy             -82.982613282262 Eh    ::
         :: gradient norm              0.000328834123 Eh/a0 ::
         :: HOMO-LUMO gap              1.739080441019 eV    ::
         :: SCC energy               -83.763364228036 Eh    ::
         :: -> Gsolv                  -0.054082233664 Eh    ::
         :: repulsion energy           0.808262081568 Eh    ::

    * Orbital Energies and Occupations

         #    Occupation            Energy/Eh            Energy/eV
      -------------------------------------------------------------
         1        2.0000           -0.8657285             -23.5577
       ...           ...                  ...                  ...
        55        2.0000           -0.5086487             -13.8410
        56        2.0000           -0.5080119             -13.8237
        57        2.0000           -0.5075186             -13.8103
        58        2.0000           -0.5026856             -13.6788
        59        2.0000           -0.4970500             -13.5254
        60        2.0000           -0.4848735             -13.1941
        61        2.0000           -0.4831037             -13.1459
        62        2.0000           -0.4717944             -12.8382
        63        2.0000           -0.4662535             -12.6874
        64        2.0000           -0.4613388             -12.5537
        65        2.0000           -0.4544862             -12.3672
        66        2.0000           -0.4488515             -12.2139
        67        2.0000           -0.4401060             -11.9759 (HOMO)
        68                         -0.3761959             -10.2368 (LUMO)
        69                         -0.3209006              -8.7322
        70                         -0.3133136              -8.5257
        71                         -0.2588852              -7.0446
        72                         -0.2537639              -6.9053
        73                         -0.2048827              -5.5751
        74                         -0.2015045              -5.4832
        75                         -0.1455398              -3.9603
        76                         -0.1440756              -3.9205
        77                         -0.1434344              -3.9030
        78                         -0.1389430              -3.7808
       ...                                ...                  ...
       134                          0.7668894              20.8681
      -------------------------------------------------------------
                  HL-Gap            0.0639100 Eh            1.7391 eV

Wiberg/Mayer (AO) data.
largest (>0.10) Wiberg bond orders for each atom

     #   Z sym  total        # sym  WBO       # sym  WBO       # sym  WBO
 ---------------------------------------------------------------------------
     1   6 C    3.860 --    26 H    0.985    28 H    0.979    27 H    0.978
                             2 O    0.885
     2   8 O    2.220 --     3 C    1.141     1 C    0.885     4 O    0.146
     3   6 C    3.853 --     4 O    1.692     2 O    1.141     5 C    0.945
     4   8 O    1.951 --     3 C    1.692     2 O    0.146
     5   6 C    3.953 --    25 N    1.791     6 C    0.992     3 C    0.945
     6   6 C    3.857 --     7 O    1.806     5 C    0.992     8 C    0.907
     7   8 O    2.013 --     6 C    1.806
     8   6 C    3.903 --     9 O    1.636    10 N    1.246     6 C    0.907
     9   8 O    1.930 --     8 C    1.636    10 N    0.185
    10   7 N    3.364 --     8 C    1.246    11 C    0.940    29 H    0.882
                             9 O    0.185
    11   6 C    3.914 --    25 N    1.001    12 C    0.947    10 N    0.940
                            13 C    0.927
    12   6 C    3.981 --    32 H    0.982    31 H    0.981    30 H    0.980
                            11 C    0.947
    13   6 C    3.928 --    14 C    1.000    15 C    0.991    16 N    0.934
                            11 C    0.927
    14   6 C    3.989 --    13 C    1.000    35 H    0.982    33 H    0.981
                            34 H    0.974
    15   6 C    3.990 --    13 C    0.991    38 H    0.984    36 H    0.984
                            37 H    0.981
    16   7 N    3.338 --    17 C    1.243    13 C    0.934    39 H    0.886
                            18 O    0.175
    17   6 C    3.916 --    18 O    1.600    16 N    1.243    19 C    0.989
    18   8 O    1.916 --    17 C    1.600    16 N    0.175
    19   6 C    3.875 --    20 N    1.609    24 O    1.064    17 C    0.989
    20   7 N    3.017 --    19 C    1.609    21 N    1.201
    21   7 N    2.980 --    22 C    1.603    20 N    1.201
    22   6 C    3.870 --    21 N    1.603    24 O    1.084    23 C    1.031
    23   6 C    3.986 --    22 C    1.031    40 H    0.982    42 H    0.968
                            41 H    0.959
    24   8 O    2.331 --    22 C    1.084    19 C    1.064
    25   7 N    3.064 --     5 C    1.791    11 C    1.001
    26   1 H    1.009 --     1 C    0.985
    27   1 H    1.004 --     1 C    0.978
    28   1 H    1.005 --     1 C    0.979
    29   1 H    0.930 --    10 N    0.882
    30   1 H    0.999 --    12 C    0.980
    31   1 H    0.999 --    12 C    0.981
    32   1 H    1.000 --    12 C    0.982
    33   1 H    0.998 --    14 C    0.981
    34   1 H    1.009 --    14 C    0.974
    35   1 H    1.001 --    14 C    0.982
    36   1 H    1.002 --    15 C    0.984
    37   1 H    1.004 --    15 C    0.981
    38   1 H    1.004 --    15 C    0.984
    39   1 H    0.970 --    16 N    0.886
    40   1 H    0.998 --    23 C    0.982
    41   1 H    0.997 --    23 C    0.959
    42   1 H    0.996 --    23 C    0.968
 ---------------------------------------------------------------------------

           -------------------------------------------------
          | TOTAL ENERGY              -82.982613282262 Eh   |
          | GRADIENT NORM               0.000328834123 Eh/α |
          | HOMO-LUMO GAP               1.739080441019 eV   |
           -------------------------------------------------

 * finished run on 2023/06/21 at 17:25:32.495
