   * xtb version 6.5.1 (579679a) compiled by 'ehlert@majestix' on 2022-07-11
          program call               : /lustre/hpc/kemi/ree/PhD/git/ReactivityQM/dep/xtb-6.5.1/bin/xtb --gfn 1 /lustre/hpc/kemi/ree/PhD/git/ReactivityQM/calculations/R02/reac01prodE13/conf06/R02_reac01prodE13_conf06_gfn1.xyz --opt --vfukui --chrg -1 --uhf 0 --alpb DMSO

   ID    Z sym.   atoms
    1    6 C      1, 3, 5, 6, 8, 10, 12-15, 17, 19, 22, 23
    2    8 O      2, 4, 7, 9, 18, 24
    3    7 N      11, 16, 20, 21, 25
    4    1 H      26-43

      * Solvation model:               ALPB
        Solvent                        DMSO
        Solvent mass                       7.8130E+01 g/mol
          :  Hamiltonian                  GFN1-xTB          :
 * total energy  :   -83.8237770 Eh     change       -0.1847411E-12 Eh
 * total energy  :   -83.8389034 Eh     change       -0.1512646E-01 Eh
 * total energy  :   -83.8443899 Eh     change       -0.5486438E-02 Eh
 * total energy  :   -83.8453367 Eh     change       -0.9468272E-03 Eh
 * total energy  :   -83.8459078 Eh     change       -0.5711211E-03 Eh
 * total energy  :   -83.8461241 Eh     change       -0.2163151E-03 Eh
 * total energy  :   -83.8463852 Eh     change       -0.2610837E-03 Eh
 * total energy  :   -83.8466987 Eh     change       -0.3134583E-03 Eh
 * total energy  :   -83.8471233 Eh     change       -0.4246566E-03 Eh
 * total energy  :   -83.8476129 Eh     change       -0.4895786E-03 Eh
 * total energy  :   -83.8521337 Eh     change       -0.1404529E-04 Eh
 * total energy  :   -83.8521410 Eh     change       -0.7299584E-05 Eh
 * total energy  :   -83.8521467 Eh     change       -0.5620923E-05 Eh
 * total energy  :   -83.8521522 Eh     change       -0.5597672E-05 Eh
 * total energy  :   -83.8521590 Eh     change       -0.6767656E-05 Eh
 * total energy  :   -83.8521678 Eh     change       -0.8751248E-05 Eh
 * total energy  :   -83.8521741 Eh     change       -0.6294813E-05 Eh
 * total energy  :   -83.8521791 Eh     change       -0.5041299E-05 Eh
 * total energy  :   -83.8521837 Eh     change       -0.4631109E-05 Eh
   *** GEOMETRY OPTIMIZATION CONVERGED AFTER 65 ITERATIONS ***

 final structure:
================
43
 xtb: 6.5.1 (579679a)
C           -5.03106178220710       -3.42505422545401       -1.05242966284507
O           -3.94146987514864       -2.61209001113000       -0.66236867483382
C           -4.09329991646732       -1.25067495563116       -0.93687934235047
O           -5.15313694289579       -0.86135145940553       -1.50863719635056
C           -3.03930231601486       -0.43660668053061       -0.55589183659554
C           -3.09099203341235        1.00829491759810       -0.77230520217901
O           -4.22893726965671        1.53929825164976       -1.30492091486557
C           -2.06107151740156        1.77942467490510       -0.38091199037117
O           -2.00202467666536        3.15961582247898       -0.45373960990329
C           -1.23694913538079        3.68558008589576       -1.53334902063494
N           -0.83877289890048        1.16724361748227        0.09844274989528
C           -0.95085023688896       -0.20272335518790        0.43499607917868
C            0.25170220151606       -0.77658082344880        1.16403313032103
C            0.23995698566186       -2.30575598903772        1.07020855150858
C            0.24235647329699       -0.32275397786017        2.63235299999674
N            1.44716901817565       -0.24463935955428        0.49377249421661
C            2.71094619274056       -0.52164457029483        0.85897061873840
O            3.04825405279182       -1.27618465401689        1.76219507691846
C            3.68346285223307        0.20147046971635        0.00136747947059
N            3.39862584346817        0.96494332787091       -1.01419124045611
N            4.58678330195995        1.41331484108421       -1.51471275889513
C            5.51807687144023        0.89692394549021       -0.77455512452683
C            6.98080505118675        1.08099977806246       -0.90501121106946
O            5.01608062492708        0.12068186066389        0.19869494522093
N           -1.91902173949576       -0.95867986552239        0.10977330921785
H           -5.19769381183721       -3.37671233105798       -2.13575044337814
H           -5.95561537420976       -3.12280680919193       -0.54519640273234
H           -4.78544372025682       -4.45076841773515       -0.77178885863808
H           -4.82399805499009        0.74767571904551       -1.50046709263931
H           -1.70159957425822        3.45298222448544       -2.50002786944839
H           -0.21658330904005        3.28411784025559       -1.52253683602924
H           -1.19842401995667        4.76744112975537       -1.40027274902957
H           -0.39732934010162        1.72849571567013        0.81582471096666
H           -0.70030656976390       -2.68006768223926        1.47386979387513
H            1.06668806244584       -2.73168018148094        1.63527082873464
H            0.32026498000956       -2.61436793392258        0.02811963660324
H           -0.68608264247726       -0.64287024923332        3.10351603414714
H            0.31338751489520        0.76212915481077        2.69059470012867
H            1.08192898374078       -0.75845396485749        3.17162162496183
H            1.29927577113929        0.43931629783068       -0.23742801833974
H            7.19440874465654        1.72288936772553       -1.75573742692205
H            7.38185508150433        1.53346527778689        0.00159952716423
H            7.46793914963962        0.11616217652698       -1.04362480823312

          :  Hamiltonian                  GFN1-xTB          :
         :: total energy             -83.852183733980 Eh    ::
         :: gradient norm              0.000919720372 Eh/a0 ::
         :: HOMO-LUMO gap              0.181572318397 eV    ::
         :: SCC energy               -84.606816925287 Eh    ::
         :: -> Gsolv                  -0.108669740873 Eh    ::
         :: repulsion energy           0.780055872784 Eh    ::

    * Orbital Energies and Occupations

         #    Occupation            Energy/Eh            Energy/eV
      -------------------------------------------------------------
         1        2.0000           -0.8527612             -23.2048
       ...           ...                  ...                  ...
        56        2.0000           -0.4712245             -12.8227
        57        2.0000           -0.4647570             -12.6467
        58        2.0000           -0.4510385             -12.2734
        59        2.0000           -0.4486575             -12.2086
        60        2.0000           -0.4433566             -12.0643
        61        2.0000           -0.4407047             -11.9922
        62        2.0000           -0.4388974             -11.9430
        63        2.0000           -0.4296419             -11.6912
        64        2.0000           -0.4223984             -11.4940
        65        2.0000           -0.4061334             -11.0515
        66        2.0000           -0.3864445             -10.5157
        67        2.0000           -0.3826105             -10.4114
        68        1.9420           -0.3042592              -8.2793 (HOMO)
        69        0.0580           -0.2975865              -8.0977 (LUMO)
        70                         -0.2480505              -6.7498
        71                         -0.2255983              -6.1388
        72                         -0.1915949              -5.2136
        73                         -0.1846022              -5.0233
        74                         -0.1389109              -3.7800
        75                         -0.1206463              -3.2830
        76                         -0.1132570              -3.0819
        77                         -0.1112260              -3.0266
        78                         -0.1057968              -2.8789
        79                         -0.0963487              -2.6218
       ...                                ...                  ...
       136                          0.7255099              19.7421
      -------------------------------------------------------------
                  HL-Gap            0.0066727 Eh            0.1816 eV

Wiberg/Mayer (AO) data.
largest (>0.10) Wiberg bond orders for each atom

     #   Z sym  total        # sym  WBO       # sym  WBO       # sym  WBO
 ---------------------------------------------------------------------------
     1   6 C    3.915 --    28 H    0.987    26 H    0.981    27 H    0.981
                             2 O    0.945
     2   8 O    2.074 --     3 C    0.953     1 C    0.945
     3   6 C    3.861 --     5 C    1.387     4 O    1.364     2 O    0.953
     4   8 O    1.799 --     3 C    1.364    29 H    0.119     5 C    0.113
     5   6 C    3.837 --     3 C    1.387     6 C    1.076    25 N    1.073
                             4 O    0.113
     6   6 C    3.911 --     8 C    1.638     5 C    1.076     7 O    1.047
     7   8 O    1.980 --     6 C    1.047    29 H    0.755
     8   6 C    3.800 --     6 C    1.638     9 O    0.963    11 N    0.948
     9   8 O    2.025 --     8 C    0.963    10 C    0.930
    10   6 C    3.916 --    32 H    0.986    31 H    0.983    30 H    0.983
                             9 O    0.930
    11   7 N    3.174 --    12 C    1.032     8 C    0.948    33 H    0.919
                            25 N    0.104
    12   6 C    3.940 --    25 N    1.727    11 N    1.032    13 C    0.974
    13   6 C    3.928 --    14 C    0.994    15 C    0.982    12 C    0.974
                            16 N    0.912
    14   6 C    3.994 --    13 C    0.994    36 H    0.986    34 H    0.984
                            35 H    0.984
    15   6 C    3.991 --    37 H    0.986    38 H    0.984    13 C    0.982
                            39 H    0.982
    16   7 N    3.349 --    17 C    1.269    13 C    0.912    40 H    0.894
                            18 O    0.178
    17   6 C    3.903 --    18 O    1.561    16 N    1.269    19 C    0.994
    18   8 O    1.872 --    17 C    1.561    16 N    0.178
    19   6 C    3.846 --    20 N    1.594    24 O    1.053    17 C    0.994
    20   7 N    2.982 --    19 C    1.594    21 N    1.192
    21   7 N    2.980 --    22 C    1.614    20 N    1.192
    22   6 C    3.867 --    21 N    1.614    24 O    1.079    23 C    1.030
    23   6 C    3.988 --    22 C    1.030    41 H    0.983    43 H    0.965
                            42 H    0.964
    24   8 O    2.311 --    22 C    1.079    19 C    1.053
    25   7 N    3.035 --    12 C    1.727     5 C    1.073    11 N    0.104
    26   1 H    1.019 --     1 C    0.981
    27   1 H    1.019 --     1 C    0.981
    28   1 H    1.019 --     1 C    0.987
    29   1 H    0.887 --     7 O    0.755     4 O    0.119
    30   1 H    1.015 --    10 C    0.983
    31   1 H    1.016 --    10 C    0.983
    32   1 H    1.018 --    10 C    0.986
    33   1 H    0.961 --    11 N    0.919
    34   1 H    1.018 --    14 C    0.984
    35   1 H    1.013 --    14 C    0.984
    36   1 H    1.011 --    14 C    0.986
    37   1 H    1.005 --    15 C    0.986
    38   1 H    1.004 --    15 C    0.984
    39   1 H    1.011 --    15 C    0.982
    40   1 H    0.970 --    16 N    0.894
    41   1 H    0.999 --    23 C    0.983
    42   1 H    0.998 --    23 C    0.964
    43   1 H    0.998 --    23 C    0.965
 ---------------------------------------------------------------------------

           -------------------------------------------------
          | TOTAL ENERGY              -83.852183733980 Eh   |
          | GRADIENT NORM               0.000919720372 Eh/α |
          | HOMO-LUMO GAP               0.181572318397 eV   |
           -------------------------------------------------

 * finished run on 2023/06/20 at 15:16:01.914
