   * xtb version 6.5.1 (579679a) compiled by 'ehlert@majestix' on 2022-07-11
          program call               : /lustre/hpc/kemi/ree/PhD/git/ReactivityQM/dep/xtb-6.5.1/bin/xtb --gfn 1 /lustre/hpc/kemi/ree/PhD/git/ReactivityQM/calculations/R03/reac02prodN18/conf15/R03_reac02prodN18_conf15_gfn1.xyz --opt --vfukui --chrg 1 --uhf 0 --alpb DMSO

   ID    Z sym.   atoms
    1    6 C      1, 3, 5, 6, 8, 11-16, 18, 20, 23, 24
    2    8 O      2, 4, 7, 9, 19, 25
    3    7 N      10, 17, 21, 22, 26
    4    1 H      27-46

      * Solvation model:               ALPB
        Solvent                        DMSO
        Solvent mass                       7.8130E+01 g/mol
          :  Hamiltonian                  GFN1-xTB          :
 * total energy  :   -86.2786346 Eh     change       -0.6004086E-10 Eh
 * total energy  :   -86.2954583 Eh     change       -0.1682370E-01 Eh
 * total energy  :   -86.3023914 Eh     change       -0.6933130E-02 Eh
 * total energy  :   -86.3039476 Eh     change       -0.1556200E-02 Eh
 * total energy  :   -86.3045714 Eh     change       -0.6238420E-03 Eh
 * total energy  :   -86.3048389 Eh     change       -0.2675253E-03 Eh
 * total energy  :   -86.3050588 Eh     change       -0.2198956E-03 Eh
 * total energy  :   -86.3052556 Eh     change       -0.1967986E-03 Eh
 * total energy  :   -86.3054187 Eh     change       -0.1630725E-03 Eh
 * total energy  :   -86.3055475 Eh     change       -0.1288189E-03 Eh
 * total energy  :   -86.3070355 Eh     change       -0.1135182E-04 Eh
 * total energy  :   -86.3070485 Eh     change       -0.1299017E-04 Eh
 * total energy  :   -86.3070604 Eh     change       -0.1192601E-04 Eh
 * total energy  :   -86.3070696 Eh     change       -0.9105669E-05 Eh
 * total energy  :   -86.3070769 Eh     change       -0.7365297E-05 Eh
 * total energy  :   -86.3070845 Eh     change       -0.7568837E-05 Eh
 * total energy  :   -86.3070916 Eh     change       -0.7123298E-05 Eh
 * total energy  :   -86.3070971 Eh     change       -0.5476669E-05 Eh
 * total energy  :   -86.3070996 Eh     change       -0.2556152E-05 Eh
   *** GEOMETRY OPTIMIZATION CONVERGED AFTER 58 ITERATIONS ***

 final structure:
================
46
 xtb: 6.5.1 (579679a)
C           -4.59052773030760        1.93636025834516        3.04523429715657
O           -3.67507317063463        1.37385044067292        2.09059012213888
C           -3.96247970739909        0.18013220006950        1.62510509949871
O           -4.93896464045101       -0.46993567126456        1.94351837088145
C           -2.97209346800104       -0.34255492744155        0.64296449586066
C           -3.16189543205994       -1.55626702311133        0.04878800798187
O           -4.19836833676264       -2.35005498008013        0.24289074171719
C           -2.20953591415528       -2.01790674620299       -0.97015997096953
O           -2.34972112913878       -2.88766036349366       -1.76485094001779
N           -0.86059274965995       -1.31599076296205       -0.89546585260315
C           -0.16996451692669       -2.09578928983061        0.19524942294846
C           -0.15547273315475       -1.54528339027299       -2.18422303359459
C           -0.96123081749887        0.12071955515369       -0.45818584986891
C            0.02269426898791        1.19382823594945       -0.88699746495314
C           -0.08238570532264        2.36908459452352        0.10063726555164
C           -0.34382399292138        1.69452397903675       -2.29284990461110
N            1.40043403643740        0.71609028356280       -0.91924037801493
C            2.02325354793491        0.30477651675197        0.21894456455334
O            1.43870019939422        0.03470787312882        1.25309565009330
C            3.47777776358467        0.17092202978369        0.01831069163085
N            4.13648161095732        0.50426549938013       -1.05213285048681
N            5.44316124840556        0.22505731448751       -0.81029144644481
C            5.50331660763081       -0.26249889482747        0.39474391182070
C            6.70334116245911       -0.72606398225429        1.12401078151859
O            4.29332821427042       -0.31890329959913        0.96840646822519
N           -1.92955263102283        0.47861486279821        0.26832039396039
H           -5.59220696385112        1.97849509713225        2.61410379873068
H           -4.60485545095608        1.31975586596900        3.94568283933266
H           -4.22441752499139        2.93563279117226        3.26899067759576
H           -4.81848521649227       -1.95223417476732        0.90702297766103
H            0.89780994349619       -1.94355138426041        0.08749059269928
H           -0.40900767810257       -3.14901320559975        0.06960511784232
H           -0.50896530709439       -1.72690981259599        1.15924761543995
H           -0.75890270327235       -1.13324055811709       -2.98751223089468
H            0.81811232333173       -1.07150560992151       -2.13560984906859
H           -0.04450816797907       -2.61906908012361       -2.31461412133324
H           -1.06430161919018        2.83059535368219        0.01752254984686
H            0.68239030137339        3.10411154173071       -0.14256513247116
H            0.06029524297294        2.02344027627923        1.12262523623694
H           -1.40471802394419        1.93493475841455       -2.33449552847551
H            0.23056797493478        2.59477640076526       -2.50626273808383
H           -0.11616970189030        0.95239701170114       -3.05269583448368
H            1.98079308431928        1.04151987038187       -1.67934023607600
H            7.58779573262834       -0.57112363864830        0.51082082702576
H            6.80339065261700       -0.17787610282206        2.06064171342074
H            6.60457511744244       -1.78516171267896        1.36262613107742

          :  Hamiltonian                  GFN1-xTB          :
         :: total energy             -86.307099643801 Eh    ::
         :: gradient norm              0.000446492926 Eh/a0 ::
         :: HOMO-LUMO gap              1.725263807060 eV    ::
         :: SCC energy               -87.138920419653 Eh    ::
         :: -> Gsolv                  -0.105164944423 Eh    ::
         :: repulsion energy           0.863185231018 Eh    ::

    * Orbital Energies and Occupations

         #    Occupation            Energy/Eh            Energy/eV
      -------------------------------------------------------------
         1        2.0000           -0.8990749             -24.4651
       ...           ...                  ...                  ...
        58        2.0000           -0.5313259             -14.4581
        59        2.0000           -0.5282147             -14.3735
        60        2.0000           -0.5217881             -14.1986
        61        2.0000           -0.5166258             -14.0581
        62        2.0000           -0.5162212             -14.0471
        63        2.0000           -0.5089143             -13.8483
        64        2.0000           -0.4961597             -13.5012
        65        2.0000           -0.4889405             -13.3047
        66        2.0000           -0.4846715             -13.1886
        67        2.0000           -0.4834353             -13.1549
        68        2.0000           -0.4742088             -12.9039
        69        2.0000           -0.4641782             -12.6309
        70        2.0000           -0.4618863             -12.5686 (HOMO)
        71                         -0.3984840             -10.8433 (LUMO)
        72                         -0.3303901              -8.9904
        73                         -0.3292944              -8.9606
        74                         -0.2987527              -8.1295
        75                         -0.2659469              -7.2368
        76                         -0.2162983              -5.8858
        77                         -0.2140561              -5.8248
        78                         -0.1679258              -4.5695
        79                         -0.1614030              -4.3920
        80                         -0.1492941              -4.0625
        81                         -0.1479051              -4.0247
       ...                                ...                  ...
       144                          0.7301983              19.8697
      -------------------------------------------------------------
                  HL-Gap            0.0634023 Eh            1.7253 eV

Wiberg/Mayer (AO) data.
largest (>0.10) Wiberg bond orders for each atom

     #   Z sym  total        # sym  WBO       # sym  WBO       # sym  WBO
 ---------------------------------------------------------------------------
     1   6 C    3.849 --    29 H    0.985    27 H    0.978    28 H    0.977
                             2 O    0.876
     2   8 O    2.238 --     3 C    1.167     1 C    0.876     4 O    0.140
     3   6 C    3.861 --     4 O    1.617     2 O    1.167     5 C    0.999
     4   8 O    1.962 --     3 C    1.617     2 O    0.140
     5   6 C    3.960 --     6 C    1.519    26 N    1.109     3 C    0.999
                             7 O    0.113
     6   6 C    3.930 --     5 C    1.519     7 O    1.163     8 C    1.024
     7   8 O    2.128 --     6 C    1.163    30 H    0.750     5 C    0.113
     8   6 C    3.857 --     9 O    1.827     6 C    1.024    10 N    0.844
     9   8 O    2.087 --     8 C    1.827
    10   7 N    3.612 --    12 C    0.896    13 C    0.863    11 C    0.858
                             8 C    0.844
    11   6 C    3.872 --    33 H    0.978    32 H    0.978    31 H    0.972
                            10 N    0.858
    12   6 C    3.883 --    34 H    0.978    36 H    0.976    35 H    0.974
                            10 N    0.896
    13   6 C    3.896 --    26 N    1.789    14 C    0.984    10 N    0.863
    14   6 C    3.933 --    13 C    0.984    15 C    0.979    16 C    0.970
                            17 N    0.937
    15   6 C    3.983 --    37 H    0.983    38 H    0.983    39 H    0.979
                            14 C    0.979
    16   6 C    3.983 --    40 H    0.983    42 H    0.979    41 H    0.976
                            14 C    0.970
    17   7 N    3.314 --    18 C    1.210    14 C    0.937    43 H    0.887
                            19 O    0.161
    18   6 C    3.910 --    19 O    1.595    17 N    1.210    20 C    1.006
    19   8 O    1.921 --    18 C    1.595    17 N    0.161
    20   6 C    3.881 --    21 N    1.596    25 O    1.064    18 C    1.006
    21   7 N    3.022 --    20 C    1.596    22 N    1.214
    22   7 N    2.982 --    23 C    1.590    21 N    1.214
    23   6 C    3.866 --    22 N    1.590    25 O    1.087    24 C    1.033
    24   6 C    3.984 --    23 C    1.033    44 H    0.982    45 H    0.962
                            46 H    0.960
    25   8 O    2.335 --    23 C    1.087    20 C    1.064
    26   7 N    3.092 --    13 C    1.789     5 C    1.109
    27   1 H    1.003 --     1 C    0.978
    28   1 H    1.002 --     1 C    0.977
    29   1 H    1.007 --     1 C    0.985
    30   1 H    0.829 --     7 O    0.750
    31   1 H    0.999 --    11 C    0.972
    32   1 H    0.991 --    11 C    0.978
    33   1 H    1.002 --    11 C    0.978
    34   1 H    0.997 --    12 C    0.978
    35   1 H    1.004 --    12 C    0.974
    36   1 H    0.995 --    12 C    0.976
    37   1 H    1.006 --    15 C    0.983
    38   1 H    0.998 --    15 C    0.983
    39   1 H    1.008 --    15 C    0.979
    40   1 H    0.998 --    16 C    0.983
    41   1 H    0.993 --    16 C    0.976
    42   1 H    0.998 --    16 C    0.979
    43   1 H    0.940 --    17 N    0.887
    44   1 H    0.997 --    24 C    0.982
    45   1 H    0.995 --    24 C    0.962
    46   1 H    0.995 --    24 C    0.960
 ---------------------------------------------------------------------------

           -------------------------------------------------
          | TOTAL ENERGY              -86.307099643801 Eh   |
          | GRADIENT NORM               0.000446492926 Eh/α |
          | HOMO-LUMO GAP               1.725263807060 eV   |
           -------------------------------------------------

 * finished run on 2023/06/20 at 15:54:48.466
