   * xtb version 6.5.1 (579679a) compiled by 'ehlert@majestix' on 2022-07-11
          program call               : /lustre/hpc/kemi/ree/PhD/git/ReactivityQM/dep/xtb-6.5.1/bin/xtb --gfn 1 /lustre/hpc/kemi/ree/PhD/git/ReactivityQM/calculations/R03/reac02prodE06/conf03/R03_reac02prodE06_conf03_gfn1.xyz --opt --vfukui --chrg -1 --uhf 0 --alpb DMSO

   ID    Z sym.   atoms
    1    6 C      1, 3, 5, 6, 8, 11-16, 18, 20, 23, 24
    2    8 O      2, 4, 7, 9, 19, 25
    3    7 N      10, 17, 21, 22, 26
    4    1 H      27-46

      * Solvation model:               ALPB
        Solvent                        DMSO
        Solvent mass                       7.8130E+01 g/mol
          :  Hamiltonian                  GFN1-xTB          :
 * total energy  :   -87.0421334 Eh     change       -0.4774847E-11 Eh
 * total energy  :   -87.0539369 Eh     change       -0.1180351E-01 Eh
 * total energy  :   -87.0581691 Eh     change       -0.4232253E-02 Eh
 * total energy  :   -87.0590401 Eh     change       -0.8709792E-03 Eh
 * total energy  :   -87.0597224 Eh     change       -0.6822643E-03 Eh
 * total energy  :   -87.0599521 Eh     change       -0.2297292E-03 Eh
 * total energy  :   -87.0600992 Eh     change       -0.1470816E-03 Eh
 * total energy  :   -87.0601978 Eh     change       -0.9865062E-04 Eh
 * total energy  :   -87.0602636 Eh     change       -0.6573366E-04 Eh
 * total energy  :   -87.0603091 Eh     change       -0.4556330E-04 Eh
 * total energy  :   -87.0609040 Eh     change       -0.7904849E-05 Eh
 * total energy  :   -87.0609200 Eh     change       -0.1599136E-04 Eh
 * total energy  :   -87.0609271 Eh     change       -0.7119259E-05 Eh
 * total energy  :   -87.0609356 Eh     change       -0.8509289E-05 Eh
 * total energy  :   -87.0609446 Eh     change       -0.9048532E-05 Eh
 * total energy  :   -87.0609559 Eh     change       -0.1128583E-04 Eh
 * total energy  :   -87.0609571 Eh     change       -0.1202724E-05 Eh
 * total energy  :   -87.0609636 Eh     change       -0.6446259E-05 Eh
 * total energy  :   -87.0609658 Eh     change       -0.2265250E-05 Eh
   *** GEOMETRY OPTIMIZATION CONVERGED AFTER 56 ITERATIONS ***

 final structure:
================
46
 xtb: 6.5.1 (579679a)
C           -5.28392713330103        2.33571444340626        1.99937164464697
O           -4.17741341723642        1.63168411025573        1.44474970852694
C           -4.45077740202039        0.44065921749803        0.88781912253052
O           -5.59302122218521        0.00499174946365        0.86171208935421
C           -3.26208284144571       -0.24516597768545        0.33421679455367
C           -3.40514016446224       -1.41891882176951       -0.40438466939134
O           -4.62004963133886       -2.07846975227626       -0.57390169585705
C           -2.29452801892462       -1.93465018547291       -1.14294084861043
O           -2.35931801281056       -2.88840571813131       -1.93854894917237
N           -1.09665870228781       -1.20713516710314       -1.00844626425142
C            0.07287613856511       -1.84062646579803       -1.61858547832936
C           -0.89503699022929       -0.37963481398846        0.19690672328791
C           -0.51565319645736       -1.28428047335000        1.40064713878257
C            0.16269478979540        0.75556488741518       -0.04956580100712
C           -0.25940771913007        1.54475371881775       -1.29501829598553
C            0.21677978450071        1.70060701411315        1.16257647079549
N            1.51221268869383        0.19483276181428       -0.22044945863392
C            2.60381560574155        0.91141293583257       -0.53586663493343
O            2.63718356555029        2.09039687449153       -0.85202186002231
C            3.82484329509428        0.05569954296095       -0.48128566791980
N            3.86419739771696       -1.20252906222481       -0.16058089601811
N            5.17027996865116       -1.58873805568156       -0.23993018390886
C            5.84303864059756       -0.54052373194430       -0.60291380424219
C            7.30273821372256       -0.43432192006739       -0.82116789440486
O            5.05103218734548        0.52951395550162       -0.77124832375677
N           -2.09417280292824        0.34781752750240        0.55597002715755
H           -4.89994415795627        3.27885384384296        2.38434816448270
H           -6.04077375969239        2.52451060778957        1.23276094762668
H           -5.73607897415646        1.75742090969773        2.81002046038879
H           -5.31191180511681       -1.59199036011672       -0.09029494333145
H            0.63772301185717       -2.43635742425031       -0.89460805674139
H           -0.26963583268114       -2.50165447905736       -2.41698712056970
H            0.73346032827106       -1.09390429113289       -2.05731192880030
H           -1.26736408120168       -2.06670649440921        1.50136019124985
H            0.45821634543330       -1.75439567454214        1.28141347457318
H           -0.51217395265429       -0.69135526434424        2.31259122429117
H           -0.17351825278232        0.93411351161804       -2.19255626093738
H           -1.30143057237464        1.84293795368533       -1.17288778278709
H            0.34832720145490        2.43854268015417       -1.41966944308966
H           -0.78862452652936        2.03754792252491        1.41261786395494
H            0.64652375129870        1.19356956070053        2.02508022583791
H            0.83486987390778        2.56692637668159        0.92956746108077
H            1.68353362727482       -0.73280855672352        0.14030543170302
H            7.50459546267985       -0.01449801285897       -1.80587781750852
H            7.74278965593363        0.22758326067552       -0.07527498001836
H            7.75690963581565       -1.41858466351136       -0.74136310459734

          :  Hamiltonian                  GFN1-xTB          :
         :: total energy             -87.060965834385 Eh    ::
         :: gradient norm              0.000355184405 Eh/a0 ::
         :: HOMO-LUMO gap              0.512582477364 eV    ::
         :: SCC energy               -87.849281352914 Eh    ::
         :: -> Gsolv                  -0.110002012477 Eh    ::
         :: repulsion energy           0.819274106078 Eh    ::

    * Orbital Energies and Occupations

         #    Occupation            Energy/Eh            Energy/eV
      -------------------------------------------------------------
         1        2.0000           -0.8572622             -23.3273
       ...           ...                  ...                  ...
        59        2.0000           -0.4755692             -12.9409
        60        2.0000           -0.4733064             -12.8793
        61        2.0000           -0.4660766             -12.6826
        62        2.0000           -0.4528029             -12.3214
        63        2.0000           -0.4515645             -12.2877
        64        2.0000           -0.4449084             -12.1066
        65        2.0000           -0.4394856             -11.9590
        66        2.0000           -0.4290732             -11.6757
        67        2.0000           -0.4269941             -11.6191
        68        2.0000           -0.4016315             -10.9289
        69        2.0000           -0.3844559             -10.4616
        70        2.0000           -0.3750601             -10.2059
        71        1.9999           -0.3191467              -8.6844 (HOMO)
        72        0.0001           -0.3003097              -8.1718 (LUMO)
        73                         -0.2710908              -7.3768
        74                         -0.2512808              -6.8377
        75                         -0.1912009              -5.2028
        76                         -0.1891266              -5.1464
        77                         -0.1400415              -3.8107
        78                         -0.1262215              -3.4347
        79                         -0.1215503              -3.3076
        80                         -0.1151756              -3.1341
        81                         -0.1055711              -2.8727
        82                         -0.0994676              -2.7067
       ...                                ...                  ...
       144                          0.7361873              20.0327
      -------------------------------------------------------------
                  HL-Gap            0.0188371 Eh            0.5126 eV

Wiberg/Mayer (AO) data.
largest (>0.10) Wiberg bond orders for each atom

     #   Z sym  total        # sym  WBO       # sym  WBO       # sym  WBO
 ---------------------------------------------------------------------------
     1   6 C    3.889 --    27 H    0.987    29 H    0.980    28 H    0.980
                             2 O    0.914
     2   8 O    2.190 --     3 C    1.092     1 C    0.914     4 O    0.118
     3   6 C    3.820 --     4 O    1.600     2 O    1.092     5 C    1.025
     4   8 O    1.918 --     3 C    1.600     2 O    0.118
     5   6 C    3.971 --    26 N    1.390     6 C    1.336     3 C    1.025
     6   6 C    3.878 --     5 C    1.336     8 C    1.177     7 O    0.989
                            26 N    0.185
     7   8 O    1.961 --     6 C    0.989    30 H    0.829
     8   6 C    3.917 --     9 O    1.487     6 C    1.177    10 N    1.086
     9   8 O    1.812 --     8 C    1.487    10 N    0.113
    10   7 N    3.242 --     8 C    1.086    11 C    0.963    12 C    0.926
                             9 O    0.113
    11   6 C    3.965 --    33 H    0.983    31 H    0.979    32 H    0.975
                            10 N    0.963
    12   6 C    3.947 --    26 N    1.004    13 C    0.971    14 C    0.951
                            10 N    0.926
    13   6 C    3.995 --    34 H    0.984    36 H    0.982    35 H    0.978
                            12 C    0.971
    14   6 C    3.917 --    15 C    0.999    16 C    0.992    12 C    0.951
                            17 N    0.907
    15   6 C    3.995 --    14 C    0.999    39 H    0.983    37 H    0.982
                            38 H    0.981
    16   6 C    3.994 --    14 C    0.992    41 H    0.984    42 H    0.984
                            40 H    0.979
    17   7 N    3.372 --    18 C    1.279    14 C    0.907    43 H    0.898
                            19 O    0.183
    18   6 C    3.922 --    19 O    1.577    17 N    1.279    20 C    0.981
    19   8 O    1.897 --    18 C    1.577    17 N    0.183
    20   6 C    3.870 --    21 N    1.615    25 O    1.063    18 C    0.981
    21   7 N    3.015 --    20 C    1.615    22 N    1.193
    22   7 N    2.980 --    23 C    1.612    21 N    1.193
    23   6 C    3.873 --    22 N    1.612    25 O    1.080    24 C    1.030
    24   6 C    3.987 --    23 C    1.030    46 H    0.983    44 H    0.967
                            45 H    0.962
    25   8 O    2.326 --    23 C    1.080    20 C    1.063
    26   7 N    2.919 --     5 C    1.390    12 C    1.004     6 C    0.185
    27   1 H    1.014 --     1 C    0.987
    28   1 H    1.012 --     1 C    0.980
    29   1 H    1.011 --     1 C    0.980
    30   1 H    0.891 --     7 O    0.829
    31   1 H    1.005 --    11 C    0.979
    32   1 H    1.022 --    11 C    0.975
    33   1 H    1.020 --    11 C    0.983
    34   1 H    1.006 --    13 C    0.984
    35   1 H    1.003 --    13 C    0.978
    36   1 H    1.013 --    13 C    0.982
    37   1 H    1.009 --    15 C    0.982
    38   1 H    1.022 --    15 C    0.981
    39   1 H    1.016 --    15 C    0.983
    40   1 H    1.030 --    16 C    0.979
    41   1 H    1.007 --    16 C    0.984
    42   1 H    1.010 --    16 C    0.984
    43   1 H    0.972 --    17 N    0.898
    44   1 H    0.997 --    24 C    0.967
    45   1 H    0.997 --    24 C    0.962
    46   1 H    0.999 --    24 C    0.983
 ---------------------------------------------------------------------------

           -------------------------------------------------
          | TOTAL ENERGY              -87.060965834385 Eh   |
          | GRADIENT NORM               0.000355184405 Eh/α |
          | HOMO-LUMO GAP               0.512582477364 eV   |
           -------------------------------------------------

 * finished run on 2023/06/20 at 15:20:18.785
