   * xtb version 6.5.1 (579679a) compiled by 'ehlert@majestix' on 2022-07-11
          program call               : /lustre/hpc/kemi/ree/PhD/git/ReactivityQM/dep/xtb-6.5.1/bin/xtb --gfn 1 /lustre/hpc/kemi/ree/PhD/git/ReactivityQM/calculations/R02/reac01prodN04/conf06/R02_reac01prodN04_conf06_gfn1.xyz --opt --vfukui --chrg 1 --uhf 0 --alpb DMSO

   ID    Z sym.   atoms
    1    6 C      1, 3, 5, 7-10, 12, 14, 17, 18, 21, 23, 25
    2    8 O      2, 4, 13, 19, 22, 24
    3    7 N      6, 11, 15, 16, 20
    4    1 H      26-43

      * Solvation model:               ALPB
        Solvent                        DMSO
        Solvent mass                       7.8130E+01 g/mol
          :  Hamiltonian                  GFN1-xTB          :
 * total energy  :   -83.1081990 Eh     change       -0.1053024E-10 Eh
 * total energy  :   -83.1258693 Eh     change       -0.1767035E-01 Eh
 * total energy  :   -83.1346189 Eh     change       -0.8749548E-02 Eh
 * total energy  :   -83.1376147 Eh     change       -0.2995872E-02 Eh
 * total energy  :   -83.1405778 Eh     change       -0.2963093E-02 Eh
 * total energy  :   -83.1426055 Eh     change       -0.2027652E-02 Eh
 * total energy  :   -83.1448332 Eh     change       -0.2227732E-02 Eh
 * total energy  :   -83.1490287 Eh     change       -0.4195485E-02 Eh
 * total energy  :   -83.1518092 Eh     change       -0.2780467E-02 Eh
 * total energy  :   -83.1534133 Eh     change       -0.1604104E-02 Eh
 * total energy  :   -83.1634619 Eh     change       -0.1089520E-04 Eh
 * total energy  :   -83.1634783 Eh     change       -0.1643201E-04 Eh
 * total energy  :   -83.1634912 Eh     change       -0.1290302E-04 Eh
 * total energy  :   -83.1635000 Eh     change       -0.8738478E-05 Eh
 * total energy  :   -83.1633341 Eh     change        0.1658455E-03 Eh
 * total energy  :   -83.1635089 Eh     change       -0.1747992E-03 Eh
 * total energy  :   -83.1635175 Eh     change       -0.8556234E-05 Eh
 * total energy  :   -83.1635234 Eh     change       -0.5955598E-05 Eh
 * total energy  :   -83.1635268 Eh     change       -0.3427419E-05 Eh
   *** GEOMETRY OPTIMIZATION CONVERGED AFTER 58 ITERATIONS ***

 final structure:
================
43
 xtb: 6.5.1 (579679a)
C           -5.67967779309046       -0.86585243535492        0.69040254629515
O           -4.31211341696447       -0.44477518292976        0.52391108335270
C           -4.02283738047235        0.46731926743638       -0.32636350279823
O           -4.98596036878903        0.98589476716237       -1.01122836454478
C           -2.63566608424603        0.85151610823106       -0.46303051193785
N           -1.77548293307910        0.17928295405820        0.36925408788302
C           -0.51560419566457        0.44758103639386        0.31366732367723
C            0.45209761113586       -0.21661556563910        1.26357957005625
C            0.76780889514185        0.80189522588879        2.37167493837638
C           -0.15421888191090       -1.49844779956069        1.84119465637212
N            1.66184156762327       -0.52970487525406        0.49928045552068
C            2.77155484236263       -1.06071040981444        1.07804002963524
O            2.95689434055219       -1.17767021812076        2.27272298166103
C            3.75391088197900       -1.46959117312477        0.04634619633346
N            3.58083329590058       -1.42663868833061       -1.24119086559567
N            4.72101366930178       -1.90894431879759       -1.80617620044259
C            5.51831176753067       -2.21805432741401       -0.82666634653949
C            6.88031773145170       -2.78882892710957       -0.91531567137305
O            4.96239079041262       -1.96480202598942        0.36631012022681
N           -0.01383135539029        1.38277811024401       -0.54217126586928
C           -0.75896018219645        2.12900649002492       -1.42592549512640
O           -0.23467750311448        2.94175129513284       -2.15939471230053
C           -2.20036948994557        1.81812471854941       -1.35723575209812
O           -3.09217346196246        2.43130818930324       -2.12249719600455
C           -2.73849647305786        3.44743938811872       -3.08430878186041
H           -6.05624014894537       -1.25266407297564       -0.25692458159690
H           -5.66215141222581       -1.64205852023259        1.45172489180170
H           -6.28273161243259       -0.01543684548222        1.00959490281356
H            1.28684174971003        1.65981758865403        1.94884046840010
H            1.39300792124520        0.34423361965760        3.13566474768982
H           -0.16316240007915        1.13689803539489        2.82600828431514
H            0.54544098604915       -1.95296540226631        2.54066901317580
H           -0.37155460916658       -2.20119216748766        1.03889468902061
H           -1.07965058683963       -1.25859923534854        2.36161199274931
H            1.56758817466118       -0.64534903458065       -0.49831618119877
H            7.20227471565949       -2.80839844857019       -1.95318666387803
H            7.57349748722295       -2.19157823325578       -0.32466842918123
H            6.88400110857541       -3.80300448116782       -0.51606233129771
H            0.98213407172553        1.56299148999213       -0.54781960923329
H           -4.70971095674419        1.67769729811846       -1.65112970602277
H           -3.67948921768330        3.74636206756792       -3.54180786927567
H           -2.06364135354651        3.03448865202071       -3.83461322273153
H           -2.27336279073307        4.29549508683420       -2.58086771843362

          :  Hamiltonian                  GFN1-xTB          :
         :: total energy             -83.163526849190 Eh    ::
         :: gradient norm              0.000743146639 Eh/a0 ::
         :: HOMO-LUMO gap              1.839851479109 eV    ::
         :: SCC energy               -83.958397644103 Eh    ::
         :: -> Gsolv                  -0.109441544927 Eh    ::
         :: repulsion energy           0.820360659448 Eh    ::

    * Orbital Energies and Occupations

         #    Occupation            Energy/Eh            Energy/eV
      -------------------------------------------------------------
         1        2.0000           -0.9141436             -24.8751
       ...           ...                  ...                  ...
        55        2.0000           -0.5268704             -14.3369
        56        2.0000           -0.5213476             -14.1866
        57        2.0000           -0.5175864             -14.0842
        58        2.0000           -0.5123779             -13.9425
        59        2.0000           -0.5105644             -13.8932
        60        2.0000           -0.4902771             -13.3411
        61        2.0000           -0.4872690             -13.2593
        62        2.0000           -0.4868292             -13.2473
        63        2.0000           -0.4728337             -12.8665
        64        2.0000           -0.4692444             -12.7688
        65        2.0000           -0.4643406             -12.6354
        66        2.0000           -0.4576704             -12.4538
        67        2.0000           -0.4548926             -12.3783 (HOMO)
        68                         -0.3872793             -10.5384 (LUMO)
        69                         -0.3193701              -8.6905
        70                         -0.3178959              -8.6504
        71                         -0.2942733              -8.0076
        72                         -0.2608951              -7.0993
        73                         -0.2066177              -5.6224
        74                         -0.2035352              -5.5385
        75                         -0.1671756              -4.5491
        76                         -0.1494231              -4.0660
        77                         -0.1437174              -3.9108
        78                         -0.1395310              -3.7968
       ...                                ...                  ...
       136                          0.7226482              19.6643
      -------------------------------------------------------------
                  HL-Gap            0.0676133 Eh            1.8399 eV

Wiberg/Mayer (AO) data.
largest (>0.10) Wiberg bond orders for each atom

     #   Z sym  total        # sym  WBO       # sym  WBO       # sym  WBO
 ---------------------------------------------------------------------------
     1   6 C    3.819 --    27 H    0.982    26 H    0.972    28 H    0.972
                             2 O    0.851
     2   8 O    2.320 --     3 C    1.288     1 C    0.851
     3   6 C    3.813 --     2 O    1.288     4 O    1.251     5 C    1.119
     4   8 O    2.197 --     3 C    1.251    40 H    0.745
     5   6 C    3.958 --    23 C    1.413     6 N    1.165     3 C    1.119
     6   7 N    3.023 --     7 C    1.585     5 C    1.165
     7   6 C    3.920 --     6 N    1.585    20 N    1.171     8 C    0.984
     8   6 C    3.934 --    10 C    0.989     7 C    0.984     9 C    0.970
                            11 N    0.928
     9   6 C    3.984 --    31 H    0.985    29 H    0.984    30 H    0.975
                             8 C    0.970
    10   6 C    3.987 --     8 C    0.989    33 H    0.985    34 H    0.983
                            32 H    0.981
    11   7 N    3.311 --    12 C    1.217     8 C    0.928    35 H    0.893
                            13 O    0.168
    12   6 C    3.912 --    13 O    1.615    11 N    1.217    14 C    0.994
    13   8 O    1.928 --    12 C    1.615    11 N    0.168
    14   6 C    3.877 --    15 N    1.605    19 O    1.065    12 C    0.994
    15   7 N    3.019 --    14 C    1.605    16 N    1.205
    16   7 N    2.981 --    17 C    1.598    15 N    1.205
    17   6 C    3.869 --    16 N    1.598    19 O    1.085    18 C    1.032
    18   6 C    3.985 --    17 C    1.032    36 H    0.982    37 H    0.966
                            38 H    0.960
    19   8 O    2.334 --    17 C    1.085    14 C    1.065
    20   7 N    3.477 --     7 C    1.171    21 C    1.139    39 H    0.872
                            22 O    0.141
    21   6 C    3.913 --    22 O    1.618    20 N    1.139    23 C    1.034
    22   8 O    1.945 --    21 C    1.618    20 N    0.141
    23   6 C    3.906 --     5 C    1.413    24 O    1.143    21 C    1.034
    24   8 O    2.254 --    23 C    1.143    25 C    0.853
    25   6 C    3.827 --    41 H    0.982    42 H    0.974    43 H    0.974
                            24 O    0.853
    26   1 H    0.996 --     1 C    0.972
    27   1 H    1.002 --     1 C    0.982
    28   1 H    0.996 --     1 C    0.972
    29   1 H    0.999 --     9 C    0.984
    30   1 H    1.008 --     9 C    0.975
    31   1 H    1.000 --     9 C    0.985
    32   1 H    1.004 --    10 C    0.981
    33   1 H    1.002 --    10 C    0.985
    34   1 H    1.007 --    10 C    0.983
    35   1 H    0.949 --    11 N    0.893
    36   1 H    0.998 --    18 C    0.982
    37   1 H    0.996 --    18 C    0.966
    38   1 H    0.996 --    18 C    0.960
    39   1 H    0.919 --    20 N    0.872
    40   1 H    0.806 --     4 O    0.745
    41   1 H    1.005 --    25 C    0.982
    42   1 H    1.007 --    25 C    0.974
    43   1 H    1.007 --    25 C    0.974
 ---------------------------------------------------------------------------

           -------------------------------------------------
          | TOTAL ENERGY              -83.163526849190 Eh   |
          | GRADIENT NORM               0.000743146639 Eh/α |
          | HOMO-LUMO GAP               1.839851479109 eV   |
           -------------------------------------------------

 * finished run on 2023/06/20 at 15:22:41.834
