   * xtb version 6.5.1 (579679a) compiled by 'ehlert@majestix' on 2022-07-11
          program call               : /lustre/hpc/kemi/ree/PhD/git/ReactivityQM/dep/xtb-6.5.1/bin/xtb --gfn 1 /lustre/hpc/kemi/ree/PhD/git/ReactivityQM/calculations/R03/reac01prodE01/conf08/R03_reac01prodE01_conf08_gfn1.xyz --opt --vfukui --chrg -1 --uhf 0 --alpb DMSO

   ID    Z sym.   atoms
    1    6 C      1-3, 5-7, 9, 10
    2    7 N      4
    3    9 F      8
    4    1 H      11-21

      * Solvation model:               ALPB
        Solvent                        DMSO
        Solvent mass                       7.8130E+01 g/mol
          :  Hamiltonian                  GFN1-xTB          :
 * total energy  :   -31.4534886 Eh     change       -0.1428191E-11 Eh
 * total energy  :   -31.4552604 Eh     change       -0.1771796E-02 Eh
 * total energy  :   -31.4555849 Eh     change       -0.3245535E-03 Eh
 * total energy  :   -31.4556649 Eh     change       -0.8001421E-04 Eh
 * total energy  :   -31.4557373 Eh     change       -0.7232219E-04 Eh
 * total energy  :   -31.4557934 Eh     change       -0.5610961E-04 Eh
 * total energy  :   -31.4558581 Eh     change       -0.6478472E-04 Eh
 * total energy  :   -31.4558880 Eh     change       -0.2982192E-04 Eh
 * total energy  :   -31.4558986 Eh     change       -0.1059181E-04 Eh
 * total energy  :   -31.4559032 Eh     change       -0.4682607E-05 Eh
   *** GEOMETRY OPTIMIZATION CONVERGED AFTER 10 ITERATIONS ***

 final structure:
================
21
 xtb: 6.5.1 (579679a)
C           -0.24825018710327       -1.88549355430113       -0.04414293014343
C           -0.16140923601577       -0.33205682412466       -0.12575779001066
C           -1.61979767248079        0.20907900650139       -0.28352267639676
N           -2.51310821523871       -0.27251973458138        0.78085054622201
C            0.48113997490078        0.21805614687258        1.13696143801834
C            1.60838177966512        0.99253550083741        1.12710573606694
C            2.24185294790864        1.31646721904240       -0.07382967467056
F            3.39009736271322        2.10776879939619       -0.04758913669192
C            1.76101158066208        0.85107150888419       -1.29736680269783
C            0.63604414469821        0.07352730596811       -1.35561692899795
H           -0.88954403165243       -2.19114837559656        0.78508029857552
H           -0.65420162287188       -2.29879341150206       -0.97008645792580
H            0.74952598021476       -2.29738233771537        0.11264519486183
H           -2.02728899726886       -0.12928369834562       -1.24480637607137
H           -1.58575529293272        1.31037126501700       -0.29937926677497
H           -3.46331210071180       -0.03279560852320        0.53844872200707
H           -2.29863518138700        0.21856500416599        1.64192400585108
H            0.00599846815886       -0.03915426951126        2.07988133075841
H            2.02381585474195        1.36225259362099        2.06237182326643
H            2.29178761528514        1.11149903153792       -2.21083822204373
H            0.27164782871454       -0.29256756764295       -2.31233483320265

          :  Hamiltonian                  GFN1-xTB          :
         :: total energy             -31.455903242661 Eh    ::
         :: gradient norm              0.000713035675 Eh/a0 ::
         :: HOMO-LUMO gap              2.351232993484 eV    ::
         :: SCC energy               -31.825548353120 Eh    ::
         :: -> Gsolv                  -0.081302348638 Eh    ::
         :: repulsion energy           0.380146830068 Eh    ::

    * Orbital Energies and Occupations

         #    Occupation            Energy/Eh            Energy/eV
      -------------------------------------------------------------
         1        2.0000           -0.7742569             -21.0686
       ...           ...                  ...                  ...
        16        2.0000           -0.4843650             -13.1802
        17        2.0000           -0.4752583             -12.9324
        18        2.0000           -0.4670688             -12.7096
        19        2.0000           -0.4624484             -12.5839
        20        2.0000           -0.4539457             -12.3525
        21        2.0000           -0.4451260             -12.1125
        22        2.0000           -0.4331164             -11.7857
        23        2.0000           -0.4140760             -11.2676
        24        2.0000           -0.4050639             -11.0224
        25        2.0000           -0.3924269             -10.6785
        26        2.0000           -0.3738052             -10.1718
        27        2.0000           -0.3701840             -10.0732
        28        2.0000           -0.2714705              -7.3871 (HOMO)
        29                         -0.1850643              -5.0359 (LUMO)
        30                         -0.1053215              -2.8659
        31                         -0.0817144              -2.2236
        32                         -0.0753966              -2.0516
        33                         -0.0717478              -1.9524
        34                         -0.0512099              -1.3935
        35                         -0.0466902              -1.2705
        36                         -0.0419440              -1.1414
        37                         -0.0343093              -0.9336
        38                         -0.0249441              -0.6788
        39                         -0.0187060              -0.5090
       ...                                ...                  ...
        62                          0.6498346              17.6829
      -------------------------------------------------------------
                  HL-Gap            0.0864062 Eh            2.3512 eV

Wiberg/Mayer (AO) data.
largest (>0.10) Wiberg bond orders for each atom

     #   Z sym  total        # sym  WBO       # sym  WBO       # sym  WBO
 ---------------------------------------------------------------------------
     1   6 C    3.992 --    13 H    0.989    12 H    0.986    11 H    0.985
                             2 C    0.970
     2   6 C    3.984 --     5 C    1.006    10 C    1.005     1 C    0.970
                             3 C    0.956
     3   6 C    3.963 --     4 N    0.984    14 H    0.981    15 H    0.977
                             2 C    0.956
     4   7 N    2.951 --     3 C    0.984    17 H    0.957    16 H    0.955
     5   6 C    3.929 --     6 C    1.596     2 C    1.006    18 H    0.974
                            10 C    0.108     7 C    0.106
     6   6 C    3.992 --     5 C    1.596     7 C    1.313    19 H    0.972
     7   6 C    3.742 --     9 C    1.320     6 C    1.313     8 F    0.830
                            10 C    0.108     5 C    0.106
     8   9 F    0.922 --     7 C    0.830
     9   6 C    3.992 --    10 C    1.588     7 C    1.320    20 H    0.972
    10   6 C    3.924 --     9 C    1.588     2 C    1.005    21 H    0.975
                             7 C    0.108     5 C    0.108
    11   1 H    1.024 --     1 C    0.985
    12   1 H    1.011 --     1 C    0.986
    13   1 H    1.030 --     1 C    0.989
    14   1 H    1.018 --     3 C    0.981
    15   1 H    1.027 --     3 C    0.977
    16   1 H    0.971 --     4 N    0.955
    17   1 H    0.976 --     4 N    0.957
    18   1 H    1.004 --     5 C    0.974
    19   1 H    1.008 --     6 C    0.972
    20   1 H    1.008 --     9 C    0.972
    21   1 H    1.003 --    10 C    0.975
 ---------------------------------------------------------------------------

           -------------------------------------------------
          | TOTAL ENERGY              -31.455903242661 Eh   |
          | GRADIENT NORM               0.000713035675 Eh/α |
          | HOMO-LUMO GAP               2.351232993484 eV   |
           -------------------------------------------------

 * finished run on 2023/06/20 at 15:12:35.287
