   * xtb version 6.5.1 (579679a) compiled by 'ehlert@majestix' on 2022-07-11
          program call               : /lustre/hpc/kemi/ree/PhD/git/ReactivityQM/dep/xtb-6.5.1/bin/xtb --gfn 1 /lustre/hpc/kemi/ree/PhD/git/ReactivityQM/calculations/R01/reac01prodE02/conf12/R01_reac01prodE02_conf12_gfn1.xyz --opt --vfukui --chrg -1 --uhf 0 --alpb DMSO

   ID    Z sym.   atoms
    1    6 C      1, 3, 5, 6, 9, 10
    2    8 O      2, 4, 11
    3    7 N      7, 8
    4    1 H      12-20

      * Solvation model:               ALPB
        Solvent                        DMSO
        Solvent mass                       7.8130E+01 g/mol
          :  Hamiltonian                  GFN1-xTB          :
 * total energy  :   -38.2756677 Eh     change       -0.1463718E-11 Eh
 * total energy  :   -38.2870366 Eh     change       -0.1136888E-01 Eh
 * total energy  :   -38.2903259 Eh     change       -0.3289278E-02 Eh
 * total energy  :   -38.2908694 Eh     change       -0.5435200E-03 Eh
 * total energy  :   -38.2912031 Eh     change       -0.3337270E-03 Eh
 * total energy  :   -38.2913222 Eh     change       -0.1191066E-03 Eh
 * total energy  :   -38.2914076 Eh     change       -0.8543391E-04 Eh
 * total energy  :   -38.2915029 Eh     change       -0.9524476E-04 Eh
 * total energy  :   -38.2916165 Eh     change       -0.1135761E-03 Eh
 * total energy  :   -38.2917419 Eh     change       -0.1254739E-03 Eh
 * total energy  :   -38.3032011 Eh     change       -0.1627722E-04 Eh
 * total energy  :   -38.3032286 Eh     change       -0.2754958E-04 Eh
 * total energy  :   -38.3032182 Eh     change        0.1047134E-04 Eh
 * total energy  :   -38.3032354 Eh     change       -0.1721996E-04 Eh
 * total energy  :   -38.3032467 Eh     change       -0.1134886E-04 Eh
 * total energy  :   -38.3032542 Eh     change       -0.7497563E-05 Eh
 * total energy  :   -38.3032618 Eh     change       -0.7570290E-05 Eh
 * total energy  :   -38.3032687 Eh     change       -0.6951102E-05 Eh
 * total energy  :   -38.3032732 Eh     change       -0.4465855E-05 Eh
   *** GEOMETRY OPTIMIZATION CONVERGED AFTER 54 ITERATIONS ***

 final structure:
================
20
 xtb: 6.5.1 (579679a)
C           -2.28114215993730       -1.71837153987941       -0.67117705957795
O           -1.90104545357378       -0.81453782948480       -1.70080590788644
C           -0.94186808279657        0.17511715594219       -1.37469880148005
O           -1.47219659207871        1.43542109988700       -1.03875493284127
C           -1.97388491252370        1.61521663588900        0.28139042579477
C            0.28193522911692       -0.23142185319336       -0.86868568207052
N            0.83628812081525       -1.45541102432282       -0.98008038235145
N            2.14723777948797       -1.32141011039797       -0.55535181217327
C            2.32923366161116       -0.09399973320807       -0.22450324454954
C            3.57765033825815        0.53074301178668        0.28964031648276
O            1.20664655288602        0.67931802747654       -0.38740719117760
H           -2.74099023443671       -1.20420597889109        0.18283040274407
H           -1.41542499255766       -2.29370634311649       -0.31052219713588
H           -3.01220403157986       -2.40955634751563       -1.09943261013561
H           -2.95587024409509        1.14018060682545        0.40966040426053
H           -2.08437484508473        2.69070973986961        0.44521330097401
H           -1.28352864857306        1.21051295285988        1.03285973574099
H            3.90567490414548        1.33739609787350       -0.36786645438359
H            4.35985799950467       -0.22360870555585        0.34522747963511
H            3.41800561141133        0.95161413715764        1.28342721013109

          :  Hamiltonian                  GFN1-xTB          :
         :: total energy             -38.303273214832 Eh    ::
         :: gradient norm              0.000333927661 Eh/a0 ::
         :: HOMO-LUMO gap              2.793145179728 eV    ::
         :: SCC energy               -38.605921652144 Eh    ::
         :: -> Gsolv                  -0.101014498903 Eh    ::
         :: repulsion energy           0.311185406592 Eh    ::

    * Orbital Energies and Occupations

         #    Occupation            Energy/Eh            Energy/eV
      -------------------------------------------------------------
         1        2.0000           -0.7744759             -21.0746
       ...           ...                  ...                  ...
        19        2.0000           -0.5110955             -13.9076
        20        2.0000           -0.5070154             -13.7966
        21        2.0000           -0.4951563             -13.4739
        22        2.0000           -0.4763845             -12.9631
        23        2.0000           -0.4704064             -12.8004
        24        2.0000           -0.4562126             -12.4142
        25        2.0000           -0.4224120             -11.4944
        26        2.0000           -0.4187487             -11.3947
        27        2.0000           -0.4168128             -11.3421
        28        2.0000           -0.3976485             -10.8206
        29        2.0000           -0.3876889             -10.5496
        30        2.0000           -0.3730232             -10.1505
        31        2.0000           -0.2910083              -7.9187 (HOMO)
        32                         -0.1883621              -5.1256 (LUMO)
        33                         -0.1502125              -4.0875
        34                         -0.1167813              -3.1778
        35                         -0.1129558              -3.0737
        36                         -0.1005804              -2.7369
        37                         -0.0589950              -1.6053
        38                         -0.0501624              -1.3650
        39                         -0.0492192              -1.3393
        40                         -0.0439542              -1.1961
        41                         -0.0376818              -1.0254
        42                         -0.0219683              -0.5978
       ...                                ...                  ...
        62                          0.6445022              17.5378
      -------------------------------------------------------------
                  HL-Gap            0.1026462 Eh            2.7931 eV

Wiberg/Mayer (AO) data.
largest (>0.10) Wiberg bond orders for each atom

     #   Z sym  total        # sym  WBO       # sym  WBO       # sym  WBO
 ---------------------------------------------------------------------------
     1   6 C    3.936 --    14 H    0.986    12 H    0.980    13 H    0.979
                             2 O    0.948
     2   8 O    1.982 --     1 C    0.948     3 C    0.913
     3   6 C    3.589 --     6 C    1.423     4 O    0.924     2 O    0.913
                             7 N    0.155
     4   8 O    1.987 --     5 C    0.944     3 C    0.924
     5   6 C    3.938 --    16 H    0.985    17 H    0.982    15 H    0.980
                             4 O    0.944
     6   6 C    3.861 --     3 C    1.423     7 N    1.324    11 O    0.972
     7   7 N    2.835 --     6 C    1.324     8 N    1.143     3 C    0.155
                             9 C    0.104
     8   7 N    2.985 --     9 C    1.680     7 N    1.143
     9   6 C    3.888 --     8 N    1.680    10 C    1.018    11 O    1.002
                             7 N    0.104
    10   6 C    3.996 --     9 C    1.018    19 H    0.987    18 H    0.975
                            20 H    0.975
    11   8 O    2.191 --     9 C    1.002     6 C    0.972
    12   1 H    1.020 --     1 C    0.980
    13   1 H    1.036 --     1 C    0.979
    14   1 H    1.023 --     1 C    0.986
    15   1 H    1.020 --     5 C    0.980
    16   1 H    1.022 --     5 C    0.985
    17   1 H    1.019 --     5 C    0.982
    18   1 H    1.006 --    10 C    0.975
    19   1 H    1.007 --    10 C    0.987
    20   1 H    1.006 --    10 C    0.975
 ---------------------------------------------------------------------------

           -------------------------------------------------
          | TOTAL ENERGY              -38.303273214832 Eh   |
          | GRADIENT NORM               0.000333927661 Eh/α |
          | HOMO-LUMO GAP               2.793145179728 eV   |
           -------------------------------------------------

 * finished run on 2023/06/20 at 14:52:58.538
