   * xtb version 6.5.1 (579679a) compiled by 'ehlert@majestix' on 2022-07-11
          program call               : /lustre/hpc/kemi/ree/PhD/git/ReactivityQM/dep/xtb-6.5.1/bin/xtb --gfn 1 /lustre/hpc/kemi/ree/PhD/git/ReactivityQM/calculations/R03/reac02prodN02/conf15/R03_reac02prodN02_conf15_gfn1.xyz --opt --vfukui --chrg 1 --uhf 0 --alpb DMSO

   ID    Z sym.   atoms
    1    6 C      1, 3, 5, 7-10, 12, 14, 15, 18, 19, 22, 23, 25
    2    8 O      2, 4, 13, 20, 24, 26
    3    7 N      6, 11, 16, 17, 21
    4    1 H      27-46

      * Solvation model:               ALPB
        Solvent                        DMSO
        Solvent mass                       7.8130E+01 g/mol
          :  Hamiltonian                  GFN1-xTB          :
 * total energy  :   -86.3208489 Eh     change       -0.2874856E-10 Eh
 * total energy  :   -86.3404703 Eh     change       -0.1962134E-01 Eh
 * total energy  :   -86.3474656 Eh     change       -0.6995300E-02 Eh
 * total energy  :   -86.3489050 Eh     change       -0.1439399E-02 Eh
 * total energy  :   -86.3497269 Eh     change       -0.8219329E-03 Eh
 * total energy  :   -86.3500377 Eh     change       -0.3107966E-03 Eh
 * total energy  :   -86.3503219 Eh     change       -0.2841676E-03 Eh
 * total energy  :   -86.3505311 Eh     change       -0.2091931E-03 Eh
 * total energy  :   -86.3506695 Eh     change       -0.1384216E-03 Eh
 * total energy  :   -86.3507536 Eh     change       -0.8412366E-04 Eh
 * total energy  :   -86.3509478 Eh     change       -0.3977632E-04 Eh
 * total energy  :   -86.3509863 Eh     change       -0.3851186E-04 Eh
 * total energy  :   -86.3509933 Eh     change       -0.7024747E-05 Eh
 * total energy  :   -86.3510350 Eh     change       -0.4161478E-04 Eh
 * total energy  :   -86.3510485 Eh     change       -0.1355801E-04 Eh
 * total energy  :   -86.3510745 Eh     change       -0.2602395E-04 Eh
 * total energy  :   -86.3510864 Eh     change       -0.1181983E-04 Eh
 * total energy  :   -86.3511012 Eh     change       -0.1481457E-04 Eh
 * total energy  :   -86.3511057 Eh     change       -0.4518178E-05 Eh
   *** GEOMETRY OPTIMIZATION CONVERGED AFTER 22 ITERATIONS ***

 final structure:
================
46
 xtb: 6.5.1 (579679a)
C           -5.10875102773989        1.93656380530968        2.88517143808464
O           -4.20736018927333        1.25310242915718        2.00757784807465
C           -4.68736241675763        0.91613725085173        0.81030898432989
O           -5.81647597167723        1.15691204104801        0.45518072950600
C           -3.66455449465083        0.21985720575454       -0.02500540565628
N           -2.43101365739212        0.04449810167269        0.54231907629947
C           -1.46853807555756       -0.53567792444415       -0.09188230724836
C           -0.16624372800593       -0.69487210606722        0.68245346032890
C            0.12358190110887       -2.17686827202660        0.95335543626694
C           -0.26175988662028        0.07486102268134        2.00568437482386
N            0.90659728716000       -0.05968134842494       -0.11540684275926
C            2.19489260706474       -0.10686446408327        0.13296161368266
O            2.62752933510383       -0.81801530321952        1.12420912755494
C            4.02193393665877       -0.95222166940371        1.45480727303392
C            3.01987086068520        0.66261049643448       -0.76479524155597
N            2.55007967451013        1.38800418506943       -1.74644475788118
N            3.60281385501987        1.95070761499838       -2.35668459564258
C            4.67465816411836        1.54567835025246       -1.72308381756778
C            6.07938724310349        1.89556685365776       -2.00940607864730
O            4.36218179774778        0.73168559403047       -0.70945598166365
N           -1.61989121197104       -1.01542166966765       -1.36840325969686
C           -0.59402008330870       -1.70816579981526       -2.14914225209553
C           -2.83303187897450       -0.90239939038263       -2.03151544407001
O           -2.99515217846848       -1.33442903915468       -3.16498476702215
C           -3.89704008362576       -0.23320600673855       -1.29432396648663
O           -5.05894056349711       -0.11651224295059       -1.93688747229720
H           -5.98010341929939        1.30980140547227        3.09089941580990
H           -5.43535201107203        2.87472659794703        2.42969389327848
H           -4.55821872920488        2.13280378438430        3.80267764114087
H            0.53646684232624       -2.67060368020209        0.07819011837096
H            0.82824435161869       -2.28241007444030        1.77478573279266
H           -0.80877386123538       -2.66759990780408        1.23084790804301
H            0.68406821118224        0.00778317825963        2.53761123094445
H           -0.49614093819812        1.12046089121791        1.81562523391426
H           -1.05063916965268       -0.35986698294126        2.61683339819158
H            0.62805587774875        0.56607528299784       -0.86320010819197
H            4.44181746741572        0.02443157996425        1.69573546672385
H            4.55926664160631       -1.39915516885025        0.61865132036613
H            4.04857831048356       -1.60696214720537        2.32381178302938
H            6.28244779231068        1.77232594546027       -3.07303511945871
H            6.25656015635151        2.94077280449138       -1.74998845965002
H            6.74628494936662        1.26478211760534       -1.42724169093692
H           -0.81693533232418       -2.77508721140999       -2.15815695955224
H            0.38967494322271       -1.53437608454330       -1.73460068532027
H           -0.63558854528210       -1.32638848250967       -3.16932535130935
H           -4.97310575212082       -0.51336456243311       -2.82353893987898

          :  Hamiltonian                  GFN1-xTB          :
         :: total energy             -86.351105689015 Eh    ::
         :: gradient norm              0.000455870077 Eh/a0 ::
         :: HOMO-LUMO gap              1.717456631054 eV    ::
         :: SCC energy               -87.183387755389 Eh    ::
         :: -> Gsolv                  -0.118253799342 Eh    ::
         :: repulsion energy           0.861234583663 Eh    ::

    * Orbital Energies and Occupations

         #    Occupation            Energy/Eh            Energy/eV
      -------------------------------------------------------------
         1        2.0000           -0.9061356             -24.6572
       ...           ...                  ...                  ...
        58        2.0000           -0.5281089             -14.3706
        59        2.0000           -0.5247608             -14.2795
        60        2.0000           -0.5196665             -14.1408
        61        2.0000           -0.5189719             -14.1219
        62        2.0000           -0.5118275             -13.9275
        63        2.0000           -0.5020007             -13.6601
        64        2.0000           -0.4930945             -13.4178
        65        2.0000           -0.4905379             -13.3482
        66        2.0000           -0.4884382             -13.2911
        67        2.0000           -0.4874269             -13.2636
        68        2.0000           -0.4738400             -12.8938
        69        2.0000           -0.4597719             -12.5110
        70        2.0000           -0.4423312             -12.0364 (HOMO)
        71                         -0.3792158             -10.3190 (LUMO)
        72                         -0.3341327              -9.0922
        73                         -0.3010541              -8.1921
        74                         -0.2921591              -7.9501
        75                         -0.2585530              -7.0356
        76                         -0.2495983              -6.7919
        77                         -0.1691919              -4.6039
        78                         -0.1615330              -4.3955
        79                         -0.1572786              -4.2798
        80                         -0.1560769              -4.2471
        81                         -0.1478468              -4.0231
       ...                                ...                  ...
       144                          0.7361700              20.0322
      -------------------------------------------------------------
                  HL-Gap            0.0631154 Eh            1.7175 eV

Wiberg/Mayer (AO) data.
largest (>0.10) Wiberg bond orders for each atom

     #   Z sym  total        # sym  WBO       # sym  WBO       # sym  WBO
 ---------------------------------------------------------------------------
     1   6 C    3.869 --    29 H    0.986    28 H    0.979    27 H    0.979
                             2 O    0.895
     2   8 O    2.200 --     3 C    1.114     1 C    0.895     4 O    0.136
     3   6 C    3.854 --     4 O    1.665     2 O    1.114     5 C    0.997
     4   8 O    1.929 --     3 C    1.665     2 O    0.136
     5   6 C    3.961 --    25 C    1.491     6 N    1.183     3 C    0.997
     6   7 N    3.036 --     7 C    1.585     5 C    1.183
     7   6 C    3.938 --     6 N    1.585    21 N    1.166     8 C    0.975
     8   6 C    3.898 --    10 C    0.984     9 C    0.982     7 C    0.975
                            11 N    0.885
     9   6 C    3.982 --     8 C    0.982    32 H    0.981    30 H    0.980
                            31 H    0.979
    10   6 C    3.982 --     8 C    0.984    33 H    0.983    34 H    0.983
                            35 H    0.980
    11   7 N    3.467 --    12 C    1.429     8 C    0.885    36 H    0.874
                            13 O    0.109
    12   6 C    3.893 --    11 N    1.429    13 O    1.215    15 C    1.090
    13   8 O    2.291 --    12 C    1.215    14 C    0.852    11 N    0.109
    14   6 C    3.818 --    39 H    0.980    37 H    0.974    38 H    0.974
                            13 O    0.852
    15   6 C    3.890 --    16 N    1.533    12 C    1.090    20 O    1.056
    16   7 N    3.037 --    15 C    1.533    17 N    1.270
    17   7 N    2.989 --    18 C    1.534    16 N    1.270
    18   6 C    3.848 --    17 N    1.534    20 O    1.093    19 C    1.039
    19   6 C    3.976 --    18 C    1.039    42 H    0.979    40 H    0.960
                            41 H    0.948
    20   8 O    2.347 --    18 C    1.093    15 C    1.056
    21   7 N    3.505 --     7 C    1.166    23 C    1.121    22 C    0.926
                            24 O    0.135
    22   6 C    3.918 --    44 H    0.980    43 H    0.973    45 H    0.973
                            21 N    0.926
    23   6 C    3.911 --    24 O    1.571    21 N    1.121    25 C    1.070
    24   8 O    1.914 --    23 C    1.571    21 N    0.135
    25   6 C    3.922 --     5 C    1.491    26 O    1.120    23 C    1.070
    26   8 O    2.098 --    25 C    1.120    46 H    0.803
    27   1 H    1.006 --     1 C    0.979
    28   1 H    1.006 --     1 C    0.979
    29   1 H    1.010 --     1 C    0.986
    30   1 H    0.999 --     9 C    0.980
    31   1 H    1.003 --     9 C    0.979
    32   1 H    0.997 --     9 C    0.981
    33   1 H    1.001 --    10 C    0.983
    34   1 H    1.006 --    10 C    0.983
    35   1 H    1.006 --    10 C    0.980
    36   1 H    0.936 --    11 N    0.874
    37   1 H    1.001 --    14 C    0.974
    38   1 H    1.001 --    14 C    0.974
    39   1 H    1.001 --    14 C    0.980
    40   1 H    0.991 --    19 C    0.960
    41   1 H    0.989 --    19 C    0.948
    42   1 H    0.993 --    19 C    0.979
    43   1 H    0.998 --    22 C    0.973
    44   1 H    1.003 --    22 C    0.980
    45   1 H    1.003 --    22 C    0.973
    46   1 H    0.842 --    26 O    0.803
 ---------------------------------------------------------------------------

           -------------------------------------------------
          | TOTAL ENERGY              -86.351105689015 Eh   |
          | GRADIENT NORM               0.000455870077 Eh/α |
          | HOMO-LUMO GAP               1.717456631054 eV   |
           -------------------------------------------------

 * finished run on 2023/06/20 at 15:37:02.676
