   * xtb version 6.5.1 (579679a) compiled by 'ehlert@majestix' on 2022-07-11
          program call               : /lustre/hpc/kemi/ree/PhD/git/ReactivityQM/dep/xtb-6.5.1/bin/xtb --gfn 1 /lustre/hpc/kemi/ree/PhD/git/ReactivityQM/calculations/R02oxygendeprot/reac01prodN08/conf19/R02oxygendeprot_reac01prodN08_conf19_gfn1.xyz --opt --vfukui --chrg 0 --uhf 0 --alpb DMSO

   ID    Z sym.   atoms
    1    6 C      1, 3, 5, 7-10, 12, 14, 17, 18, 21, 23, 25
    2    8 O      2, 4, 13, 19, 22, 24
    3    7 N      6, 11, 15, 16, 20
    4    1 H      26-42

      * Solvation model:               ALPB
        Solvent                        DMSO
        Solvent mass                       7.8130E+01 g/mol
          :  Hamiltonian                  GFN1-xTB          :
 * total energy  :   -82.9979559 Eh     change       -0.1091394E-10 Eh
 * total energy  :   -83.0121753 Eh     change       -0.1421941E-01 Eh
 * total energy  :   -83.0167144 Eh     change       -0.4539051E-02 Eh
 * total energy  :   -83.0176915 Eh     change       -0.9770914E-03 Eh
 * total energy  :   -83.0183532 Eh     change       -0.6617503E-03 Eh
 * total energy  :   -83.0186911 Eh     change       -0.3378856E-03 Eh
 * total energy  :   -83.0189200 Eh     change       -0.2289255E-03 Eh
 * total energy  :   -83.0190853 Eh     change       -0.1652705E-03 Eh
 * total energy  :   -83.0191802 Eh     change       -0.9490790E-04 Eh
 * total energy  :   -83.0192582 Eh     change       -0.7800673E-04 Eh
 * total energy  :   -83.0202724 Eh     change       -0.7604595E-05 Eh
 * total energy  :   -83.0202792 Eh     change       -0.6840062E-05 Eh
 * total energy  :   -83.0202905 Eh     change       -0.1121913E-04 Eh
 * total energy  :   -83.0203013 Eh     change       -0.1079431E-04 Eh
 * total energy  :   -83.0203116 Eh     change       -0.1031713E-04 Eh
 * total energy  :   -83.0203198 Eh     change       -0.8268370E-05 Eh
 * total energy  :   -83.0203290 Eh     change       -0.9141574E-05 Eh
 * total energy  :   -83.0203325 Eh     change       -0.3472624E-05 Eh
 * total energy  :   -83.0203372 Eh     change       -0.4739259E-05 Eh
   *** GEOMETRY OPTIMIZATION CONVERGED AFTER 51 ITERATIONS ***

 final structure:
================
42
 xtb: 6.5.1 (579679a)
C           -6.09887724158463       -1.05927568428993       -0.53917146021075
O           -4.84704571642047       -0.81343776192065        0.10736264700854
C           -3.85881163475995       -0.37033255358303       -0.66579575968581
O           -3.99006875505113       -0.17104318410094       -1.85308597890954
C           -2.56932662253217       -0.13818727850145        0.05490032998998
N           -1.59247300105561        0.33836626605577       -0.78074395051570
C           -0.41903756607385        0.58993647723323       -0.31629411384546
C            0.64629607586215        1.17334224258166       -1.21804860584951
C            0.73647659509519        2.67893725417840       -0.92190608766166
C            0.29253541247045        0.91530593530939       -2.68595465205686
N            1.91788104441195        0.52059746304354       -0.88652462893834
C            3.09021069320330        0.85699604839839       -1.46867836436630
O            3.24997257010736        1.76351602192379       -2.26783285143170
C            4.21506377684947       -0.00075228641435       -1.01855499930100
N            5.45627835663434        0.06463136336727       -1.38788905123008
N            6.11989490494248       -0.91608806161235       -0.71334151341180
C            5.24293305883894       -1.52025026211741        0.02623741124620
C            5.46402705808052       -2.65136360168351        0.95282899976515
O            4.01632536859971       -0.99094247221215       -0.12084657361517
N           -0.11969174096763        0.41373859566983        1.00236963058855
C           -1.00714616431982       -0.06353954208300        1.94507643125106
O           -0.64986545641951       -0.19064403837746        3.10688316236628
C           -2.33359257914530       -0.36179851439466        1.39413462678121
O           -3.31878319091458       -0.83709867495600        2.16669246181796
C           -3.14376152610335       -1.15902891853494        3.54691628493883
H           -5.98589350564270       -1.84660200450997       -1.28791704631962
H           -6.45682566539598       -0.14834327217705       -1.02438545723319
H           -6.79378504392922       -1.37303102268776        0.23672132619098
H            1.45458058299129        3.15255536113623       -1.58813031537090
H           -0.24124727292619        3.13439543919351       -1.07123538133908
H            1.04808068655772        2.83501282667238        0.10900265247821
H            1.03724964117727        1.37215167382882       -3.33483185698758
H           -0.68474613368845        1.34460102585851       -2.90186180860607
H            0.25733693603317       -0.15621653750348       -2.87598165982131
H            1.89261697452716       -0.30875365321786       -0.31798135666870
H            6.48890481250468       -3.00422221121306        0.86241428629149
H            4.77233487987094       -3.46096661380548        0.72297823795179
H            5.27905981922239       -2.33149609549983        1.97857167741784
H            0.80176531116320        0.63412266572785        1.34822882776389
H           -2.36310572227528       -1.91129268798636        3.67977281418681
H           -2.90320720061979       -0.26861604178586        4.13243287875393
H           -4.10253081931871       -1.56419168500583        3.87346978658047

          :  Hamiltonian                  GFN1-xTB          :
         :: total energy             -83.020337193976 Eh    ::
         :: gradient norm              0.000781324022 Eh/a0 ::
         :: HOMO-LUMO gap              2.765812879613 eV    ::
         :: SCC energy               -83.804593548253 Eh    ::
         :: -> Gsolv                  -0.057805550287 Eh    ::
         :: repulsion energy           0.809243974546 Eh    ::

    * Orbital Energies and Occupations

         #    Occupation            Energy/Eh            Energy/eV
      -------------------------------------------------------------
         1        2.0000           -0.8657776             -23.5590
       ...           ...                  ...                  ...
        55        2.0000           -0.5051608             -13.7461
        56        2.0000           -0.5013883             -13.6435
        57        2.0000           -0.4957375             -13.4897
        58        2.0000           -0.4852531             -13.2044
        59        2.0000           -0.4811310             -13.0922
        60        2.0000           -0.4801274             -13.0649
        61        2.0000           -0.4669011             -12.7050
        62        2.0000           -0.4614755             -12.5574
        63        2.0000           -0.4569932             -12.4354
        64        2.0000           -0.4519918             -12.2993
        65        2.0000           -0.4508576             -12.2685
        66        2.0000           -0.4483933             -12.2014
        67        2.0000           -0.4271977             -11.6246 (HOMO)
        68                         -0.3255559              -8.8588 (LUMO)
        69                         -0.3117243              -8.4824
        70                         -0.2846595              -7.7460
        71                         -0.2569427              -6.9918
        72                         -0.2408431              -6.5537
        73                         -0.1994806              -5.4281
        74                         -0.1615269              -4.3954
        75                         -0.1417821              -3.8581
        76                         -0.1372277              -3.7342
        77                         -0.1314756              -3.5776
        78                         -0.1282787              -3.4906
       ...                                ...                  ...
       134                          0.7287377              19.8300
      -------------------------------------------------------------
                  HL-Gap            0.1016418 Eh            2.7658 eV

Wiberg/Mayer (AO) data.
largest (>0.10) Wiberg bond orders for each atom

     #   Z sym  total        # sym  WBO       # sym  WBO       # sym  WBO
 ---------------------------------------------------------------------------
     1   6 C    3.872 --    28 H    0.986    27 H    0.979    26 H    0.979
                             2 O    0.897
     2   8 O    2.206 --     3 C    1.117     1 C    0.897     4 O    0.134
     3   6 C    3.852 --     4 O    1.654     2 O    1.117     5 C    1.000
     4   8 O    1.915 --     3 C    1.654     2 O    0.134
     5   6 C    3.962 --    23 C    1.483     6 N    1.184     3 C    1.000
     6   7 N    3.029 --     7 C    1.589     5 C    1.184
     7   6 C    3.930 --     6 N    1.589    20 N    1.166     8 C    0.982
     8   6 C    3.933 --    10 C    0.991     7 C    0.982     9 C    0.975
                            11 N    0.923
     9   6 C    3.987 --    30 H    0.985    31 H    0.985    29 H    0.977
                             8 C    0.975
    10   6 C    3.988 --     8 C    0.991    34 H    0.985    33 H    0.983
                            32 H    0.982
    11   7 N    3.338 --    12 C    1.248     8 C    0.923    35 H    0.893
                            13 O    0.174
    12   6 C    3.916 --    13 O    1.591    11 N    1.248    14 C    0.993
    13   8 O    1.907 --    12 C    1.591    11 N    0.174
    14   6 C    3.872 --    15 N    1.623    19 O    1.046    12 C    0.993
    15   7 N    3.000 --    14 C    1.623    16 N    1.198
    16   7 N    2.982 --    17 C    1.611    15 N    1.198
    17   6 C    3.868 --    16 N    1.611    19 O    1.071    18 C    1.032
    18   6 C    3.986 --    17 C    1.032    36 H    0.982    37 H    0.965
                            38 H    0.960
    19   8 O    2.315 --    17 C    1.071    14 C    1.046
    20   7 N    3.464 --     7 C    1.166    21 C    1.128    39 H    0.882
                            22 O    0.133
    21   6 C    3.909 --    22 O    1.578    20 N    1.128    23 C    1.065
    22   8 O    1.905 --    21 C    1.578    20 N    0.133
    23   6 C    3.918 --     5 C    1.483    24 O    1.099    21 C    1.065
    24   8 O    2.195 --    23 C    1.099    25 C    0.895
    25   6 C    3.870 --    42 H    0.984    40 H    0.979    41 H    0.978
                            24 O    0.895
    26   1 H    1.007 --     1 C    0.979
    27   1 H    1.008 --     1 C    0.979
    28   1 H    1.011 --     1 C    0.986
    29   1 H    1.009 --     9 C    0.977
    30   1 H    1.001 --     9 C    0.985
    31   1 H    1.001 --     9 C    0.985
    32   1 H    1.007 --    10 C    0.982
    33   1 H    1.010 --    10 C    0.983
    34   1 H    1.004 --    10 C    0.985
    35   1 H    0.937 --    11 N    0.893
    36   1 H    0.998 --    18 C    0.982
    37   1 H    0.997 --    18 C    0.965
    38   1 H    0.996 --    18 C    0.960
    39   1 H    0.927 --    20 N    0.882
    40   1 H    1.013 --    25 C    0.979
    41   1 H    1.015 --    25 C    0.978
    42   1 H    1.012 --    25 C    0.984
 ---------------------------------------------------------------------------

           -------------------------------------------------
          | TOTAL ENERGY              -83.020337193976 Eh   |
          | GRADIENT NORM               0.000781324022 Eh/α |
          | HOMO-LUMO GAP               2.765812879613 eV   |
           -------------------------------------------------

 * finished run on 2023/06/21 at 17:23:49.123
