   * xtb version 6.5.1 (579679a) compiled by 'ehlert@majestix' on 2022-07-11
          program call               : /lustre/hpc/kemi/ree/PhD/git/ReactivityQM/dep/xtb-6.5.1/bin/xtb --gfn 1 /lustre/hpc/kemi/ree/PhD/git/ReactivityQM/calculations/RaltegravirCLI/reac02prodN11/conf20/RaltegravirCLI_reac02prodN11_conf20_gfn1.xyz --opt --vfukui --chrg 1 --uhf 0 --alpb DMSO

   ID    Z sym.   atoms
    1    6 C      1, 3-6, 9, 10, 13-18, 20-22, 24
    2    7 N      2, 7, 8, 12
    3    8 O      11, 23, 25
    4    9 F      19
    5    1 H      26-47

      * Solvation model:               ALPB
        Solvent                        DMSO
        Solvent mass                       7.8130E+01 g/mol
          :  Hamiltonian                  GFN1-xTB          :
 * total energy  :   -79.4546467 Eh     change       -0.1848193E-08 Eh
 * total energy  :   -79.4624548 Eh     change       -0.7808025E-02 Eh
 * total energy  :   -79.4647925 Eh     change       -0.2337739E-02 Eh
 * total energy  :   -79.4655302 Eh     change       -0.7376965E-03 Eh
 * total energy  :   -79.4664494 Eh     change       -0.9192195E-03 Eh
 * total energy  :   -79.4671802 Eh     change       -0.7307843E-03 Eh
 * total energy  :   -79.4678361 Eh     change       -0.6559031E-03 Eh
 * total energy  :   -79.4683547 Eh     change       -0.5186037E-03 Eh
 * total energy  :   -79.4687557 Eh     change       -0.4009863E-03 Eh
 * total energy  :   -79.4691688 Eh     change       -0.4130874E-03 Eh
 * total energy  :   -79.4746782 Eh     change       -0.2087891E-04 Eh
 * total energy  :   -79.4746892 Eh     change       -0.1096032E-04 Eh
 * total energy  :   -79.4747129 Eh     change       -0.2374239E-04 Eh
 * total energy  :   -79.4747465 Eh     change       -0.3353452E-04 Eh
 * total energy  :   -79.4747737 Eh     change       -0.2719923E-04 Eh
 * total energy  :   -79.4748011 Eh     change       -0.2744230E-04 Eh
 * total energy  :   -79.4748363 Eh     change       -0.3519373E-04 Eh
 * total energy  :   -79.4748527 Eh     change       -0.1640032E-04 Eh
 * total energy  :   -79.4748570 Eh     change       -0.4350635E-05 Eh
   *** GEOMETRY OPTIMIZATION CONVERGED AFTER 57 ITERATIONS ***

 final structure:
================
47
 xtb: 6.5.1 (579679a)
C           -4.35626659656385       -2.29711730428683        0.37079649541805
N           -3.16288021455272       -1.44656167587847        0.33914022008107
C           -3.16115378364215       -0.15971498926295       -0.13220066097380
C           -4.41320369722457        0.51032202371148       -0.68432634449169
C           -5.21951260166566        1.08949599952931        0.48695381785211
C           -3.99394042880512        1.64984968828348       -1.63159271416566
N           -5.23134302384085       -0.43860260474970       -1.41857658512747
N           -2.09877501223716        0.58470185259450       -0.09277949384462
C           -0.92380294166513        0.12060549402089        0.41754897669137
C            0.21359244487614        1.09053523550522        0.39680593949687
O            0.28873585555282        2.01845523304415       -0.38996667669358
N            1.16745560199716        0.86264174717717        1.33768415018268
C            2.37098470506387        1.65793325407027        1.35487349180407
C            3.58703329849038        0.86515787302059        1.04038982935791
C            4.85922429806828        1.40643276658647        1.35819278648721
C            5.99815882807134        0.72072554336371        1.08438520444099
C            5.94573093661715       -0.51992025332298        0.28041988290228
C            6.30823612628722       -0.10451277138740       -1.18114474802049
F            6.91010951907384       -1.41100335811858        0.66307520650841
C            4.61153941494988       -1.15479620667326        0.20704626919228
C            3.49410523547521       -0.43909622324423        0.49641386088302
C           -0.83799283230365       -1.17385741885741        0.83723896481924
O            0.29871642417954       -1.74197451134866        1.29459049798729
C           -1.99999790014315       -2.03987304662037        0.80005916154282
O           -1.94868739356101       -3.20699660696664        1.17657691499245
H           -4.17900878513690       -3.09798890328144        1.08839505698654
H           -5.22054804465685       -1.71544465280649        0.67449485977588
H           -4.53044460910859       -2.72139723044352       -0.61654783534250
H           -4.59763412964324        1.78054176492962        1.05463607892277
H           -6.08603541596601        1.62645421795087        0.10410089299291
H           -5.56397598659280        0.29965327108285        1.15196801474858
H           -4.88340146995075        2.10675775434673       -2.06098753293661
H           -3.42968851910964        2.40385811708552       -1.08476125221755
H           -3.37185973330093        1.25754022383227       -2.43435528826488
H           -4.79958422579782       -0.69042114783718       -2.29588062876454
H           -6.15172668654674       -0.06384917731707       -1.59243942899489
H            1.10615145095866        0.08828840623291        1.97585860303320
H            2.25418356834535        2.44371862817708        0.59182934902241
H            2.48863784037441        2.16348222526459        2.31939589689313
H            4.90492030864854        2.35768923367352        1.87577249384514
H            6.97520140284997        1.09520550215067        1.36466292913428
H            6.31650491192400       -1.00257308526833       -1.79431953494551
H            7.29985236727619        0.34187211425610       -1.16824851569194
H            5.58390154633644        0.60626764404468       -1.56801470315032
H            4.56154480782215       -2.17112793639491       -0.16448684227360
H            2.51190897604805       -0.88103222676744        0.36760121150723
H            0.10503416273703       -2.67032348309391        1.53027172839163

          :  Hamiltonian                  GFN1-xTB          :
         :: total energy             -79.474857040336 Eh    ::
         :: gradient norm              0.000610629694 Eh/a0 ::
         :: HOMO-LUMO gap              0.138117554085 eV    ::
         :: SCC energy               -80.356920113791 Eh    ::
         :: -> Gsolv                  -0.104900478788 Eh    ::
         :: repulsion energy           0.911997322539 Eh    ::

    * Orbital Energies and Occupations

         #    Occupation            Energy/Eh            Energy/eV
      -------------------------------------------------------------
         1        2.0000           -0.8938644             -24.3233
       ...           ...                  ...                  ...
        55        2.0000           -0.5190859             -14.1250
        56        2.0000           -0.5178125             -14.0904
        57        2.0000           -0.5124079             -13.9433
        58        2.0000           -0.5091444             -13.8545
        59        2.0000           -0.5039627             -13.7135
        60        2.0000           -0.4961682             -13.5014
        61        2.0000           -0.4824760             -13.1288
        62        2.0000           -0.4765676             -12.9681
        63        2.0000           -0.4654851             -12.6665
        64        2.0000           -0.4613809             -12.5548
        65        2.0000           -0.4478901             -12.1877
        66        1.9998           -0.4323978             -11.7661
        67        1.8707           -0.4262317             -11.5984 (HOMO)
        68        0.1295           -0.4211560             -11.4602 (LUMO)
        69                         -0.3250391              -8.8448
        70                         -0.3228011              -8.7839
        71                         -0.2854992              -7.7688
        72                         -0.2516845              -6.8487
        73                         -0.2453214              -6.6755
        74                         -0.1649788              -4.4893
        75                         -0.1575123              -4.2861
        76                         -0.1545777              -4.2063
        77                         -0.1412452              -3.8435
        78                         -0.1377369              -3.7480
       ...                                ...                  ...
       144                          0.7056935              19.2029
      -------------------------------------------------------------
                  HL-Gap            0.0050757 Eh            0.1381 eV

Wiberg/Mayer (AO) data.
largest (>0.10) Wiberg bond orders for each atom

     #   Z sym  total        # sym  WBO       # sym  WBO       # sym  WBO
 ---------------------------------------------------------------------------
     1   6 C    3.915 --    27 H    0.978    26 H    0.974    28 H    0.974
                             2 N    0.925
     2   7 N    3.516 --     3 C    1.183    24 C    1.129     1 C    0.925
                            25 O    0.132
     3   6 C    3.918 --     8 N    1.552     2 N    1.183     4 C    0.975
     4   6 C    3.951 --     7 N    0.985     5 C    0.980     6 C    0.976
                             3 C    0.975
     5   6 C    3.991 --    29 H    0.985    30 H    0.982     4 C    0.980
                            31 H    0.980
     6   6 C    3.971 --    32 H    0.985    34 H    0.985    33 H    0.980
                             4 C    0.976
     7   7 N    2.934 --     4 C    0.985    35 H    0.929    36 H    0.926
     8   7 N    3.024 --     3 C    1.552     9 C    1.204
     9   6 C    3.963 --    22 C    1.504     8 N    1.204    10 C    0.990
    10   6 C    3.896 --    11 O    1.608    12 N    1.217     9 C    0.990
    11   8 O    1.905 --    10 C    1.608    12 N    0.160
    12   7 N    3.322 --    10 C    1.217    13 C    0.969    37 H    0.885
                            11 O    0.160
    13   6 C    3.954 --    14 C    1.059    12 N    0.969    39 H    0.936
                            38 H    0.902
    14   6 C    3.853 --    21 C    1.280    15 C    1.272    13 C    1.059
    15   6 C    3.987 --    16 C    1.648    14 C    1.272    40 H    0.961
    16   6 C    3.893 --    15 C    1.648    17 C    1.037    41 H    0.961
    17   6 C    3.883 --    20 C    1.038    16 C    1.037    19 F    0.898
                            18 C    0.858
    18   6 C    3.940 --    44 H    0.983    42 H    0.975    43 H    0.975
                            17 C    0.858
    19   9 F    1.006 --    17 C    0.898
    20   6 C    3.888 --    21 C    1.638    17 C    1.038    45 H    0.961
    21   6 C    3.985 --    20 C    1.638    14 C    1.280    46 H    0.955
    22   6 C    3.909 --     9 C    1.504    24 C    1.089    23 O    1.069
    23   8 O    2.062 --    22 C    1.069    47 H    0.797
    24   6 C    3.916 --    25 O    1.549     2 N    1.129    22 C    1.089
    25   8 O    1.894 --    24 C    1.549     2 N    0.132
    26   1 H    1.005 --     1 C    0.974
    27   1 H    1.017 --     1 C    0.978
    28   1 H    1.012 --     1 C    0.974
    29   1 H    1.003 --     5 C    0.985
    30   1 H    0.998 --     5 C    0.982
    31   1 H    1.002 --     5 C    0.980
    32   1 H    1.002 --     6 C    0.985
    33   1 H    1.011 --     6 C    0.980
    34   1 H    1.005 --     6 C    0.985
    35   1 H    0.946 --     7 N    0.929
    36   1 H    0.942 --     7 N    0.926
    37   1 H    0.934 --    12 N    0.885
    38   1 H    0.993 --    13 C    0.902
    39   1 H    0.988 --    13 C    0.936
    40   1 H    0.989 --    15 C    0.961
    41   1 H    0.988 --    16 C    0.961
    42   1 H    0.993 --    18 C    0.975
    43   1 H    0.993 --    18 C    0.975
    44   1 H    0.995 --    18 C    0.983
    45   1 H    0.989 --    20 C    0.961
    46   1 H    1.006 --    21 C    0.955
    47   1 H    0.839 --    23 O    0.797
 ---------------------------------------------------------------------------

           -------------------------------------------------
          | TOTAL ENERGY              -79.474857040336 Eh   |
          | GRADIENT NORM               0.000610629694 Eh/α |
          | HOMO-LUMO GAP               0.138117554085 eV   |
           -------------------------------------------------

 * finished run on 2023/06/20 at 15:31:38.654
