                         Program Version 5.0.1 -  RELEASE  -
|  1> # ORCA input file
|  2> ! SP r2SCAN-3c CPCM
|  3>
|  4> %maxcore 1875.0
|  5> %pal nprocs 4 end
|  6> %cpcm smd true SMDsolvent "DMSO" end
|  7>
|  8> *xyz 1 1
|  9> C      -4.604902   -1.458709    2.753903
| 10> O      -3.554694   -0.835224    1.996019
| 11> C      -3.650157   -0.895031    0.686546
| 12> O      -4.545218   -1.430141    0.078129
| 13> C      -2.496211   -0.211377   -0.015304
| 14> N      -1.400427   -0.105164    0.613790
| 15> C      -0.254573    0.523624    0.023029
| 16> C       0.600158    1.160412    1.179776
| 17> C       0.599118    2.683239    1.251135
| 18> C       0.210804    0.563163    2.536714
| 19> N       1.925930    0.625814    0.840172
| 20> C       1.833997   -0.345003   -0.030244
| 21> O       0.622743   -0.532382   -0.486653
| 22> C       2.937076   -1.127000   -0.483481
| 23> N       2.960687   -2.106358   -1.349259
| 24> N       4.234080   -2.506385   -1.444559
| 25> C       4.940159   -1.756078   -0.634640
| 26> C       6.392744   -1.802358   -0.393700
| 27> O       4.170472   -0.869544    0.000375
| 28> N      -0.564002    1.390654   -1.081826
| 29> C       0.525443    2.124278   -1.749688
| 30> C      -1.700781    1.283412   -1.849447
| 31> O      -1.863382    1.989944   -2.817136
| 32> C      -2.684244    0.177560   -1.458843
| 33> C      -2.311942   -1.055859   -2.317777
| 34> O      -3.978365    0.619088   -1.742338
| 35> H      -5.569275   -1.039155    2.461140
| 36> H      -4.394297   -1.248006    3.799579
| 37> H      -4.600992   -2.534286    2.568506
| 38> H       1.247236    3.122105    0.498479
| 39> H       0.955672    3.000122    2.229824
| 40> H      -0.416868    3.049946    1.111289
| 41> H       0.199745   -0.523628    2.483650
| 42> H      -0.778758    0.917553    2.819516
| 43> H       0.932904    0.877682    3.286844
| 44> H       2.777340    0.886920    1.309211
| 45> H       6.848612   -2.570123   -1.014396
| 46> H       6.831229   -0.830403   -0.621678
| 47> H       6.584752   -2.012613    0.658928
| 48> H       1.474919    1.871861   -1.294205
| 49> H       0.540636    1.837594   -2.802432
| 50> H       0.342600    3.195425   -1.674253
| 51> H      -2.997024   -1.869421   -2.088315
| 52> H      -2.406611   -0.786572   -3.368337
| 53> H      -1.291472   -1.366856   -2.107217
| 54> H      -4.624859   -0.082721   -1.565105
| 55> **                         ****END OF INPUT****

CARTESIAN COORDINATES (ANGSTROEM)
---------------------------------
  C     -4.604902   -1.458709    2.753903
  O     -3.554694   -0.835224    1.996019
  C     -3.650157   -0.895031    0.686546
  O     -4.545218   -1.430141    0.078129
  C     -2.496211   -0.211377   -0.015304
  N     -1.400427   -0.105164    0.613790
  C     -0.254573    0.523624    0.023029
  C      0.600158    1.160412    1.179776
  C      0.599118    2.683239    1.251135
  C      0.210804    0.563163    2.536714
  N      1.925930    0.625814    0.840172
  C      1.833997   -0.345003   -0.030244
  O      0.622743   -0.532382   -0.486653
  C      2.937076   -1.127000   -0.483481
  N      2.960687   -2.106358   -1.349259
  N      4.234080   -2.506385   -1.444559
  C      4.940159   -1.756078   -0.634640
  C      6.392744   -1.802358   -0.393700
  O      4.170472   -0.869544    0.000375
  N     -0.564002    1.390654   -1.081826
  C      0.525443    2.124278   -1.749688
  C     -1.700781    1.283412   -1.849447
  O     -1.863382    1.989944   -2.817136
  C     -2.684244    0.177560   -1.458843
  C     -2.311942   -1.055859   -2.317777
  O     -3.978365    0.619088   -1.742338
  H     -5.569275   -1.039155    2.461140
  H     -4.394297   -1.248006    3.799579
  H     -4.600992   -2.534286    2.568506
  H      1.247236    3.122105    0.498479
  H      0.955672    3.000122    2.229824
  H     -0.416868    3.049946    1.111289
  H      0.199745   -0.523628    2.483650
  H     -0.778758    0.917553    2.819516
  H      0.932904    0.877682    3.286844
  H      2.777340    0.886920    1.309211
  H      6.848612   -2.570123   -1.014396
  H      6.831229   -0.830403   -0.621678
  H      6.584752   -2.012613    0.658928
  H      1.474919    1.871861   -1.294205
  H      0.540636    1.837594   -2.802432
  H      0.342600    3.195425   -1.674253
  H     -2.997024   -1.869421   -2.088315
  H     -2.406611   -0.786572   -3.368337
  H     -1.291472   -1.366856   -2.107217
  H     -4.624859   -0.082721   -1.565105

 Total Charge           Charge          ....    1
 Multiplicity           Mult            ....    1
 Number of Electrons    NEL             ....  192
 Basis Dimension        Dim             ....  649

ORBITAL ENERGIES
----------------

  NO   OCC          E(Eh)            E(eV)
   0   2.0000     -19.094094      -519.5767
   1   2.0000     -19.072619      -518.9924
   2   2.0000     -19.024061      -517.6710
   3   2.0000     -18.968708      -516.1648
   4   2.0000     -18.967428      -516.1300
   5   2.0000     -18.945837      -515.5424
   6   2.0000     -14.267792      -388.2464
   7   2.0000     -14.240557      -387.5053
   8   2.0000     -14.228703      -387.1827
   9   2.0000     -14.222011      -387.0006
  10   2.0000     -14.200250      -386.4084
  11   2.0000     -10.230521      -278.3866
  12   2.0000     -10.215692      -277.9831
  13   2.0000     -10.188084      -277.2319
  14   2.0000     -10.181766      -277.0599
  15   2.0000     -10.174849      -276.8717
  16   2.0000     -10.156633      -276.3760
  17   2.0000     -10.133790      -275.7544
  18   2.0000     -10.133081      -275.7351
  19   2.0000     -10.132021      -275.7063
  20   2.0000     -10.086910      -274.4788
  21   2.0000     -10.069992      -274.0184
  22   2.0000     -10.055523      -273.6247
  23   2.0000     -10.040189      -273.2074
  24   2.0000     -10.038133      -273.1515
  25   2.0000     -10.035236      -273.0727
  26   2.0000      -1.186641       -32.2901
  27   2.0000      -1.156457       -31.4688
  28   2.0000      -1.103794       -30.0358
  29   2.0000      -1.044793       -28.4303
  30   2.0000      -1.018852       -27.7244
  31   2.0000      -1.009857       -27.4796
  32   2.0000      -1.006338       -27.3838
  33   2.0000      -0.984797       -26.7977
  34   2.0000      -0.969757       -26.3884
  35   2.0000      -0.910419       -24.7738
  36   2.0000      -0.866951       -23.5909
  37   2.0000      -0.816384       -22.2149
  38   2.0000      -0.765726       -20.8365
  39   2.0000      -0.746890       -20.3239
  40   2.0000      -0.738327       -20.0909
  41   2.0000      -0.715081       -19.4583
  42   2.0000      -0.702938       -19.1279
  43   2.0000      -0.688517       -18.7355
  44   2.0000      -0.678840       -18.4722
  45   2.0000      -0.656613       -17.8674
  46   2.0000      -0.650144       -17.6913
  47   2.0000      -0.626816       -17.0565
  48   2.0000      -0.622753       -16.9460
  49   2.0000      -0.613403       -16.6916
  50   2.0000      -0.590934       -16.0801
  51   2.0000      -0.572191       -15.5701
  52   2.0000      -0.552098       -15.0234
  53   2.0000      -0.541793       -14.7430
  54   2.0000      -0.525032       -14.2868
  55   2.0000      -0.517731       -14.0882
  56   2.0000      -0.501036       -13.6339
  57   2.0000      -0.483690       -13.1619
  58   2.0000      -0.481643       -13.1062
  59   2.0000      -0.475572       -12.9410
  60   2.0000      -0.473391       -12.8816
  61   2.0000      -0.463862       -12.6223
  62   2.0000      -0.459829       -12.5126
  63   2.0000      -0.453628       -12.3439
  64   2.0000      -0.440150       -11.9771
  65   2.0000      -0.426258       -11.5991
  66   2.0000      -0.424999       -11.5648
  67   2.0000      -0.422271       -11.4906
  68   2.0000      -0.416260       -11.3270
  69   2.0000      -0.408701       -11.1213
  70   2.0000      -0.401780       -10.9330
  71   2.0000      -0.401261       -10.9189
  72   2.0000      -0.397785       -10.8243
  73   2.0000      -0.392500       -10.6805
  74   2.0000      -0.391174       -10.6444
  75   2.0000      -0.375373       -10.2144
  76   2.0000      -0.372588       -10.1386
  77   2.0000      -0.371242       -10.1020
  78   2.0000      -0.369735       -10.0610
  79   2.0000      -0.364285        -9.9127
  80   2.0000      -0.358978        -9.7683
  81   2.0000      -0.351753        -9.5717
  82   2.0000      -0.344895        -9.3851
  83   2.0000      -0.342126        -9.3097
  84   2.0000      -0.341882        -9.3031
  85   2.0000      -0.337128        -9.1737
  86   2.0000      -0.324741        -8.8366
  87   2.0000      -0.315501        -8.5852
  88   2.0000      -0.299356        -8.1459
  89   2.0000      -0.293865        -7.9965
  90   2.0000      -0.284950        -7.7539
  91   2.0000      -0.283791        -7.7224
  92   2.0000      -0.277542        -7.5523
  93   2.0000      -0.261334        -7.1113
  94   2.0000      -0.247899        -6.7457
  95   2.0000      -0.243398        -6.6232
  96   0.0000      -0.145711        -3.9650
  97   0.0000      -0.121618        -3.3094
  98   0.0000      -0.045147        -1.2285
  99   0.0000      -0.041354        -1.1253
 100   0.0000       0.002949         0.0802

MULLIKEN ATOMIC CHARGES
-----------------------
   0 C :   -0.306800
   1 O :   -0.161002
   2 C :    0.215820
   3 O :   -0.431282
   4 C :    0.291486
   5 N :   -0.004089
   6 C :   -0.651674
   7 C :    0.129768
   8 C :   -0.486675
   9 C :   -0.533250
  10 N :    0.004464
  11 C :    0.225245
  12 O :    0.026836
  13 C :   -0.098244
  14 N :   -0.087097
  15 N :   -0.251350
  16 C :    0.444529
  17 C :   -0.619563
  18 O :   -0.024137
  19 N :    0.415737
  20 C :   -0.424342
  21 C :    0.053463
  22 O :   -0.385722
  23 C :    0.321786
  24 C :   -0.529302
  25 O :   -0.434130
  26 H :    0.184482
  27 H :    0.184931
  28 H :    0.185575
  29 H :    0.197015
  30 H :    0.195162
  31 H :    0.220518
  32 H :    0.198990
  33 H :    0.201646
  34 H :    0.187216
  35 H :    0.360386
  36 H :    0.213150
  37 H :    0.211627
  38 H :    0.212646
  39 H :    0.196661
  40 H :    0.193992
  41 H :    0.212995
  42 H :    0.196800
  43 H :    0.203468
  44 H :    0.202454
  45 H :    0.339809
Sum of atomic charges:    1.0000000

LOEWDIN ATOMIC CHARGES
----------------------
   0 C :   -0.025539
   1 O :   -0.540459
   2 C :    0.401748
   3 O :   -0.415140
   4 C :    0.306311
   5 N :   -0.486818
   6 C :    0.473084
   7 C :    0.136429
   8 C :   -0.333487
   9 C :   -0.311780
  10 N :   -0.457571
  11 C :    0.484836
  12 O :   -0.381040
  13 C :    0.412702
  14 N :   -0.287368
  15 N :   -0.318406
  16 C :    0.412383
  17 C :   -0.307046
  18 O :   -0.355473
  19 N :   -0.668469
  20 C :   -0.077646
  21 C :    0.394529
  22 O :   -0.405603
  23 C :    0.164643
  24 C :   -0.318049
  25 O :   -0.531099
  26 H :    0.188339
  27 H :    0.191333
  28 H :    0.187704
  29 H :    0.182369
  30 H :    0.181040
  31 H :    0.189719
  32 H :    0.184199
  33 H :    0.188123
  34 H :    0.175276
  35 H :    0.322689
  36 H :    0.196729
  37 H :    0.200183
  38 H :    0.200425
  39 H :    0.200677
  40 H :    0.203526
  41 H :    0.196286
  42 H :    0.182932
  43 H :    0.184738
  44 H :    0.181193
  45 H :    0.296846

  Mayer bond orders larger than 0.100000
B(  0-C ,  1-O ) :   0.8197 B(  0-C , 26-H ) :   0.9514 B(  0-C , 27-H ) :   0.9584
B(  0-C , 28-H ) :   0.9507 B(  1-O ,  2-C ) :   1.1785 B(  2-C ,  3-O ) :   1.7728
B(  2-C ,  4-C ) :   0.9785 B(  4-C ,  5-N ) :   1.6289 B(  4-C , 23-C ) :   0.8885
B(  5-N ,  6-C ) :   0.9706 B(  5-N ,  7-C ) :  -0.1107 B(  6-C ,  7-C ) :   0.8898
B(  6-C , 11-C ) :   0.1963 B(  6-C , 12-O ) :   0.8009 B(  6-C , 19-N ) :   1.0482
B(  6-C , 20-C ) :   0.1244 B(  6-C , 23-C ) :   0.1107 B(  7-C ,  8-C ) :   0.8433
B(  7-C ,  9-C ) :   0.9098 B(  7-C , 10-N ) :   0.7490 B(  7-C , 11-C ) :   0.1328
B(  8-C , 29-H ) :   0.9334 B(  8-C , 30-H ) :   0.9445 B(  8-C , 31-H ) :   0.9669
B(  9-C , 32-H ) :   0.9494 B(  9-C , 33-H ) :   0.9480 B(  9-C , 34-H ) :   0.9509
B( 10-N , 11-C ) :   1.4117 B( 10-N , 35-H ) :   0.8691 B( 11-C , 12-O ) :   1.0514
B( 11-C , 13-C ) :   1.3306 B( 11-C , 15-N ) :   0.1745 B( 12-O , 13-C ) :   0.1152
B( 13-C , 14-N ) :   1.6425 B( 13-C , 16-C ) :   0.1497 B( 13-C , 18-O ) :   1.0761
B( 14-N , 15-N ) :   1.2500 B( 15-N , 16-C ) :   1.4760 B( 16-C , 17-C ) :   0.8247
B( 16-C , 18-O ) :   1.0753 B( 17-C , 36-H ) :   0.9834 B( 17-C , 37-H ) :   0.9358
B( 17-C , 38-H ) :   0.9348 B( 19-N , 20-C ) :   0.7633 B( 19-N , 21-C ) :   1.1093
B( 20-C , 39-H ) :   0.9236 B( 20-C , 40-H ) :   0.9295 B( 20-C , 41-H ) :   0.9491
B( 21-C , 22-O ) :   1.9815 B( 21-C , 23-C ) :   0.8335 B( 23-C , 24-C ) :   0.9970
B( 23-C , 25-O ) :   0.9272 B( 24-C , 42-H ) :   0.9215 B( 24-C , 43-H ) :   0.9489
B( 24-C , 44-H ) :   0.9421 B( 25-O , 45-H ) :   0.8441

Dispersion correction           -0.021685075
FINAL SINGLE POINT ENERGY     -1308.339413258583

DIPOLE MOMENT
-------------
                                X             Y             Z
Electronic contribution:      1.63786      -5.42708      -6.24676
Nuclear contribution   :      3.54003       6.32827      10.38139
                        -----------------------------------------
Total Dipole Moment    :      5.17789       0.90119       4.13464
                        -----------------------------------------
Magnitude (a.u.)       :      6.68714
Magnitude (Debye)      :     16.99736

Rotational constants in cm-1:     0.011671     0.004081     0.003878
Rotational constants in MHz :   349.895405   122.356651   116.258277

                             ****ORCA TERMINATED NORMALLY****
TOTAL RUN TIME: 0 days 0 hours 1 minutes 53 seconds 533 msec
