   * xtb version 6.5.1 (579679a) compiled by 'ehlert@majestix' on 2022-07-11
          program call               : /lustre/hpc/kemi/ree/PhD/git/ReactivityQM/dep/xtb-6.5.1/bin/xtb --gfn 1 /lustre/hpc/kemi/ree/PhD/git/ReactivityQM/calculations/R03/reac02prodN15/conf05/R03_reac02prodN15_conf05_gfn1.xyz --opt --vfukui --chrg 1 --uhf 0 --alpb DMSO

   ID    Z sym.   atoms
    1    6 C      1, 3, 5, 7-10, 12, 14, 17, 18, 21, 22, 24, 25
    2    8 O      2, 4, 13, 19, 23, 26
    3    7 N      6, 11, 15, 16, 20
    4    1 H      27-46

      * Solvation model:               ALPB
        Solvent                        DMSO
        Solvent mass                       7.8130E+01 g/mol
          :  Hamiltonian                  GFN1-xTB          :
 * total energy  :   -86.2838622 Eh     change       -0.1304414E-09 Eh
 * total energy  :   -86.2990643 Eh     change       -0.1520209E-01 Eh
 * total energy  :   -86.3067303 Eh     change       -0.7666032E-02 Eh
 * total energy  :   -86.3087001 Eh     change       -0.1969835E-02 Eh
 * total energy  :   -86.3103550 Eh     change       -0.1654822E-02 Eh
 * total energy  :   -86.3114696 Eh     change       -0.1114663E-02 Eh
 * total energy  :   -86.3125557 Eh     change       -0.1086085E-02 Eh
 * total energy  :   -86.3134822 Eh     change       -0.9265130E-03 Eh
 * total energy  :   -86.3141147 Eh     change       -0.6324802E-03 Eh
 * total energy  :   -86.3145093 Eh     change       -0.3946450E-03 Eh
 * total energy  :   -86.3452857 Eh     change       -0.2078775E-04 Eh
 * total energy  :   -86.3453016 Eh     change       -0.1593999E-04 Eh
 * total energy  :   -86.3453126 Eh     change       -0.1096286E-04 Eh
 * total energy  :   -86.3453214 Eh     change       -0.8874151E-05 Eh
 * total energy  :   -86.3453266 Eh     change       -0.5148670E-05 Eh
 * total energy  :   -86.3453377 Eh     change       -0.1114436E-04 Eh
 * total energy  :   -86.3453471 Eh     change       -0.9364291E-05 Eh
 * total energy  :   -86.3453523 Eh     change       -0.5213640E-05 Eh
 * total energy  :   -86.3453556 Eh     change       -0.3309092E-05 Eh
   *** GEOMETRY OPTIMIZATION CONVERGED AFTER 72 ITERATIONS ***

 final structure:
================
46
 xtb: 6.5.1 (579679a)
C           -4.60490185672996       -1.45870883196949        2.75390310729572
O           -3.55469365890920       -0.83522364941489        1.99601943548097
C           -3.65015679344064       -0.89503051998659        0.68654620321777
O           -4.54521791779476       -1.43014055190190        0.07812870837580
C           -2.49621096424616       -0.21137744882161       -0.01530439705117
N           -1.40042688867220       -0.10516436611538        0.61379046913941
C           -0.25457301739694        0.52362388603934        0.02302873587894
C            0.60015780870546        1.16041234661214        1.17977586602199
C            0.59911799251050        2.68323907827686        1.25113459381894
C            0.21080373113457        0.56316287166579        2.53671422625324
N            1.92593031242719        0.62581353458241        0.84017234595156
C            1.83399687232896       -0.34500348961325       -0.03024381043583
O            0.62274287600172       -0.53238181430990       -0.48665289820309
C            2.93707597330766       -1.12700016324190       -0.48348138791283
N            2.96068693315759       -2.10635776764893       -1.34925933393525
N            4.23407958111783       -2.50638523388916       -1.44455855394105
C            4.94015881891569       -1.75607841412354       -0.63463966215917
C            6.39274429504075       -1.80235830960617       -0.39370042138659
O            4.17047213055570       -0.86954367045405        0.00037499719355
N           -0.56400198896186        1.39065407311266       -1.08182608920026
C            0.52544326066083        2.12427806891685       -1.74968771835085
C           -1.70078131109686        1.28341175812149       -1.84944740753356
O           -1.86338175906803        1.98994353164730       -2.81713609771584
C           -2.68424408307300        0.17755988073553       -1.45884291966128
C           -2.31194241250139       -1.05585918889299       -2.31777687741171
O           -3.97836537698603        0.61908808593025       -1.74233775749067
H           -5.56927457312853       -1.03915470625346        2.46113965160656
H           -4.39429690822018       -1.24800622221503        3.79957871872644
H           -4.60099209534459       -2.53428598301838        2.56850614856802
H            1.24723628022769        3.12210481521479        0.49847944008829
H            0.95567242817492        3.00012167106808        2.22982395971104
H           -0.41686807688363        3.04994649932298        1.11128886853348
H            0.19974486739846       -0.52362801501317        2.48365033864809
H           -0.77875769997630        0.91755301734488        2.81951591545382
H            0.93290446079401        0.87768232744883        3.28684361475144
H            2.77733966162715        0.88692032749182        1.30921050007469
H            6.84861185637717       -2.57012255198018       -1.01439570199309
H            6.83122947724885       -0.83040282426953       -0.62167844184045
H            6.58475155226110       -2.01261284831991        0.65892825167327
H            1.47491863558486        1.87186146071544       -1.29420508161923
H            0.54063595791865        1.83759432241807       -2.80243179300057
H            0.34259981505331        3.19542524081528       -1.67425349627583
H           -2.99702449454639       -1.86942093370590       -2.08831459974796
H           -2.40661122484504       -0.78657222198246       -3.36833736532181
H           -1.29147230716283       -1.36685643376712       -2.10721679972031
H           -4.62485916956679       -0.08272063699551       -1.56510548459155

          :  Hamiltonian                  GFN1-xTB          :
         :: total energy             -86.345355617389 Eh    ::
         :: gradient norm              0.000380490390 Eh/a0 ::
         :: HOMO-LUMO gap              2.023302786690 eV    ::
         :: SCC energy               -87.148345919955 Eh    ::
         :: -> Gsolv                  -0.112998424027 Eh    ::
         :: repulsion energy           0.833475145074 Eh    ::

    * Orbital Energies and Occupations

         #    Occupation            Energy/Eh            Energy/eV
      -------------------------------------------------------------
         1        2.0000           -0.9142730             -24.8786
       ...           ...                  ...                  ...
        58        2.0000           -0.5353938             -14.5688
        59        2.0000           -0.5304119             -14.4332
        60        2.0000           -0.5252590             -14.2930
        61        2.0000           -0.5224399             -14.2163
        62        2.0000           -0.5201866             -14.1550
        63        2.0000           -0.5148035             -14.0085
        64        2.0000           -0.5125139             -13.9462
        65        2.0000           -0.5046606             -13.7325
        66        2.0000           -0.4915148             -13.3748
        67        2.0000           -0.4912137             -13.3666
        68        2.0000           -0.4759612             -12.9516
        69        2.0000           -0.4719033             -12.8411
        70        2.0000           -0.4601874             -12.5223 (HOMO)
        71                         -0.3858324             -10.4990 (LUMO)
        72                         -0.3596236              -9.7859
        73                         -0.2933840              -7.9834
        74                         -0.2850834              -7.7575
        75                         -0.2587961              -7.0422
        76                         -0.2531228              -6.8878
        77                         -0.1592334              -4.3330
        78                         -0.1566200              -4.2618
        79                         -0.1519814              -4.1356
        80                         -0.1482136              -4.0331
        81                         -0.1441355              -3.9221
       ...                                ...                  ...
       144                          0.7207298              19.6121
      -------------------------------------------------------------
                  HL-Gap            0.0743550 Eh            2.0233 eV

Wiberg/Mayer (AO) data.
largest (>0.10) Wiberg bond orders for each atom

     #   Z sym  total        # sym  WBO       # sym  WBO       # sym  WBO
 ---------------------------------------------------------------------------
     1   6 C    3.850 --    28 H    0.985    29 H    0.978    27 H    0.978
                             2 O    0.876
     2   8 O    2.237 --     3 C    1.166     1 C    0.876     4 O    0.147
     3   6 C    3.852 --     4 O    1.668     2 O    1.166     5 C    0.946
     4   8 O    1.964 --     3 C    1.668     2 O    0.147
     5   6 C    3.933 --     6 N    1.825    24 C    0.972     3 C    0.946
     6   7 N    3.048 --     5 C    1.825     7 C    0.990
     7   6 C    3.855 --     6 N    0.990    20 N    0.970     8 C    0.930
                            13 O    0.836
     8   6 C    3.899 --     9 C    0.997    10 C    0.985     7 C    0.930
                            11 N    0.907
     9   6 C    3.979 --     8 C    0.997    32 H    0.980    30 H    0.978
                            31 H    0.978
    10   6 C    3.976 --     8 C    0.985    33 H    0.982    35 H    0.980
                            34 H    0.978
    11   7 N    3.473 --    12 C    1.447     8 C    0.907    36 H    0.857
                            13 O    0.106
    12   6 C    3.887 --    11 N    1.447    13 O    1.168    14 C    1.114
    13   8 O    2.240 --    12 C    1.168     7 C    0.836    11 N    0.106
    14   6 C    3.886 --    15 N    1.523    12 C    1.114    19 O    1.043
    15   7 N    3.015 --    14 C    1.523    16 N    1.283
    16   7 N    2.990 --    17 C    1.520    15 N    1.283
    17   6 C    3.846 --    16 N    1.520    19 O    1.101    18 C    1.043
    18   6 C    3.977 --    17 C    1.043    37 H    0.979    38 H    0.952
                            39 H    0.951
    19   8 O    2.335 --    17 C    1.101    14 C    1.043
    20   7 N    3.312 --    22 C    1.170     7 C    0.970    21 C    0.918
                            23 O    0.148
    21   6 C    3.923 --    40 H    0.986    42 H    0.981    41 H    0.977
                            20 N    0.918
    22   6 C    3.886 --    23 O    1.676    20 N    1.170    24 C    0.928
    23   8 O    1.951 --    22 C    1.676    20 N    0.148
    24   6 C    3.934 --    26 O    0.985     5 C    0.972    22 C    0.928
                            25 C    0.927
    25   6 C    3.983 --    45 H    0.985    43 H    0.980    44 H    0.978
                            24 C    0.927
    26   8 O    1.907 --    24 C    0.985    46 H    0.830
    27   1 H    1.003 --     1 C    0.978
    28   1 H    1.007 --     1 C    0.985
    29   1 H    1.003 --     1 C    0.978
    30   1 H    0.998 --     9 C    0.978
    31   1 H    0.995 --     9 C    0.978
    32   1 H    0.995 --     9 C    0.980
    33   1 H    1.005 --    10 C    0.982
    34   1 H    1.004 --    10 C    0.978
    35   1 H    0.996 --    10 C    0.980
    36   1 H    0.892 --    11 N    0.857
    37   1 H    0.994 --    18 C    0.979
    38   1 H    0.990 --    18 C    0.952
    39   1 H    0.990 --    18 C    0.951
    40   1 H    0.999 --    21 C    0.986
    41   1 H    1.002 --    21 C    0.977
    42   1 H    1.004 --    21 C    0.981
    43   1 H    1.003 --    25 C    0.980
    44   1 H    1.000 --    25 C    0.978
    45   1 H    1.003 --    25 C    0.985
    46   1 H    0.866 --    26 O    0.830
 ---------------------------------------------------------------------------

           -------------------------------------------------
          | TOTAL ENERGY              -86.345355617389 Eh   |
          | GRADIENT NORM               0.000380490390 Eh/α |
          | HOMO-LUMO GAP               2.023302786690 eV   |
           -------------------------------------------------

 * finished run on 2023/06/20 at 15:52:04.755
