   * xtb version 6.5.1 (579679a) compiled by 'ehlert@majestix' on 2022-07-11
          program call               : /lustre/hpc/kemi/ree/PhD/git/ReactivityQM/dep/xtb-6.5.1/bin/xtb --gfn 1 /lustre/hpc/kemi/ree/PhD/git/ReactivityQM/calculations/R02/reac01prodN11/conf14/R02_reac01prodN11_conf14_gfn1.xyz --opt --vfukui --chrg 1 --uhf 0 --alpb DMSO

   ID    Z sym.   atoms
    1    6 C      1, 3, 5, 7-10, 12, 13, 15, 18, 19, 22, 24
    2    8 O      2, 4, 14, 20, 23, 25
    3    7 N      6, 11, 16, 17, 21
    4    1 H      26-43

      * Solvation model:               ALPB
        Solvent                        DMSO
        Solvent mass                       7.8130E+01 g/mol
          :  Hamiltonian                  GFN1-xTB          :
 * total energy  :   -83.0156542 Eh     change       -0.2994227E-10 Eh
 * total energy  :   -83.0323469 Eh     change       -0.1669274E-01 Eh
 * total energy  :   -83.0410854 Eh     change       -0.8738466E-02 Eh
 * total energy  :   -83.0437067 Eh     change       -0.2621320E-02 Eh
 * total energy  :   -83.0461779 Eh     change       -0.2471142E-02 Eh
 * total energy  :   -83.0476657 Eh     change       -0.1487815E-02 Eh
 * total energy  :   -83.0485704 Eh     change       -0.9047665E-03 Eh
 * total energy  :   -83.0489574 Eh     change       -0.3870027E-03 Eh
 * total energy  :   -83.0492471 Eh     change       -0.2896698E-03 Eh
 * total energy  :   -83.0494186 Eh     change       -0.1714915E-03 Eh
 * total energy  :   -83.1364937 Eh     change       -0.9562080E-05 Eh
 * total energy  :   -83.1364948 Eh     change       -0.1111991E-05 Eh
 * total energy  :   -83.1365074 Eh     change       -0.1256644E-04 Eh
 * total energy  :   -83.1365149 Eh     change       -0.7579701E-05 Eh
 * total energy  :   -83.1365237 Eh     change       -0.8740075E-05 Eh
 * total energy  :   -83.1365326 Eh     change       -0.8877604E-05 Eh
 * total energy  :   -83.1365420 Eh     change       -0.9479458E-05 Eh
 * total energy  :   -83.1365480 Eh     change       -0.5907629E-05 Eh
 * total energy  :   -83.1365509 Eh     change       -0.2926711E-05 Eh
   *** GEOMETRY OPTIMIZATION CONVERGED AFTER 94 ITERATIONS ***

 final structure:
================
43
 xtb: 6.5.1 (579679a)
C            5.74460972440222        1.01216611212883       -2.03996893077108
O            4.57566833858627        0.68271171747608       -1.27800637286645
C            4.56919326603147        1.05948536542460       -0.00989396162641
O            5.49116127880870        1.65716062716414        0.51671336730377
C            3.33551648273758        0.68823020480027        0.72345356014881
N            2.36498485723432        0.01433436258369        0.02285916110517
C            1.28240111044540       -0.32330660823871        0.62955463341155
C            0.22107566622014       -1.10811858032027       -0.10813288820484
C            0.17710567725111       -2.53844301079211        0.44005602088414
C            0.48849681410493       -1.08249368144026       -1.61235952093721
N           -1.07470679140500       -0.43437917492718        0.17256200062544
C           -2.21774025315471       -0.91193427505119       -0.28439746333678
C           -3.67203156149968       -0.32206050421030        1.70962046317807
O           -2.44788411895756       -1.87868600976702       -0.94714883443576
C           -3.45588829073674        0.00553116048138        0.23730536176673
N           -3.10306543081122        1.32237868205404       -0.09446530724628
N           -3.87113689554747        1.75760731957510       -1.00530783838829
C           -4.79123637911451        0.77832294528587       -1.27272580947647
C           -5.84752432969568        0.86128527475770       -2.27569415331156
O           -4.58790838474494       -0.25815106183729       -0.54350620221568
N            1.06128556485461       -0.04154396224295        1.94757645841853
C            1.95455979965933        0.64045128273676        2.76144672393587
O            1.69096038355947        0.86884194263530        3.92475947143829
C            3.18417981612966        1.01638030286219        2.04975367411759
O            4.09374661382719        1.67098153347114        2.76333620125172
H            5.89816363602494        2.09345138473125       -2.03598979407593
H            5.56389066551785        0.65624936296906       -3.05186991993554
H            6.61916866820876        0.51825498315093       -1.61089111548517
H            1.16156750971505       -2.99197414315407        0.33446547744473
H           -0.54792193368371       -3.13265044868408       -0.11240440877458
H           -0.09994736643837       -2.52675466614022        1.49223232992818
H            1.47213369505102       -1.50800513695842       -1.80538611637539
H            0.47033953214721       -0.05633776742626       -1.97536155089650
H           -0.26379516029340       -1.66591323883189       -2.13900407230964
H           -1.05903238368527        0.45623354007490        0.64206073032124
H           -4.50422443705602        0.27345135194066        2.08090612207351
H           -3.90414704080619       -1.38038688474005        1.81037531589506
H           -2.76953408365174       -0.08634748310800        2.26675608773926
H           -5.39399731111212        0.73748634616913       -3.26401117666700
H           -6.58687605407286        0.07760991824439       -2.12463054554193
H           -6.30548183724290        1.85042778702109       -2.25479197924907
H            0.20293995378682       -0.33457122308060        2.38602059993250
H            4.88092498938749        1.88302135320533        2.20594820119460

          :  Hamiltonian                  GFN1-xTB          :
         :: total energy             -83.136550879393 Eh    ::
         :: gradient norm              0.000601798657 Eh/a0 ::
         :: HOMO-LUMO gap              0.406201807299 eV    ::
         :: SCC energy               -83.931253964448 Eh    ::
         :: -> Gsolv                  -0.119503546681 Eh    ::
         :: repulsion energy           0.821497341354 Eh    ::

    * Orbital Energies and Occupations

         #    Occupation            Energy/Eh            Energy/eV
      -------------------------------------------------------------
         1        2.0000           -0.9342147             -25.4213
       ...           ...                  ...                  ...
        55        2.0000           -0.5341707             -14.5355
        56        2.0000           -0.5267835             -14.3345
        57        2.0000           -0.5231362             -14.2353
        58        2.0000           -0.5211052             -14.1800
        59        2.0000           -0.5166398             -14.0585
        60        2.0000           -0.5065983             -13.7852
        61        2.0000           -0.5041768             -13.7193
        62        2.0000           -0.4993605             -13.5883
        63        2.0000           -0.4991186             -13.5817
        64        2.0000           -0.4965079             -13.5107
        65        2.0000           -0.4734725             -12.8838
        66        2.0000           -0.4591510             -12.4941
        67        1.9992           -0.4424585             -12.0399 (HOMO)
        68        0.0008           -0.4275308             -11.6337 (LUMO)
        69                         -0.3362148              -9.1489
        70                         -0.3311158              -9.0101
        71                         -0.3040740              -8.2743
        72                         -0.2988218              -8.1314
        73                         -0.2520591              -6.8589
        74                         -0.1767288              -4.8090
        75                         -0.1710876              -4.6555
        76                         -0.1692390              -4.6052
        77                         -0.1473234              -4.0089
        78                         -0.1416712              -3.8551
       ...                                ...                  ...
       136                          0.7396032              20.1256
      -------------------------------------------------------------
                  HL-Gap            0.0149276 Eh            0.4062 eV

Wiberg/Mayer (AO) data.
largest (>0.10) Wiberg bond orders for each atom

     #   Z sym  total        # sym  WBO       # sym  WBO       # sym  WBO
 ---------------------------------------------------------------------------
     1   6 C    3.862 --    27 H    0.986    26 H    0.979    28 H    0.979
                             2 O    0.888
     2   8 O    2.219 --     3 C    1.141     1 C    0.888     4 O    0.131
     3   6 C    3.851 --     4 O    1.608     2 O    1.141     5 C    1.017
     4   8 O    1.948 --     3 C    1.608     2 O    0.131
     5   6 C    3.958 --    24 C    1.484     6 N    1.171     3 C    1.017
     6   7 N    3.027 --     7 C    1.601     5 C    1.171
     7   6 C    3.935 --     6 N    1.601    21 N    1.164     8 C    0.979
     8   6 C    3.902 --    10 C    0.995     9 C    0.981     7 C    0.979
                            11 N    0.875
     9   6 C    3.983 --    31 H    0.983     8 C    0.981    29 H    0.981
                            30 H    0.977
    10   6 C    3.985 --     8 C    0.995    33 H    0.984    34 H    0.981
                            32 H    0.980
    11   7 N    3.370 --    12 C    1.343    35 H    0.884     8 C    0.875
                            14 O    0.180
    12   6 C    3.908 --    14 O    1.692    11 N    1.343    15 C    0.714
    13   6 C    3.951 --    38 H    0.979    37 H    0.976    36 H    0.971
                            15 C    0.928
    14   8 O    2.085 --    12 C    1.692    11 N    0.180
    15   6 C    3.843 --    16 N    1.112    13 C    0.928    20 O    0.920
                            12 C    0.714
    16   7 N    3.019 --    17 N    1.624    15 C    1.112
    17   7 N    3.015 --    16 N    1.624    18 C    1.212
    18   6 C    3.802 --    20 O    1.287    17 N    1.212    19 C    1.077
    19   6 C    3.965 --    18 C    1.077    40 H    0.968    41 H    0.944
                            39 H    0.908
    20   8 O    2.389 --    18 C    1.287    15 C    0.920
    21   7 N    3.453 --     7 C    1.164    22 C    1.107    42 H    0.886
                            23 O    0.135
    22   6 C    3.904 --    23 O    1.620    21 N    1.107    24 C    1.048
    23   8 O    1.917 --    22 C    1.620    21 N    0.135
    24   6 C    3.918 --     5 C    1.484    25 O    1.141    22 C    1.048
    25   8 O    2.105 --    24 C    1.141    43 H    0.769
    26   1 H    1.005 --     1 C    0.979
    27   1 H    1.010 --     1 C    0.986
    28   1 H    1.005 --     1 C    0.979
    29   1 H    0.997 --     9 C    0.981
    30   1 H    1.000 --     9 C    0.977
    31   1 H    0.998 --     9 C    0.983
    32   1 H    1.006 --    10 C    0.980
    33   1 H    1.003 --    10 C    0.984
    34   1 H    1.002 --    10 C    0.981
    35   1 H    0.935 --    11 N    0.884
    36   1 H    0.988 --    13 C    0.971
    37   1 H    0.989 --    13 C    0.976
    38   1 H    0.994 --    13 C    0.979
    39   1 H    0.978 --    19 C    0.908
    40   1 H    0.985 --    19 C    0.968
    41   1 H    0.983 --    19 C    0.944
    42   1 H    0.928 --    21 N    0.886
    43   1 H    0.847 --    25 O    0.769
 ---------------------------------------------------------------------------

           -------------------------------------------------
          | TOTAL ENERGY              -83.136550879393 Eh   |
          | GRADIENT NORM               0.000601798657 Eh/α |
          | HOMO-LUMO GAP               0.406201807299 eV   |
           -------------------------------------------------

 * finished run on 2023/06/20 at 15:32:56.761
