   * xtb version 6.5.1 (579679a) compiled by 'ehlert@majestix' on 2022-07-11
          program call               : /lustre/hpc/kemi/ree/PhD/git/ReactivityQM/dep/xtb-6.5.1/bin/xtb --gfn 1 /lustre/hpc/kemi/ree/PhD/git/ReactivityQM/calculations/R02oxygendeprot/reac01prodN15/conf15/R02oxygendeprot_reac01prodN15_conf15_gfn1.xyz --opt --vfukui --chrg 0 --uhf 0 --alpb DMSO

   ID    Z sym.   atoms
    1    6 C      1, 3, 5, 7-10, 12, 14, 17, 18, 21, 23, 24
    2    8 O      2, 4, 13, 19, 22, 25
    3    7 N      6, 11, 15, 16, 20
    4    1 H      26-42

      * Solvation model:               ALPB
        Solvent                        DMSO
        Solvent mass                       7.8130E+01 g/mol
          :  Hamiltonian                  GFN1-xTB          :
 * total energy  :   -82.8961249 Eh     change       -0.1492140E-11 Eh
 * total energy  :   -82.9162411 Eh     change       -0.2011613E-01 Eh
 * total energy  :   -82.9349567 Eh     change       -0.1871564E-01 Eh
 * total energy  :   -82.9534425 Eh     change       -0.1848583E-01 Eh
 * total energy  :   -82.9772823 Eh     change       -0.2383974E-01 Eh
 * total energy  :   -82.8705062 Eh     change        0.1067760E+00 Eh
 * total energy  :   -82.9964042 Eh     change       -0.1258980E+00 Eh
 * total energy  :   -83.0005078 Eh     change       -0.4103625E-02 Eh
 * total energy  :   -83.0023530 Eh     change       -0.1845164E-02 Eh
 * total energy  :   -83.0034103 Eh     change       -0.1057321E-02 Eh
 * total energy  :   -83.0076404 Eh     change       -0.5774949E-05 Eh
 * total energy  :   -83.0076466 Eh     change       -0.6188511E-05 Eh
 * total energy  :   -83.0076536 Eh     change       -0.7009769E-05 Eh
 * total energy  :   -83.0076600 Eh     change       -0.6437420E-05 Eh
 * total energy  :   -83.0076654 Eh     change       -0.5369952E-05 Eh
 * total energy  :   -83.0076691 Eh     change       -0.3657038E-05 Eh
 * total energy  :   -83.0076728 Eh     change       -0.3731470E-05 Eh
 * total energy  :   -83.0076770 Eh     change       -0.4258524E-05 Eh
 * total energy  :   -83.0076818 Eh     change       -0.4735475E-05 Eh
   *** GEOMETRY OPTIMIZATION CONVERGED AFTER 56 ITERATIONS ***

 final structure:
================
42
 xtb: 6.5.1 (579679a)
C           -5.37918756648570       -1.56509986085278        2.38588363377675
O           -4.64195950934853       -0.97435868925516        1.30689466910678
C           -3.32530678993788       -1.08818226552062        1.35432825255850
O           -2.71841770831119       -1.63527229094053        2.24012866458719
C           -2.62865353710490       -0.43523621885788        0.17052647574670
N           -1.35778742337914       -1.00140184408210       -0.07822524432428
C           -0.54297090108897       -0.39207809249733       -0.84845330612197
C            0.76922160221406       -1.07062860337514       -1.21970878863555
C            0.84290204106988       -2.43968984762997       -0.54154205137019
C            0.86853730941050       -1.23229355533056       -2.74156373303105
N            1.90060860216835       -0.28632876880941       -0.70259788435115
C            2.37218758985825        0.86387208445580       -1.21771231615164
O            1.86007162193888        1.50048189536733       -2.12934272269756
C            3.60573909329239        1.33206778457675       -0.54390263857030
N            4.27716499791700        2.41500585760311       -0.78549496030655
N            5.32841054511266        2.42719625596556        0.07947639610933
C            5.23526188328668        1.35115665976241        0.79770185098176
C            6.13847018392261        0.89970476532900        1.87779756356154
O            4.16608764078667        0.61420195801296        0.45404060994259
N           -0.76453255534451        0.86960633261549       -1.34717238630453
C           -1.76168583558504        1.69481178574183       -0.89456452727584
O           -1.70770402453811        2.90062268879115       -1.02236762929431
C           -2.90282682507243        0.98781529931813       -0.22242561995808
C           -3.89574827085257        1.87851045278013        0.48479398451101
O           -3.40215817948295       -0.11144806149913       -0.94499897029284
H           -6.42744186450434       -1.33975349894980        2.20305261451673
H           -5.21600780174163       -2.64472488087104        2.39810299161957
H           -5.05544313451025       -1.13619050677358        3.33644090744585
H            0.02162052336305       -3.06574787846579       -0.88616465009017
H            0.76620674507788       -2.33027485979324        0.53913341676639
H            1.78639327138109       -2.92228849363449       -0.78754290695667
H            1.83352155255467       -1.66672237389770       -2.99593011389085
H            0.07804694894415       -1.89964108829541       -3.08178737812791
H            0.76580146976610       -0.27735965241518       -3.25214607215400
H            2.42503621250002       -0.71127819046014        0.04518919771806
H            6.58939111709783       -0.05538810097580        1.60877001109036
H            5.57385979952026        0.75653542867767        2.79874270413065
H            6.91907343035489        1.63970744073261        2.03699537496960
H            0.00809950375153        1.32457903738855       -1.83312913147597
H           -3.47982324796303        2.22333214312052        1.42989853458815
H           -4.82198038367844        1.34184758781914        0.66987254683683
H           -4.10207912635960        2.74687816511956       -0.14099736920121

          :  Hamiltonian                  GFN1-xTB          :
         :: total energy             -83.007681776245 Eh    ::
         :: gradient norm              0.000502155410 Eh/a0 ::
         :: HOMO-LUMO gap              3.518125818594 eV    ::
         :: SCC energy               -83.776985310874 Eh    ::
         :: -> Gsolv                  -0.052608919024 Eh    ::
         :: repulsion energy           0.794966493779 Eh    ::

    * Orbital Energies and Occupations

         #    Occupation            Energy/Eh            Energy/eV
      -------------------------------------------------------------
         1        2.0000           -0.8681330             -23.6231
       ...           ...                  ...                  ...
        55        2.0000           -0.5076419             -13.8136
        56        2.0000           -0.5052637             -13.7489
        57        2.0000           -0.5037896             -13.7088
        58        2.0000           -0.5023111             -13.6686
        59        2.0000           -0.4828571             -13.1392
        60        2.0000           -0.4795955             -13.0505
        61        2.0000           -0.4721637             -12.8482
        62        2.0000           -0.4678307             -12.7303
        63        2.0000           -0.4614508             -12.5567
        64        2.0000           -0.4600819             -12.5195
        65        2.0000           -0.4548748             -12.3778
        66        2.0000           -0.4520732             -12.3015
        67        2.0000           -0.4451248             -12.1125 (HOMO)
        68                         -0.3158361              -8.5943 (LUMO)
        69                         -0.3005949              -8.1796
        70                         -0.2870151              -7.8101
        71                         -0.2588693              -7.0442
        72                         -0.2558926              -6.9632
        73                         -0.2033684              -5.5339
        74                         -0.1428558              -3.8873
        75                         -0.1425201              -3.8782
        76                         -0.1322026              -3.5974
        77                         -0.1294106              -3.5214
        78                         -0.1269214              -3.4537
       ...                                ...                  ...
       134                          0.7162138              19.4892
      -------------------------------------------------------------
                  HL-Gap            0.1292887 Eh            3.5181 eV

Wiberg/Mayer (AO) data.
largest (>0.10) Wiberg bond orders for each atom

     #   Z sym  total        # sym  WBO       # sym  WBO       # sym  WBO
 ---------------------------------------------------------------------------
     1   6 C    3.860 --    26 H    0.986    28 H    0.980    27 H    0.979
                             2 O    0.884
     2   8 O    2.225 --     3 C    1.141     1 C    0.884     4 O    0.141
     3   6 C    3.850 --     4 O    1.688     2 O    1.141     5 C    0.937
     4   8 O    1.939 --     3 C    1.688     2 O    0.141
     5   6 C    3.870 --     6 N    1.028     3 C    0.937    25 O    0.907
                            23 C    0.834
     6   7 N    3.022 --     7 C    1.701     5 C    1.028
     7   6 C    3.930 --     6 N    1.701    20 N    1.128     8 C    0.966
     8   6 C    3.933 --     9 C    1.001    10 C    0.984     7 C    0.966
                            11 N    0.917
     9   6 C    3.990 --     8 C    1.001    31 H    0.985    29 H    0.982
                            30 H    0.982
    10   6 C    3.988 --    33 H    0.984     8 C    0.984    32 H    0.983
                            34 H    0.979
    11   7 N    3.354 --    12 C    1.272     8 C    0.917    35 H    0.891
                            13 O    0.174
    12   6 C    3.915 --    13 O    1.556    11 N    1.272    14 C    0.999
    13   8 O    1.916 --    12 C    1.556    11 N    0.174
    14   6 C    3.874 --    15 N    1.619    19 O    1.046    12 C    0.999
    15   7 N    3.001 --    14 C    1.619    16 N    1.202
    16   7 N    2.982 --    17 C    1.608    15 N    1.202
    17   6 C    3.867 --    16 N    1.608    19 O    1.073    18 C    1.032
    18   6 C    3.986 --    17 C    1.032    38 H    0.982    37 H    0.963
                            36 H    0.961
    19   8 O    2.317 --    17 C    1.073    14 C    1.046
    20   7 N    3.427 --    21 C    1.155     7 C    1.128    39 H    0.846
                            22 O    0.126
    21   6 C    3.896 --    22 O    1.647    20 N    1.155    23 C    0.978
    22   8 O    1.927 --    21 C    1.647    20 N    0.126
    23   6 C    3.860 --    24 C    1.002    21 C    0.978    25 O    0.893
                             5 C    0.834
    24   6 C    3.986 --    23 C    1.002    41 H    0.981    40 H    0.980
                            42 H    0.975
    25   8 O    1.965 --     5 C    0.907    23 C    0.893
    26   1 H    1.009 --     1 C    0.986
    27   1 H    1.005 --     1 C    0.979
    28   1 H    1.005 --     1 C    0.980
    29   1 H    1.006 --     9 C    0.982
    30   1 H    1.005 --     9 C    0.982
    31   1 H    0.998 --     9 C    0.985
    32   1 H    0.999 --    10 C    0.983
    33   1 H    1.000 --    10 C    0.984
    34   1 H    1.008 --    10 C    0.979
    35   1 H    0.935 --    11 N    0.891
    36   1 H    0.996 --    18 C    0.961
    37   1 H    0.996 --    18 C    0.963
    38   1 H    0.998 --    18 C    0.982
    39   1 H    0.932 --    20 N    0.846
    40   1 H    1.000 --    24 C    0.980
    41   1 H    1.008 --    24 C    0.981
    42   1 H    1.003 --    24 C    0.975
 ---------------------------------------------------------------------------

           -------------------------------------------------
          | TOTAL ENERGY              -83.007681776245 Eh   |
          | GRADIENT NORM               0.000502155410 Eh/α |
          | HOMO-LUMO GAP               3.518125818594 eV   |
           -------------------------------------------------

 * finished run on 2023/06/21 at 17:35:32.583
