   * xtb version 6.5.1 (579679a) compiled by 'ehlert@majestix' on 2022-07-11
          program call               : /lustre/hpc/kemi/ree/PhD/git/ReactivityQM/dep/xtb-6.5.1/bin/xtb --gfn 1 /lustre/hpc/kemi/ree/PhD/git/ReactivityQM/calculations/R03/reac02prodN13/conf12/R03_reac02prodN13_conf12_gfn1.xyz --opt --vfukui --chrg 1 --uhf 0 --alpb DMSO

   ID    Z sym.   atoms
    1    6 C      1, 3, 5, 7-10, 12, 14, 17-19, 22, 23, 25
    2    8 O      2, 4, 13, 20, 24, 26
    3    7 N      6, 11, 15, 16, 21
    4    1 H      27-46

      * Solvation model:               ALPB
        Solvent                        DMSO
        Solvent mass                       7.8130E+01 g/mol
          :  Hamiltonian                  GFN1-xTB          :
 * total energy  :   -86.2734653 Eh     change       -0.1608100E-09 Eh
 * total energy  :   -86.2892518 Eh     change       -0.1578650E-01 Eh
 * total energy  :   -86.2951540 Eh     change       -0.5902157E-02 Eh
 * total energy  :   -86.2959878 Eh     change       -0.8337608E-03 Eh
 * total energy  :   -86.2963286 Eh     change       -0.3408817E-03 Eh
 * total energy  :   -86.2964077 Eh     change       -0.7904593E-04 Eh
 * total energy  :   -86.2964938 Eh     change       -0.8613898E-04 Eh
 * total energy  :   -86.2965758 Eh     change       -0.8194851E-04 Eh
 * total energy  :   -86.2966593 Eh     change       -0.8348450E-04 Eh
 * total energy  :   -86.2967299 Eh     change       -0.7064017E-04 Eh
 * total energy  :   -86.2970443 Eh     change       -0.9480944E-05 Eh
 * total energy  :   -86.2970554 Eh     change       -0.1105703E-04 Eh
 * total energy  :   -86.2970640 Eh     change       -0.8561235E-05 Eh
 * total energy  :   -86.2970697 Eh     change       -0.5720158E-05 Eh
 * total energy  :   -86.2970757 Eh     change       -0.6037028E-05 Eh
 * total energy  :   -86.2970816 Eh     change       -0.5895915E-05 Eh
 * total energy  :   -86.2970873 Eh     change       -0.5677640E-05 Eh
 * total energy  :   -86.2970958 Eh     change       -0.8524922E-05 Eh
 * total energy  :   -86.2970998 Eh     change       -0.4005717E-05 Eh
   *** GEOMETRY OPTIMIZATION CONVERGED AFTER 39 ITERATIONS ***

 final structure:
================
46
 xtb: 6.5.1 (579679a)
C           -6.74705638107983       -2.07552802794245       -0.91737263098345
O           -5.73173056769571       -1.08136650285303       -0.73490421529133
C           -4.62605620624294       -1.46616397220788       -0.11142432222320
O           -4.44081159703936       -2.58659940752181        0.30085221387525
C           -3.61803717336601       -0.36651756788455        0.02878169305003
N           -2.46173452089180       -0.75225209800433        0.63468505161716
C           -1.47766396493235        0.06887230202942        0.83352820613863
C           -0.27619621821674       -0.50603666936016        1.56768398265741
C           -0.21287624821295        0.06844363981122        2.99044687861427
C           -0.39046614545201       -2.03608022966179        1.62960921737520
N            0.93645735350573       -0.18234163876841        0.79766139985126
C            2.18191637758982       -0.41902345269999        1.24750737398007
O            2.51164692940154       -0.85067806156207        2.32641844338756
C            3.19521219549927       -0.04387620497875        0.19421420465379
N            2.88023149458559        0.42170337406159       -1.05638955255857
N            3.96250523126556        0.63602060148705       -1.67215473599093
C            5.07324874620592        0.31571865082699       -0.83532914267114
C            5.91372925023486        1.56795458856461       -0.55021445880083
C            5.90522381201750       -0.82278748824981       -1.43910998938006
O            4.45451985555037       -0.12766823699018        0.37094909132284
N           -1.54548448825577        1.37945392092089        0.45211872789908
C           -0.50676396164391        2.39359266150775        0.63830355367147
C           -2.67691816615153        1.88162623652835       -0.17619683088671
O           -2.75236827802114        3.04991977115915       -0.52876421234030
C           -3.76417639502717        0.93338147528384       -0.38676277789706
O           -4.84624086134596        1.42210452457776       -0.98358050617262
H           -7.11151205262550       -2.41887796006492        0.05355448591119
H           -7.54910660643494       -1.59985411634897       -1.47804594208288
H           -6.34292439252908       -2.92406101558276       -1.47428243072871
H            0.03928902285076        1.12532336623841        2.97959809338470
H            0.53181819842782       -0.46380945814796        3.57843691044084
H           -1.18782469931701       -0.05754067397138        3.45959411808614
H           -1.28763878901131       -2.30885098569435        2.18254715063848
H           -0.45357718279153       -2.44718312883207        0.62412846358540
H            0.48294013018161       -2.44463850335165        2.13355348785907
H            0.82481699760603        0.07654767541797       -0.17038696303290
H            5.27931260117991        2.32992313858616       -0.10303924299251
H            6.32833847928529        1.93230357480887       -1.48689601415423
H            6.71455868487611        1.30339480900290        0.13642118337400
H            6.32802415510312       -0.48558659598679       -2.38207163480096
H            6.70042231097398       -1.08187398299124       -0.74394205100912
H            5.26423190162373       -1.68564371987459       -1.60635940345818
H            0.38195860944201        1.96504530816559        1.08148083166743
H           -0.26942906818421        2.81574521088119       -0.33792300771769
H           -0.90712002521208        3.18052896462696        1.27799157296778
H           -4.70668734772183        2.36723290504619       -1.18352827083733

          :  Hamiltonian                  GFN1-xTB          :
         :: total energy             -86.297099815230 Eh    ::
         :: gradient norm              0.000495800531 Eh/a0 ::
         :: HOMO-LUMO gap              0.136355050814 eV    ::
         :: SCC energy               -87.120801294399 Eh    ::
         :: -> Gsolv                  -0.113603155907 Eh    ::
         :: repulsion energy           0.852530252981 Eh    ::

    * Orbital Energies and Occupations

         #    Occupation            Energy/Eh            Energy/eV
      -------------------------------------------------------------
         1        2.0000           -0.9335834             -25.4041
       ...           ...                  ...                  ...
        58        2.0000           -0.5329440             -14.5021
        59        2.0000           -0.5289132             -14.3925
        60        2.0000           -0.5209063             -14.1746
        61        2.0000           -0.5207904             -14.1714
        62        2.0000           -0.5147539             -14.0072
        63        2.0000           -0.5042472             -13.7213
        64        2.0000           -0.5016366             -13.6502
        65        2.0000           -0.4987394             -13.5714
        66        2.0000           -0.4948569             -13.4657
        67        2.0000           -0.4902386             -13.3401
        68        2.0000           -0.4771166             -12.9830
        69        2.0000           -0.4653722             -12.6634
        70        1.8664           -0.4471217             -12.1668 (HOMO)
        71        0.1336           -0.4421107             -12.0304 (LUMO)
        72                         -0.3612382              -9.8298
        73                         -0.3395697              -9.2402
        74                         -0.3052461              -8.3062
        75                         -0.2595614              -7.0630
        76                         -0.2546332              -6.9289
        77                         -0.1755289              -4.7764
        78                         -0.1617708              -4.4020
        79                         -0.1564553              -4.2574
        80                         -0.1559727              -4.2442
        81                         -0.1423911              -3.8747
       ...                                ...                  ...
       144                          0.7240880              19.7034
      -------------------------------------------------------------
                  HL-Gap            0.0050110 Eh            0.1364 eV

Wiberg/Mayer (AO) data.
largest (>0.10) Wiberg bond orders for each atom

     #   Z sym  total        # sym  WBO       # sym  WBO       # sym  WBO
 ---------------------------------------------------------------------------
     1   6 C    3.865 --    28 H    0.986    29 H    0.979    27 H    0.979
                             2 O    0.891
     2   8 O    2.211 --     3 C    1.128     1 C    0.891     4 O    0.139
     3   6 C    3.854 --     4 O    1.665     2 O    1.128     5 C    0.986
     4   8 O    1.926 --     3 C    1.665     2 O    0.139
     5   6 C    3.929 --    25 C    1.453     6 N    1.218     3 C    0.986
     6   7 N    3.000 --     7 C    1.537     5 C    1.218
     7   6 C    3.906 --     6 N    1.537    21 N    1.192     8 C    0.978
     8   6 C    3.909 --     7 C    0.978    10 C    0.978     9 C    0.975
                            11 N    0.906
     9   6 C    3.977 --    32 H    0.982    30 H    0.979    31 H    0.976
                             8 C    0.975
    10   6 C    3.976 --    34 H    0.984    35 H    0.982    33 H    0.979
                             8 C    0.978
    11   7 N    3.392 --    12 C    1.265     8 C    0.906    36 H    0.886
                            13 O    0.209
    12   6 C    3.923 --    13 O    1.628    11 N    1.265    14 C    0.946
    13   8 O    1.961 --    12 C    1.628    11 N    0.209
    14   6 C    3.738 --    20 O    1.334    15 N    1.211    12 C    0.946
    15   7 N    3.027 --    16 N    1.654    14 C    1.211
    16   7 N    2.904 --    15 N    1.654    17 C    1.052
    17   6 C    3.818 --    16 N    1.052    19 C    0.906    18 C    0.903
                            20 O    0.868
    18   6 C    3.936 --    37 H    0.979    38 H    0.977    39 H    0.976
                            17 C    0.903
    19   6 C    3.937 --    42 H    0.979    40 H    0.978    41 H    0.976
                            17 C    0.906
    20   8 O    2.370 --    14 C    1.334    17 C    0.868
    21   7 N    3.499 --     7 C    1.192    23 C    1.113    22 C    0.924
                            24 O    0.124
    22   6 C    3.911 --    43 H    0.978    44 H    0.972    45 H    0.971
                            21 N    0.924
    23   6 C    3.899 --    24 O    1.580    21 N    1.113    25 C    1.065
    24   8 O    1.887 --    23 C    1.580    21 N    0.124
    25   6 C    3.867 --     5 C    1.453    26 O    1.134    23 C    1.065
    26   8 O    2.085 --    25 C    1.134    46 H    0.797
    27   1 H    1.005 --     1 C    0.979
    28   1 H    1.010 --     1 C    0.986
    29   1 H    1.006 --     1 C    0.979
    30   1 H    0.998 --     9 C    0.979
    31   1 H    1.005 --     9 C    0.976
    32   1 H    0.998 --     9 C    0.982
    33   1 H    1.006 --    10 C    0.979
    34   1 H    1.004 --    10 C    0.984
    35   1 H    1.001 --    10 C    0.982
    36   1 H    0.938 --    11 N    0.886
    37   1 H    0.991 --    18 C    0.979
    38   1 H    0.992 --    18 C    0.977
    39   1 H    0.991 --    18 C    0.976
    40   1 H    0.992 --    19 C    0.978
    41   1 H    0.991 --    19 C    0.976
    42   1 H    0.991 --    19 C    0.979
    43   1 H    1.005 --    22 C    0.978
    44   1 H    1.000 --    22 C    0.972
    45   1 H    0.997 --    22 C    0.971
    46   1 H    0.836 --    26 O    0.797
 ---------------------------------------------------------------------------

           -------------------------------------------------
          | TOTAL ENERGY              -86.297099815230 Eh   |
          | GRADIENT NORM               0.000495800531 Eh/α |
          | HOMO-LUMO GAP               0.136355050814 eV   |
           -------------------------------------------------

 * finished run on 2023/06/20 at 15:48:58.751
