   * xtb version 6.5.1 (579679a) compiled by 'ehlert@majestix' on 2022-07-11
          program call               : /lustre/hpc/kemi/ree/PhD/git/ReactivityQM/dep/xtb-6.5.1/bin/xtb --gfn 1 /lustre/hpc/kemi/ree/PhD/git/ReactivityQM/calculations/R02methylcation/reac01prodN16/conf15/R02methylcation_reac01prodN16_conf15_gfn1.xyz --opt --vfukui --chrg 0 --uhf 0 --alpb DMSO

   ID    Z sym.   atoms
    1    6 C      1, 2, 5, 6, 9-12, 14, 15, 18-20, 22
    2    7 N      3, 4, 8, 13, 24
    3    8 O      7, 16, 17, 21, 23, 25
    4    1 H      26-42

      * Solvation model:               ALPB
        Solvent                        DMSO
        Solvent mass                       7.8130E+01 g/mol
          :  Hamiltonian                  GFN1-xTB          :
 * total energy  :   -82.9224350 Eh     change       -0.4817480E-11 Eh
 * total energy  :   -82.9391497 Eh     change       -0.1671469E-01 Eh
 * total energy  :   -82.9468806 Eh     change       -0.7730869E-02 Eh
 * total energy  :   -82.9490946 Eh     change       -0.2214045E-02 Eh
 * total energy  :   -82.9511900 Eh     change       -0.2095361E-02 Eh
 * total energy  :   -82.9525310 Eh     change       -0.1340997E-02 Eh
 * total energy  :   -82.9534130 Eh     change       -0.8820696E-03 Eh
 * total energy  :   -82.9540312 Eh     change       -0.6181325E-03 Eh
 * total energy  :   -82.9544292 Eh     change       -0.3980073E-03 Eh
 * total energy  :   -82.9547172 Eh     change       -0.2880342E-03 Eh
 * total energy  :   -82.9559977 Eh     change       -0.6636537E-05 Eh
 * total energy  :   -82.9560119 Eh     change       -0.1423245E-04 Eh
 * total energy  :   -82.9560265 Eh     change       -0.1459436E-04 Eh
 * total energy  :   -82.9560330 Eh     change       -0.6496003E-05 Eh
 * total energy  :   -82.9560444 Eh     change       -0.1137377E-04 Eh
 * total energy  :   -82.9560558 Eh     change       -0.1137519E-04 Eh
 * total energy  :   -82.9560663 Eh     change       -0.1055775E-04 Eh
 * total energy  :   -82.9560733 Eh     change       -0.6974383E-05 Eh
 * total energy  :   -82.9560772 Eh     change       -0.3905721E-05 Eh
   *** GEOMETRY OPTIMIZATION CONVERGED AFTER 34 ITERATIONS ***

 final structure:
================
42
 xtb: 6.5.1 (579679a)
C            6.67977012186988       -2.29075791257659        0.63091820449826
C            5.30217248028172       -1.80243020239736        0.85989201286138
N            4.44955219435746       -2.22111454530514        1.74675287359511
N            3.32280249138117       -1.47399832288917        1.58439702975944
C            3.55884425045483       -0.64721470835363        0.60979539734076
C            2.60927371490040        0.35013075324123        0.05678065900852
O            2.86733015369012        1.05345566608925       -0.90770636827318
N            1.45092806420490        0.34127994989172        0.74292724404549
C            0.29801385901060        1.22530912887864        0.51849435537740
C           -0.60522049736535        1.08142289219197        1.74400482992359
C            0.75057049567557        2.68392232983251        0.37590108346866
C           -0.46005115452167        0.77801240910563       -0.72249316710497
N           -1.68787358695192        0.42950772293394       -0.61746894373433
C           -2.40267337210703        0.04699633297089       -1.74610463445244
C           -3.73558902824782       -0.28989928193149       -1.61890064380004
O           -4.65603913072987       -0.63368964046448       -2.27629411764930
O           -4.18584483911217       -0.10551020786611        0.01316470098129
C           -5.59844149844959        0.13856915544218        0.10017755861175
C           -3.74072785495976       -1.21359185814840        0.81288996177878
C           -1.81117226437026        0.00155592997101       -3.06179338366894
O           -2.39203849150524       -0.33865780771370       -4.08543821385075
C           -0.35058297872205        0.42390868610745       -3.12033143220855
O            0.29969325616574        0.44219333244092       -4.15008163234590
N            0.20332631145459        0.79571354903687       -1.92541379135092
O            4.79727693695131       -0.81124417397870        0.11158773008939
H            6.83764550119907       -2.47757090597600       -0.43074180208795
H            6.84202572039090       -3.20556871904462        1.19598221454973
H            7.39916347275615       -1.53679936017243        0.95257419924190
H            1.38024602865266       -0.29644296683804        1.52163973227227
H           -0.07582241533172        1.40659177507613        2.63736744180887
H           -0.91072007614040        0.04374511664044        1.86714474617330
H           -1.49823559467993        1.69045574898625        1.61598584057355
H            1.35151176872929        2.83000483509892       -0.51887778209638
H            1.33838923729502        2.96846046496015        1.24672597808719
H           -0.12853160741711        3.32383840327845        0.31754794883694
H           -5.80076217411939        1.04994305367543       -0.45998112466113
H           -6.15764112828314       -0.70164672429505       -0.31768492177221
H           -5.84783124817861        0.27610559509713        1.15047776669781
H           -2.65770844946411       -1.25797273291886        0.71239794437800
H           -4.20499080075481       -2.14308727172087        0.47628705684075
H           -4.01108039245995       -1.00826399565971        1.84800186505248
H            1.18104352445330        1.07433750730416       -1.93789541679137

          :  Hamiltonian                  GFN1-xTB          :
         :: total energy             -82.956077196510 Eh    ::
         :: gradient norm              0.000474318726 Eh/a0 ::
         :: HOMO-LUMO gap              2.478196664059 eV    ::
         :: SCC energy               -83.753164618785 Eh    ::
         :: -> Gsolv                  -0.068086571372 Eh    ::
         :: repulsion energy           0.823464573950 Eh    ::

    * Orbital Energies and Occupations

         #    Occupation            Energy/Eh            Energy/eV
      -------------------------------------------------------------
         1        2.0000           -0.8690755             -23.6487
       ...           ...                  ...                  ...
        55        2.0000           -0.5071783             -13.8010
        56        2.0000           -0.5051542             -13.7459
        57        2.0000           -0.5008675             -13.6293
        58        2.0000           -0.4952298             -13.4759
        59        2.0000           -0.4841224             -13.1736
        60        2.0000           -0.4741181             -12.9014
        61        2.0000           -0.4677513             -12.7282
        62        2.0000           -0.4649537             -12.6520
        63        2.0000           -0.4552436             -12.3878
        64        2.0000           -0.4541259             -12.3574
        65        2.0000           -0.4441265             -12.0853
        66        2.0000           -0.4188171             -11.3966
        67        2.0000           -0.4124240             -11.2226 (HOMO)
        68                         -0.3213519              -8.7444 (LUMO)
        69                         -0.3132626              -8.5243
        70                         -0.2718917              -7.3985
        71                         -0.2579526              -7.0192
        72                         -0.2386026              -6.4927
        73                         -0.2109732              -5.7409
        74                         -0.2012678              -5.4768
        75                         -0.1586451              -4.3170
        76                         -0.1497666              -4.0754
        77                         -0.1464759              -3.9858
        78                         -0.1423261              -3.8729
       ...                                ...                  ...
       134                          0.8652619              23.5450
      -------------------------------------------------------------
                  HL-Gap            0.0910721 Eh            2.4782 eV

Wiberg/Mayer (AO) data.
largest (>0.10) Wiberg bond orders for each atom

     #   Z sym  total        # sym  WBO       # sym  WBO       # sym  WBO
 ---------------------------------------------------------------------------
     1   6 C    3.986 --     2 C    1.031    27 H    0.982    26 H    0.968
                            28 H    0.959
     2   6 C    3.870 --     3 N    1.602    25 O    1.084     1 C    1.031
     3   7 N    2.981 --     2 C    1.602     4 N    1.202
     4   7 N    3.018 --     5 C    1.608     3 N    1.202
     5   6 C    3.876 --     4 N    1.608    25 O    1.065     6 C    0.992
     6   6 C    3.916 --     7 O    1.571     8 N    1.266     5 C    0.992
     7   8 O    1.920 --     6 C    1.571     8 N    0.177
     8   7 N    3.349 --     6 C    1.266     9 C    0.916    29 H    0.893
                             7 O    0.177
     9   6 C    3.934 --    10 C    1.002    11 C    0.985    12 C    0.968
                             8 N    0.916
    10   6 C    3.992 --     9 C    1.002    30 H    0.984    32 H    0.983
                            31 H    0.982
    11   6 C    3.987 --     9 C    0.985    35 H    0.985    34 H    0.983
                            33 H    0.978
    12   6 C    3.935 --    13 N    1.649    24 N    1.120     9 C    0.968
    13   7 N    3.039 --    12 C    1.649    14 C    1.108
    14   6 C    3.918 --    15 C    1.334    20 C    1.150    13 N    1.108
                            16 O    0.112
    15   6 C    3.811 --    16 O    1.780    14 C    1.334    17 O    0.495
    16   8 O    2.113 --    15 C    1.780    14 C    0.112
    17   8 O    2.391 --    18 C    0.876    19 C    0.873    15 C    0.495
    18   6 C    3.845 --    36 H    0.979    37 H    0.979    38 H    0.977
                            17 O    0.876
    19   6 C    3.845 --    40 H    0.982    41 H    0.978    39 H    0.973
                            17 O    0.873
    20   6 C    3.920 --    21 O    1.631    14 C    1.150    22 C    0.938
    21   8 O    1.917 --    20 C    1.631
    22   6 C    3.888 --    23 O    1.630    24 N    1.169    20 C    0.938
    23   8 O    1.907 --    22 C    1.630    24 N    0.139
    24   7 N    3.444 --    22 C    1.169    12 C    1.120    42 H    0.859
                            23 O    0.139
    25   8 O    2.333 --     2 C    1.084     5 C    1.065
    26   1 H    0.996 --     1 C    0.968
    27   1 H    0.998 --     1 C    0.982
    28   1 H    0.996 --     1 C    0.959
    29   1 H    0.949 --     8 N    0.893
    30   1 H    0.999 --    10 C    0.984
    31   1 H    1.006 --    10 C    0.982
    32   1 H    1.008 --    10 C    0.983
    33   1 H    1.009 --    11 C    0.978
    34   1 H    0.999 --    11 C    0.983
    35   1 H    1.001 --    11 C    0.985
    36   1 H    1.003 --    18 C    0.979
    37   1 H    1.004 --    18 C    0.979
    38   1 H    1.001 --    18 C    0.977
    39   1 H    1.025 --    19 C    0.973
    40   1 H    0.998 --    19 C    0.982
    41   1 H    1.001 --    19 C    0.978
    42   1 H    0.937 --    24 N    0.859
 ---------------------------------------------------------------------------

           -------------------------------------------------
          | TOTAL ENERGY              -82.956077196510 Eh   |
          | GRADIENT NORM               0.000474318726 Eh/α |
          | HOMO-LUMO GAP               2.478196664059 eV   |
           -------------------------------------------------

 * finished run on 2023/06/21 at 17:58:21.130
