   * xtb version 6.5.1 (579679a) compiled by 'ehlert@majestix' on 2022-07-11
          program call               : /lustre/hpc/kemi/ree/PhD/git/ReactivityQM/dep/xtb-6.5.1/bin/xtb --gfn 1 /lustre/hpc/kemi/ree/PhD/git/ReactivityQM/calculations/RaltegravirCLI/reac02/conf08/RaltegravirCLI_reac02_conf08_gfn1.xyz --opt --vfukui --chrg 0 --uhf 0 --alpb DMSO

   ID    Z sym.   atoms
    1    6 C      1, 3-6, 9, 10, 13-17, 19-21, 23
    2    7 N      2, 7, 8, 12
    3    8 O      11, 22, 24
    4    9 F      18
    5    1 H      25-43

      * Solvation model:               ALPB
        Solvent                        DMSO
        Solvent mass                       7.8130E+01 g/mol
          :  Hamiltonian                  GFN1-xTB          :
 * total energy  :   -76.1763123 Eh     change       -0.7503331E-11 Eh
 * total energy  :   -76.1829865 Eh     change       -0.6674213E-02 Eh
 * total energy  :   -76.1847665 Eh     change       -0.1779975E-02 Eh
 * total energy  :   -76.1850903 Eh     change       -0.3237781E-03 Eh
 * total energy  :   -76.1854316 Eh     change       -0.3413592E-03 Eh
 * total energy  :   -76.1855600 Eh     change       -0.1283843E-03 Eh
 * total energy  :   -76.1856527 Eh     change       -0.9266919E-04 Eh
 * total energy  :   -76.1857036 Eh     change       -0.5096811E-04 Eh
 * total energy  :   -76.1857464 Eh     change       -0.4277113E-04 Eh
 * total energy  :   -76.1857946 Eh     change       -0.4821697E-04 Eh
 * total energy  :   -76.1860069 Eh     change       -0.6206216E-04 Eh
 * total energy  :   -76.1860370 Eh     change       -0.3012350E-04 Eh
 * total energy  :   -76.1860836 Eh     change       -0.4661044E-04 Eh
 * total energy  :   -76.1861167 Eh     change       -0.3313873E-04 Eh
 * total energy  :   -76.1861273 Eh     change       -0.1055753E-04 Eh
 * total energy  :   -76.1861485 Eh     change       -0.2122574E-04 Eh
 * total energy  :   -76.1861575 Eh     change       -0.9017849E-05 Eh
 * total energy  :   -76.1861677 Eh     change       -0.1017742E-04 Eh
 * total energy  :   -76.1861725 Eh     change       -0.4759595E-05 Eh
   *** GEOMETRY OPTIMIZATION CONVERGED AFTER 22 ITERATIONS ***

 final structure:
================
43
 xtb: 6.5.1 (579679a)
C           -4.06430716525380        0.74710861786825       -1.99199920002181
N           -2.72017298981873        0.20937805781125       -1.75945752221911
C           -2.22505993454533       -0.11245608953365       -0.52510130747877
C           -3.02586489003214        0.06601071151656        0.76012439964865
C           -2.27674945576188       -0.60913384688886        1.92032235676354
C           -3.17999791658862        1.56380069431793        1.06181773617805
N           -4.34908942769551       -0.54064277965166        0.62426372581742
N           -1.00981829534106       -0.54724276648833       -0.37874698661241
C           -0.19408591589048       -0.71706130990842       -1.45951471628453
C            1.17952334193343       -1.21207640709253       -1.20282988673570
O            1.98755422192625       -1.40037587767805       -2.11884253099913
N            1.46241293666637       -1.43774359594730        0.08669414927772
C            2.77199996612947       -1.90769602034170        0.51891756018736
C            3.67653225712550       -0.74605110895202        0.87427943759919
C            4.16182417281591        0.09013524829588       -0.13047506655926
C            4.98640646369785        1.16121498451125        0.17995379723648
C            5.31441799751235        1.37384539357786        1.50727509999672
F            6.11517332567917        2.40733057864204        1.81615167803555
C            4.85319816005979        0.56380536589355        2.52809336687466
C            4.02550209879248       -0.50206235972466        2.19943636928819
C           -0.62334036002581       -0.43052640271418       -2.72829355043524
O            0.13681115049897       -0.58704483446968       -3.82015370054862
C           -1.96791940486230        0.09067326870323       -2.92967602598360
O           -2.44467756530612        0.41702762756364       -4.01042861965959
H           -3.99598202775049        1.82275964266217       -2.15926508730466
H           -4.47264098963224        0.27418520317148       -2.88625236759661
H           -4.70603107159836        0.53395365129641       -1.14359243580214
H           -1.31158409323380       -0.13246747089971        2.08331131001148
H           -2.87123982951040       -0.52813657445062        2.82851246621632
H           -2.11304597492914       -1.66229184185339        1.69840934065694
H           -3.65480898982234        1.69119325428907        2.03360262515834
H           -2.20050590156283        2.04050225082290        1.08502037628045
H           -3.79387251099557        2.05601245308889        0.30992586540019
H           -4.25252554046199       -1.54592133156079        0.56956972766991
H           -4.88741404069026       -0.33087887571379        1.45325103737813
H            0.76252573488023       -1.22510710714330        0.78198878903868
H            3.20459497735147       -2.48452054990549       -0.30542773227441
H            2.62959336490932       -2.56271263593151        1.38097013757545
H            3.89492240195793       -0.10032030235708       -1.16353240426409
H            5.37099188758916        1.81807532100735       -0.58944876858921
H            5.13338252828353        0.76239114070476        3.55406942878393
H            3.65318004466218       -1.14806172996850        2.98537870742897
H            1.02018625883430       -0.93555164656298       -3.53830357914016

          :  Hamiltonian                  GFN1-xTB          :
         :: total energy             -76.186172479019 Eh    ::
         :: gradient norm              0.000485175389 Eh/a0 ::
         :: HOMO-LUMO gap              2.789672382060 eV    ::
         :: SCC energy               -77.029286689847 Eh    ::
         :: -> Gsolv                  -0.049655035483 Eh    ::
         :: repulsion energy           0.870692276619 Eh    ::

    * Orbital Energies and Occupations

         #    Occupation            Energy/Eh            Energy/eV
      -------------------------------------------------------------
         1        2.0000           -0.8632097             -23.4891
       ...           ...                  ...                  ...
        52        2.0000           -0.5009772             -13.6323
        53        2.0000           -0.4939292             -13.4405
        54        2.0000           -0.4856817             -13.2161
        55        2.0000           -0.4729765             -12.8703
        56        2.0000           -0.4695701             -12.7777
        57        2.0000           -0.4644932             -12.6395
        58        2.0000           -0.4506552             -12.2630
        59        2.0000           -0.4503463             -12.2545
        60        2.0000           -0.4417230             -12.0199
        61        2.0000           -0.4362979             -11.8723
        62        2.0000           -0.4302426             -11.7075
        63        2.0000           -0.4168289             -11.3425
        64        2.0000           -0.4128129             -11.2332 (HOMO)
        65                         -0.3102943              -8.4435 (LUMO)
        66                         -0.2742171              -7.4618
        67                         -0.2725541              -7.4166
        68                         -0.2662556              -7.2452
        69                         -0.2271095              -6.1800
        70                         -0.1471300              -4.0036
        71                         -0.1446052              -3.9349
        72                         -0.1337316              -3.6390
        73                         -0.1239289              -3.3723
        74                         -0.1212503              -3.2994
        75                         -0.1183133              -3.2195
       ...                                ...                  ...
       134                          0.7132745              19.4092
      -------------------------------------------------------------
                  HL-Gap            0.1025186 Eh            2.7897 eV

Wiberg/Mayer (AO) data.
largest (>0.10) Wiberg bond orders for each atom

     #   Z sym  total        # sym  WBO       # sym  WBO       # sym  WBO
 ---------------------------------------------------------------------------
     1   6 C    3.922 --    25 H    0.977    26 H    0.977    27 H    0.968
                             2 N    0.930
     2   7 N    3.509 --     3 C    1.187    23 C    1.110     1 C    0.930
                            24 O    0.133
     3   6 C    3.923 --     8 N    1.547     2 N    1.187     4 C    0.975
     4   6 C    3.965 --     5 C    0.992     6 C    0.984     7 N    0.981
                             3 C    0.975
     5   6 C    3.994 --     4 C    0.992    29 H    0.985    30 H    0.984
                            28 H    0.983
     6   6 C    3.993 --    32 H    0.986     4 C    0.984    31 H    0.983
                            33 H    0.982
     7   7 N    2.994 --     4 C    0.981    34 H    0.940    35 H    0.939
     8   7 N    3.045 --     3 C    1.547     9 C    1.193
     9   6 C    3.963 --    21 C    1.481     8 N    1.193    10 C    1.018
    10   6 C    3.906 --    11 O    1.513    12 N    1.291     9 C    1.018
    11   8 O    1.905 --    10 C    1.513    12 N    0.163
    12   7 N    3.369 --    10 C    1.291    13 C    0.938    36 H    0.894
                            11 O    0.163
    13   6 C    3.945 --    14 C    0.993    38 H    0.977    37 H    0.967
                            12 N    0.938
    14   6 C    3.987 --    20 C    1.424    15 C    1.413    13 C    0.993
    15   6 C    3.992 --    16 C    1.449    14 C    1.413    39 H    0.968
                            19 C    0.112
    16   6 C    3.992 --    15 C    1.449    17 C    1.397    40 H    0.970
                            20 C    0.110
    17   6 C    3.860 --    19 C    1.405    16 C    1.397    18 F    0.924
    18   9 F    1.052 --    17 C    0.924
    19   6 C    3.991 --    20 C    1.438    17 C    1.405    41 H    0.969
                            15 C    0.112
    20   6 C    3.994 --    19 C    1.438    14 C    1.424    42 H    0.971
                            16 C    0.110
    21   6 C    3.923 --     9 C    1.481    22 O    1.109    23 C    1.082
    22   8 O    2.071 --    21 C    1.109    43 H    0.772
    23   6 C    3.913 --    24 O    1.568     2 N    1.110    21 C    1.082
    24   8 O    1.881 --    23 C    1.568     2 N    0.133
    25   1 H    1.004 --     1 C    0.977
    26   1 H    1.010 --     1 C    0.977
    27   1 H    1.029 --     1 C    0.968
    28   1 H    1.012 --     5 C    0.983
    29   1 H    1.003 --     5 C    0.985
    30   1 H    1.009 --     5 C    0.984
    31   1 H    1.000 --     6 C    0.983
    32   1 H    1.003 --     6 C    0.986
    33   1 H    1.004 --     6 C    0.982
    34   1 H    0.956 --     7 N    0.940
    35   1 H    0.954 --     7 N    0.939
    36   1 H    0.959 --    12 N    0.894
    37   1 H    1.008 --    13 C    0.967
    38   1 H    1.002 --    13 C    0.977
    39   1 H    1.009 --    15 C    0.968
    40   1 H    0.998 --    16 C    0.970
    41   1 H    0.998 --    19 C    0.969
    42   1 H    0.999 --    20 C    0.971
    43   1 H    0.860 --    22 O    0.772
 ---------------------------------------------------------------------------

           -------------------------------------------------
          | TOTAL ENERGY              -76.186172479019 Eh   |
          | GRADIENT NORM               0.000485175389 Eh/α |
          | HOMO-LUMO GAP               2.789672382060 eV   |
           -------------------------------------------------

 * finished run on 2023/06/20 at 14:51:51.735
