   * xtb version 6.5.1 (579679a) compiled by 'ehlert@majestix' on 2022-07-11
          program call               : /lustre/hpc/kemi/ree/PhD/git/ReactivityQM/dep/xtb-6.5.1/bin/xtb --gfn 1 /lustre/hpc/kemi/ree/PhD/git/ReactivityQM/calculations/R02/reac01prodE03/conf12/R02_reac01prodE03_conf12_gfn1.xyz --opt --vfukui --chrg -1 --uhf 0 --alpb DMSO

   ID    Z sym.   atoms
    1    6 C      1, 3, 5, 6, 8-11, 13, 15, 18, 19, 22, 24
    2    8 O      2, 4, 14, 20, 23, 25
    3    7 N      7, 12, 16, 17, 21
    4    1 H      26-43

      * Solvation model:               ALPB
        Solvent                        DMSO
        Solvent mass                       7.8130E+01 g/mol
          :  Hamiltonian                  GFN1-xTB          :
 * total energy  :   -83.8146119 Eh     change       -0.6238565E-11 Eh
 * total energy  :   -83.8290748 Eh     change       -0.1446288E-01 Eh
 * total energy  :   -83.8348189 Eh     change       -0.5744038E-02 Eh
 * total energy  :   -83.8361627 Eh     change       -0.1343856E-02 Eh
 * total energy  :   -83.8370950 Eh     change       -0.9322609E-03 Eh
 * total energy  :   -83.8376917 Eh     change       -0.5967572E-03 Eh
 * total energy  :   -83.8382823 Eh     change       -0.5905269E-03 Eh
 * total energy  :   -83.8388233 Eh     change       -0.5410920E-03 Eh
 * total energy  :   -83.8392674 Eh     change       -0.4440383E-03 Eh
 * total energy  :   -83.8395675 Eh     change       -0.3001447E-03 Eh
 * total energy  :   -83.8445300 Eh     change       -0.3492154E-04 Eh
 * total energy  :   -83.8445721 Eh     change       -0.4210894E-04 Eh
 * total energy  :   -83.8445907 Eh     change       -0.1857703E-04 Eh
 * total energy  :   -83.8446151 Eh     change       -0.2440430E-04 Eh
 * total energy  :   -83.8446263 Eh     change       -0.1124314E-04 Eh
 * total energy  :   -83.8446374 Eh     change       -0.1105044E-04 Eh
 * total energy  :   -83.8446453 Eh     change       -0.7905871E-05 Eh
 * total energy  :   -83.8446531 Eh     change       -0.7782070E-05 Eh
 * total energy  :   -83.8446579 Eh     change       -0.4825860E-05 Eh
   *** GEOMETRY OPTIMIZATION CONVERGED AFTER 79 ITERATIONS ***

 final structure:
================
43
 xtb: 6.5.1 (579679a)
C           -3.35533057735733       -1.66612854542011       -2.17780727538831
O           -2.99614822488769       -0.34192948941318       -2.54715735066866
C           -3.19080275238890        0.65053746492187       -1.57747315084618
O           -4.24127650448308        1.51509629235378       -1.85584901388686
C           -5.51424986065271        1.16942925135821       -1.32026593113693
C           -2.38252085026231        0.75733101067272       -0.47628661545374
N           -1.32647992446158       -0.17146077651363       -0.38559177254840
C           -0.50222754858708       -0.11791741067238        0.60089967975791
C            0.61865512309179       -1.15827356220414        0.66140856157141
C            0.64296579332432       -1.87211172286880        2.01795573128099
C            0.41584789181604       -2.18905253505285       -0.45111898900731
N            1.91674151214217       -0.51378668543699        0.39381949453347
C            2.60856323622884        0.26994331084745        1.24383088064231
O            2.23258229986075        0.64457719963836        2.34939324393894
C            3.92430404189585        0.67919889002956        0.70223698500157
N            4.78306713571207        1.49513640523047        1.24212863569997
N            5.84694885441755        1.56692899552959        0.39041411852110
C            5.57672627657402        0.79376068507575       -0.61313595698456
C            6.41869772009609        0.52206492847365       -1.79920567304470
O            4.37486791517003        0.20328631766987       -0.48489088910677
N           -0.57408086200471        0.79882153820296        1.59333186201275
C           -1.60868008871364        1.77424259620945        1.64097624607649
O           -1.64196027917415        2.57773671448919        2.60842274365908
C           -2.49050769487563        1.72154424738873        0.57441955354206
O           -3.54858552233882        2.64382061032280        0.57365868316072
H           -4.41253955649813       -1.73572666856103       -1.89206520242646
H           -2.73828966157350       -2.02192159604729       -1.34262361252810
H           -3.17809933396846       -2.30201370994923       -3.04787288795245
H           -5.89062003826341        0.23374325564114       -1.75125376413787
H           -5.46912351098336        1.06684042503560       -0.22954374697446
H           -6.20098677680086        1.97918104917702       -1.57576619498092
H            0.78629496402413       -1.17326289230967        2.83918926803641
H           -0.30204747343138       -2.39382738953985        2.16295142908999
H            1.45224431503626       -2.60052121336024        2.03421981612737
H            0.39391034131884       -1.69829166344102       -1.42344491538371
H            1.22123439481520       -2.92085945290232       -0.43610257244394
H           -0.53230573513440       -2.70409014706321       -0.30401834301566
H            2.37320697207045       -0.78076626959163       -0.46276131012396
H            5.90786401033533        0.84834905804020       -2.70532872107309
H            6.60479396862338       -0.54804319206036       -1.88544772899452
H            7.36423658925429        1.05036996281633       -1.70469677031318
H            0.09784506980805        0.80027989981611        2.34668576527393
H           -3.46473464877628        3.14776381346211        1.39874569049139

          :  Hamiltonian                  GFN1-xTB          :
         :: total energy             -83.844657904706 Eh    ::
         :: gradient norm              0.000749545140 Eh/a0 ::
         :: HOMO-LUMO gap              0.161785201449 eV    ::
         :: SCC energy               -84.603395112984 Eh    ::
         :: -> Gsolv                  -0.124287071785 Eh    ::
         :: repulsion energy           0.785254104776 Eh    ::

    * Orbital Energies and Occupations

         #    Occupation            Energy/Eh            Energy/eV
      -------------------------------------------------------------
         1        2.0000           -0.8538457             -23.2343
       ...           ...                  ...                  ...
        56        2.0000           -0.4691619             -12.7665
        57        2.0000           -0.4686817             -12.7535
        58        2.0000           -0.4518318             -12.2950
        59        2.0000           -0.4480143             -12.1911
        60        2.0000           -0.4402111             -11.9788
        61        2.0000           -0.4360320             -11.8650
        62        2.0000           -0.4325404             -11.7700
        63        2.0000           -0.4290188             -11.6742
        64        2.0000           -0.4236737             -11.5287
        65        2.0000           -0.3936534             -10.7119
        66        2.0000           -0.3898639             -10.6087
        67        2.0000           -0.3728235             -10.1450
        68        1.9162           -0.3045949              -8.2885 (HOMO)
        69        0.0838           -0.2986494              -8.1267 (LUMO)
        70                         -0.2477126              -6.7406
        71                         -0.2291560              -6.2357
        72                         -0.1936245              -5.2688
        73                         -0.1852735              -5.0415
        74                         -0.1388335              -3.7779
        75                         -0.1231245              -3.3504
        76                         -0.1156861              -3.1480
        77                         -0.1122057              -3.0533
        78                         -0.1065126              -2.8984
        79                         -0.0911044              -2.4791
       ...                                ...                  ...
       136                          0.7288250              19.8323
      -------------------------------------------------------------
                  HL-Gap            0.0059455 Eh            0.1618 eV

Wiberg/Mayer (AO) data.
largest (>0.10) Wiberg bond orders for each atom

     #   Z sym  total        # sym  WBO       # sym  WBO       # sym  WBO
 ---------------------------------------------------------------------------
     1   6 C    3.916 --    28 H    0.985    26 H    0.981    27 H    0.978
                             2 O    0.937
     2   8 O    2.002 --     1 C    0.937     3 C    0.935
     3   6 C    3.718 --     6 C    1.515     4 O    0.953     2 O    0.935
     4   8 O    2.011 --     3 C    0.953     5 C    0.931
     5   6 C    3.916 --    31 H    0.985    29 H    0.981    30 H    0.981
                             4 O    0.931
     6   6 C    3.951 --     3 C    1.515    24 C    1.181     7 N    1.071
     7   7 N    3.006 --     8 C    1.617     6 C    1.071    21 N    0.134
     8   6 C    3.947 --     7 N    1.617    21 N    1.205     9 C    0.959
     9   6 C    3.930 --    11 C    1.003    10 C    0.991     8 C    0.959
                            12 N    0.910
    10   6 C    3.991 --     9 C    0.991    33 H    0.986    34 H    0.985
                            32 H    0.978
    11   6 C    3.994 --     9 C    1.003    36 H    0.986    35 H    0.982
                            37 H    0.982
    12   7 N    3.337 --    13 C    1.262     9 C    0.910    38 H    0.900
                            14 O    0.173
    13   6 C    3.892 --    14 O    1.547    12 N    1.262    15 C    1.005
    14   8 O    1.873 --    13 C    1.547    12 N    0.173
    15   6 C    3.836 --    16 N    1.596    20 O    1.035    13 C    1.005
    16   7 N    2.954 --    15 C    1.596    17 N    1.192
    17   7 N    2.981 --    18 C    1.618    16 N    1.192
    18   6 C    3.860 --    17 N    1.618    20 O    1.067    19 C    1.030
    19   6 C    3.988 --    18 C    1.030    41 H    0.983    40 H    0.965
                            39 H    0.964
    20   8 O    2.293 --    18 C    1.067    15 C    1.035
    21   7 N    3.379 --     8 C    1.205    22 C    0.978    42 H    0.889
                             7 N    0.134
    22   6 C    3.902 --    23 O    1.395    24 C    1.370    21 N    0.978
    23   8 O    1.719 --    22 C    1.395    24 C    0.127
    24   6 C    3.813 --    22 C    1.370     6 C    1.181    25 O    0.966
                            23 O    0.127
    25   8 O    1.942 --    24 C    0.966    43 H    0.853
    26   1 H    1.018 --     1 C    0.981
    27   1 H    1.034 --     1 C    0.978
    28   1 H    1.019 --     1 C    0.985
    29   1 H    1.018 --     5 C    0.981
    30   1 H    1.030 --     5 C    0.981
    31   1 H    1.021 --     5 C    0.985
    32   1 H    1.012 --    10 C    0.978
    33   1 H    1.003 --    10 C    0.986
    34   1 H    1.002 --    10 C    0.985
    35   1 H    1.014 --    11 C    0.982
    36   1 H    1.001 --    11 C    0.986
    37   1 H    1.013 --    11 C    0.982
    38   1 H    0.945 --    12 N    0.900
    39   1 H    0.998 --    19 C    0.964
    40   1 H    0.997 --    19 C    0.965
    41   1 H    1.000 --    19 C    0.983
    42   1 H    0.961 --    21 N    0.889
    43   1 H    0.892 --    25 O    0.853
 ---------------------------------------------------------------------------

           -------------------------------------------------
          | TOTAL ENERGY              -83.844657904706 Eh   |
          | GRADIENT NORM               0.000749545140 Eh/α |
          | HOMO-LUMO GAP               0.161785201449 eV   |
           -------------------------------------------------

 * finished run on 2023/06/20 at 14:55:25.204
