   * xtb version 6.5.1 (579679a) compiled by 'ehlert@majestix' on 2022-07-11
          program call               : /lustre/hpc/kemi/ree/PhD/git/ReactivityQM/dep/xtb-6.5.1/bin/xtb --gfn 1 /lustre/hpc/kemi/ree/PhD/git/ReactivityQM/calculations/R02methylcation/reac01prodE10/conf19/R02methylcation_reac01prodE10_conf19_gfn1.xyz --opt --vfukui --chrg -2 --uhf 0 --alpb DMSO

   ID    Z sym.   atoms
    1    6 C      1, 3, 5, 7-10, 12, 14, 17-19, 22, 24
    2    8 O      2, 4, 13, 20, 23, 25
    3    7 N      6, 11, 15, 16, 21
    4    1 H      26-42

      * Solvation model:               ALPB
        Solvent                        DMSO
        Solvent mass                       7.8130E+01 g/mol
          :  Hamiltonian                  GFN1-xTB          :
 * total energy  :   -83.5618542 Eh     change       -0.2087575E-10 Eh
 * total energy  :   -83.5791515 Eh     change       -0.1729736E-01 Eh
 * total energy  :   -83.5864809 Eh     change       -0.7329373E-02 Eh
 * total energy  :   -83.5876443 Eh     change       -0.1163452E-02 Eh
 * total energy  :   -83.5883258 Eh     change       -0.6814744E-03 Eh
 * total energy  :   -83.5884973 Eh     change       -0.1715022E-03 Eh
 * total energy  :   -83.5886093 Eh     change       -0.1120052E-03 Eh
 * total energy  :   -83.5886679 Eh     change       -0.5855410E-04 Eh
 * total energy  :   -83.5887081 Eh     change       -0.4025509E-04 Eh
 * total energy  :   -83.5887367 Eh     change       -0.2853526E-04 Eh
 * total energy  :   -83.5887691 Eh     change       -0.1343637E-04 Eh
 * total energy  :   -83.5887857 Eh     change       -0.1651136E-04 Eh
 * total energy  :   -83.5887956 Eh     change       -0.9965502E-05 Eh
 * total energy  :   -83.5888107 Eh     change       -0.1503273E-04 Eh
 * total energy  :   -83.5888156 Eh     change       -0.4954701E-05 Eh
 * total energy  :   -83.5888276 Eh     change       -0.1202262E-04 Eh
 * total energy  :   -83.5888326 Eh     change       -0.4956255E-05 Eh
 * total energy  :   -83.5888452 Eh     change       -0.1260255E-04 Eh
 * total energy  :   -83.5888494 Eh     change       -0.4206821E-05 Eh
   *** GEOMETRY OPTIMIZATION CONVERGED AFTER 20 ITERATIONS ***

 final structure:
================
42
 xtb: 6.5.1 (579679a)
C            6.98640967080032        0.96498349611669        0.79777358720663
O            5.82942054174542        0.16434204056204        0.95637917093888
C            4.79289921093121        0.44854557569656        0.10659312769643
O            4.91101309451098        1.35885961454994       -0.71586447506908
C            3.62499916950111       -0.38724121630153        0.26700111633919
N            2.60538524363877       -0.06287639179438       -0.62021506714858
C            1.50335203451263       -0.71767961716394       -0.61117891785357
C            0.39387971859458       -0.42945536007412       -1.60954396188863
C            0.57867060335923       -1.41459290797493       -2.77941648431212
C            0.51640844154173        1.02150650111629       -2.10414716535528
N           -0.87412063136828       -0.68703936428308       -0.92266183080878
C           -2.10329080268210       -0.28838756942787       -1.63090543442172
O           -2.16311412494442       -0.34857658383150       -2.90730600599292
C           -3.09346851233741        0.04979622441278       -0.75705820899160
N           -3.00557039620982        0.13833295376702        0.65324527956501
N           -4.20921009595421        0.56863980643371        1.01111841768811
C           -4.48938238275750        0.78660205877092        2.41027098368760
C           -5.04331472895032        0.76013126005112        0.01270775265007
C           -6.45326877979144        1.21996395281703        0.08096914414146
O           -4.43949789151818        0.45089823010405       -1.17026563455655
N            1.29210137834471       -1.76950275855838        0.25441971907242
C            2.20459480693536       -2.19238160386877        1.18628772899573
O            1.92270839165155       -3.14258494627732        1.92963855525666
C            3.50620021844367       -1.44423470404800        1.21480979660484
O            4.38033351065965       -1.78851942021352        2.04484331340194
H            7.40093816128143        0.86182402215103       -0.21126351217930
H            6.76005070159774        2.02237484201767        0.97419764823978
H            7.71922581509163        0.62278465183523        1.52837800737767
H            0.43548791385499       -2.43563803431060       -2.42543648800776
H           -0.14162844996355       -1.21403079708803       -3.57101009160159
H            1.58633807053026       -1.31943547761711       -3.18543833716493
H            1.51550151163744        1.18735724451293       -2.50853361359944
H           -0.21994706631751        1.21941442738695       -2.88195487382634
H            0.35676770057527        1.71430003305015       -1.27738935591166
H           -0.86992795017100       -0.21018147749790       -0.02140864555616
H           -4.67938295290349        1.84457541112022        2.58918561172643
H           -5.36574154272872        0.21148614079996        2.70598529374052
H           -3.62216590640137        0.46466453902873        2.98300480257356
H           -6.53256343022613        2.16525165116247        0.62055557261403
H           -7.08545202379179        0.49130344453052        0.59394505213983
H           -6.83146581445586        1.35817926797657       -0.93010478712948
H            0.39982657372591       -2.24375915964151        0.22412920972115

          :  Hamiltonian                  GFN1-xTB          :
         :: total energy             -83.588849399402 Eh    ::
         :: gradient norm              0.000921879561 Eh/a0 ::
         :: HOMO-LUMO gap              0.138112459272 eV    ::
         :: SCC energy               -84.325783701226 Eh    ::
         :: -> Gsolv                  -0.284355764436 Eh    ::
         :: repulsion energy           0.762042194577 Eh    ::

    * Orbital Energies and Occupations

         #    Occupation            Energy/Eh            Energy/eV
      -------------------------------------------------------------
         1        2.0000           -0.8039344             -21.8762
       ...           ...                  ...                  ...
        56        2.0000           -0.4469963             -12.1634
        57        2.0000           -0.4429586             -12.0535
        58        2.0000           -0.4331513             -11.7866
        59        2.0000           -0.4192616             -11.4087
        60        2.0000           -0.4161617             -11.3243
        61        2.0000           -0.4060101             -11.0481
        62        2.0000           -0.3929103             -10.6916
        63        2.0000           -0.3748979             -10.2015
        64        2.0000           -0.3712650             -10.1026
        65        2.0000           -0.3594777              -9.7819
        66        2.0000           -0.3492605              -9.5039
        67        2.0000           -0.3449439              -9.3864
        68        1.8706           -0.2587452              -7.0408 (HOMO)
        69        0.1294           -0.2536697              -6.9027 (LUMO)
        70                         -0.2259545              -6.1485
        71                         -0.2135704              -5.8115
        72                         -0.1785012              -4.8573
        73                         -0.1396852              -3.8010
        74                         -0.1243361              -3.3834
        75                         -0.1154261              -3.1409
        76                         -0.1055049              -2.8709
        77                         -0.0918853              -2.5003
        78                         -0.0878876              -2.3915
        79                         -0.0866931              -2.3590
       ...                                ...                  ...
       134                          0.7505980              20.4248
      -------------------------------------------------------------
                  HL-Gap            0.0050755 Eh            0.1381 eV

Wiberg/Mayer (AO) data.
largest (>0.10) Wiberg bond orders for each atom

     #   Z sym  total        # sym  WBO       # sym  WBO       # sym  WBO
 ---------------------------------------------------------------------------
     1   6 C    3.908 --    28 H    0.987    26 H    0.980    27 H    0.980
                             2 O    0.936
     2   8 O    2.133 --     3 C    1.017     1 C    0.936     4 O    0.101
     3   6 C    3.814 --     4 O    1.541     5 C    1.151     2 O    1.017
     4   8 O    1.808 --     3 C    1.541     2 O    0.101
     5   6 C    3.901 --    24 C    1.258     3 C    1.151     6 N    1.136
                            25 O    0.123
     6   7 N    3.008 --     7 C    1.633     5 C    1.136
     7   6 C    3.927 --     6 N    1.633    21 N    1.099     8 C    0.975
     8   6 C    3.967 --    10 C    0.988     9 C    0.980     7 C    0.975
                            11 N    0.970
     9   6 C    3.993 --    31 H    0.989    29 H    0.987     8 C    0.980
                            30 H    0.977
    10   6 C    3.996 --     8 C    0.988    34 H    0.987    32 H    0.985
                            33 H    0.983
    11   7 N    3.052 --     8 C    0.970    35 H    0.942    12 C    0.924
    12   6 C    3.891 --    14 C    1.498    13 O    1.312    11 N    0.924
    13   8 O    1.644 --    12 C    1.312    14 C    0.144
    14   6 C    3.664 --    12 C    1.498    15 N    1.078    20 O    0.840
                            13 O    0.144
    15   7 N    2.745 --    16 N    1.176    14 C    1.078    18 C    0.298
    16   7 N    3.636 --    18 C    1.382    15 N    1.176    17 C    0.950
    17   6 C    3.953 --    38 H    0.985    37 H    0.982    36 H    0.980
                            16 N    0.950
    18   6 C    3.846 --    16 N    1.382    20 O    1.043    19 C    1.025
                            15 N    0.298
    19   6 C    3.993 --    18 C    1.025    41 H    0.983    39 H    0.974
                            40 H    0.970
    20   8 O    2.090 --    18 C    1.043    14 C    0.840
    21   7 N    3.414 --    22 C    1.155     7 C    1.099    42 H    0.896
                            23 O    0.127
    22   6 C    3.839 --    23 O    1.528    21 N    1.155    24 C    0.996
    23   8 O    1.793 --    22 C    1.528    21 N    0.127
    24   6 C    3.914 --    25 O    1.483     5 C    1.258    22 C    0.996
    25   8 O    1.770 --    24 C    1.483     5 C    0.123
    26   1 H    1.016 --     1 C    0.980
    27   1 H    1.016 --     1 C    0.980
    28   1 H    1.017 --     1 C    0.987
    29   1 H    1.013 --     9 C    0.987
    30   1 H    1.034 --     9 C    0.977
    31   1 H    1.010 --     9 C    0.989
    32   1 H    1.020 --    10 C    0.985
    33   1 H    1.022 --    10 C    0.983
    34   1 H    1.010 --    10 C    0.987
    35   1 H    0.993 --    11 N    0.942
    36   1 H    1.003 --    17 C    0.980
    37   1 H    1.002 --    17 C    0.982
    38   1 H    1.012 --    17 C    0.985
    39   1 H    1.003 --    19 C    0.974
    40   1 H    1.003 --    19 C    0.970
    41   1 H    1.002 --    19 C    0.983
    42   1 H    0.968 --    21 N    0.896
 ---------------------------------------------------------------------------

           -------------------------------------------------
          | TOTAL ENERGY              -83.588849399402 Eh   |
          | GRADIENT NORM               0.000921879561 Eh/α |
          | HOMO-LUMO GAP               0.138112459272 eV   |
           -------------------------------------------------

 * finished run on 2023/06/21 at 17:22:19.970
