   * xtb version 6.5.1 (579679a) compiled by 'ehlert@majestix' on 2022-07-11
          program call               : /lustre/hpc/kemi/ree/PhD/git/ReactivityQM/dep/xtb-6.5.1/bin/xtb --gfn 1 /lustre/hpc/kemi/ree/PhD/git/ReactivityQM/calculations/R02deprot/reac01prodE10/conf10/R02deprot_reac01prodE10_conf10_gfn1.xyz --opt --vfukui --chrg -2 --uhf 0 --alpb DMSO

   ID    Z sym.   atoms
    1    6 C      1, 3, 5, 7-10, 12, 14, 17-19, 22, 24
    2    8 O      2, 4, 13, 20, 23, 25
    3    7 N      6, 11, 15, 16, 21
    4    1 H      26-42

      * Solvation model:               ALPB
        Solvent                        DMSO
        Solvent mass                       7.8130E+01 g/mol
          :  Hamiltonian                  GFN1-xTB          :
 * total energy  :   -83.5475353 Eh     change       -0.3483080E-10 Eh
 * total energy  :   -83.5633902 Eh     change       -0.1585489E-01 Eh
 * total energy  :   -83.5697639 Eh     change       -0.6373716E-02 Eh
 * total energy  :   -83.5706947 Eh     change       -0.9307691E-03 Eh
 * total energy  :   -83.5712875 Eh     change       -0.5928536E-03 Eh
 * total energy  :   -83.5714345 Eh     change       -0.1469895E-03 Eh
 * total energy  :   -83.5715402 Eh     change       -0.1057064E-03 Eh
 * total energy  :   -83.5716015 Eh     change       -0.6132507E-04 Eh
 * total energy  :   -83.5716545 Eh     change       -0.5293490E-04 Eh
 * total energy  :   -83.5716948 Eh     change       -0.4030200E-04 Eh
 * total energy  :   -83.5719325 Eh     change       -0.1140809E-04 Eh
 * total energy  :   -83.5719438 Eh     change       -0.1134682E-04 Eh
 * total energy  :   -83.5719508 Eh     change       -0.7005950E-05 Eh
 * total energy  :   -83.5719570 Eh     change       -0.6172158E-05 Eh
 * total energy  :   -83.5719614 Eh     change       -0.4410638E-05 Eh
 * total energy  :   -83.5719687 Eh     change       -0.7313287E-05 Eh
 * total energy  :   -83.5719754 Eh     change       -0.6704351E-05 Eh
 * total energy  :   -83.5719807 Eh     change       -0.5226105E-05 Eh
 * total energy  :   -83.5719828 Eh     change       -0.2135991E-05 Eh
   *** GEOMETRY OPTIMIZATION CONVERGED AFTER 28 ITERATIONS ***

 final structure:
================
42
 xtb: 6.5.1 (579679a)
C            7.06425518609598        1.75919686160674        0.57460433930850
O            5.72331010941534        1.90773594463063        0.12560545992921
C            4.86174577199255        0.90304234944524        0.51437191692223
O            5.27899760396904       -0.02826935172927        1.19934418252204
C            3.49305484985530        1.06459969819663        0.04354713105028
N            2.65418093980438        0.05098952516364        0.44275264562907
C            1.39651126061926        0.10453452892838        0.05389247957114
C            0.49333991439851       -1.02645653234847        0.56034462999016
C            1.25874827904179       -2.35685781059580        0.48237169619923
C            0.15115015261731       -0.69680509807189        2.03067742658960
N           -0.69316158664171       -1.08580042916538       -0.28877567928796
C           -1.84059900065400       -1.82472656769606        0.18066318549443
O           -1.69600380097998       -2.86053902354452        0.91258452651340
C           -3.02314502633633       -1.33369597033039       -0.32209354944681
N           -3.21186665150792       -0.19430341702951       -1.12126788766749
N           -4.52678958802868       -0.13363104524636       -1.27931218805693
C           -5.09966578311553        0.93341145361566       -2.06389640250840
C           -5.19159800861219       -1.10325794859345       -0.68636675186512
C           -6.65944648034687       -1.31833497764021       -0.66392734828046
O           -4.32515528923940       -1.93487831122014       -0.04060464122411
N            0.83270082403335        1.05434729971158       -0.68534281842422
C            1.58704219752834        2.10333153824832       -1.12855683530546
O            1.08974356687106        3.01243718630913       -1.83160358464556
C            2.99220515103477        2.09847824734311       -0.73672513630995
O            3.73315376583343        3.15985334072425       -1.19324043241171
H            7.10541882903687        1.73720714777573        1.66824653489919
H            7.62477581601684        2.61509327686546        0.20331040921798
H            7.50191198354276        0.83419073511220        0.18573045078839
H            2.20198365476194       -2.27343483807217        1.02354756839999
H            0.67099586317621       -3.16557467631290        0.91588608037536
H            1.47301802410054       -2.59815342658675       -0.56016834672945
H            1.07442437970850       -0.54596827856669        2.59118583722985
H           -0.41078421997709       -1.50926057551111        2.49112856571615
H           -0.44129536601218        0.21752922774622        2.08132093742912
H           -0.96296745621422       -0.14099602895976       -0.57371489472149
H           -5.56535985487895        0.52433993590618       -2.96001245239964
H           -5.85390193006379        1.45583844774274       -1.47775497268064
H           -4.30296794793785        1.62005487784651       -2.34237630862797
H           -7.16586043297184       -0.55840922225736       -0.06356160020813
H           -7.07559846206781       -1.27615410012418       -1.67147224310311
H           -6.86986332240974       -2.29594998110271       -0.23455390619527
H            4.65336508454927        3.10524598778252       -0.89753002367781

          :  Hamiltonian                  GFN1-xTB          :
         :: total energy             -83.571982789194 Eh    ::
         :: gradient norm              0.000683435674 Eh/a0 ::
         :: HOMO-LUMO gap              0.093790749924 eV    ::
         :: SCC energy               -84.299518108352 Eh    ::
         :: -> Gsolv                  -0.298171643041 Eh    ::
         :: repulsion energy           0.752558175983 Eh    ::

    * Orbital Energies and Occupations

         #    Occupation            Energy/Eh            Energy/eV
      -------------------------------------------------------------
         1        2.0000           -0.8092364             -22.0204
       ...           ...                  ...                  ...
        56        2.0000           -0.4373859             -11.9019
        57        2.0000           -0.4341919             -11.8150
        58        2.0000           -0.4248008             -11.5594
        59        2.0000           -0.4117912             -11.2054
        60        2.0000           -0.4034158             -10.9775
        61        2.0000           -0.3910060             -10.6398
        62        2.0000           -0.3811905             -10.3727
        63        2.0000           -0.3713213             -10.1042
        64        2.0000           -0.3655462              -9.9470
        65        2.0000           -0.3496269              -9.5138
        66        2.0000           -0.3440120              -9.3610
        67        2.0000           -0.3423233              -9.3151
        68        1.7197           -0.2601563              -7.0792 (HOMO)
        69        0.2803           -0.2567096              -6.9854 (LUMO)
        70                         -0.2307959              -6.2803
        71                         -0.1968036              -5.3553
        72                         -0.1640814              -4.4649
        73                         -0.1424010              -3.8749
        74                         -0.1268840              -3.4527
        75                         -0.1170534              -3.1852
        76                         -0.1095164              -2.9801
        77                         -0.0850991              -2.3157
        78                         -0.0847619              -2.3065
        79                         -0.0788696              -2.1462
       ...                                ...                  ...
       134                          0.7228536              19.6698
      -------------------------------------------------------------
                  HL-Gap            0.0034467 Eh            0.0938 eV

Wiberg/Mayer (AO) data.
largest (>0.10) Wiberg bond orders for each atom

     #   Z sym  total        # sym  WBO       # sym  WBO       # sym  WBO
 ---------------------------------------------------------------------------
     1   6 C    3.896 --    27 H    0.987    28 H    0.981    26 H    0.981
                             2 O    0.921
     2   8 O    2.124 --     3 C    0.992     1 C    0.921
     3   6 C    3.718 --     4 O    1.561     5 C    1.095     2 O    0.992
     4   8 O    1.791 --     3 C    1.561
     5   6 C    3.920 --    24 C    1.404     6 N    1.188     3 C    1.095
     6   7 N    2.960 --     7 C    1.454     5 C    1.188
     7   6 C    3.952 --     6 N    1.454    21 N    1.375     8 C    0.968
     8   6 C    3.962 --     9 C    0.992    10 C    0.973     7 C    0.968
                            11 N    0.968
     9   6 C    3.996 --     8 C    0.992    31 H    0.987    29 H    0.986
                            30 H    0.982
    10   6 C    3.994 --    34 H    0.988    32 H    0.988    33 H    0.982
                             8 C    0.973
    11   7 N    3.069 --    12 C    0.980     8 C    0.968    35 H    0.925
    12   6 C    3.870 --    14 C    1.425    13 O    1.329    11 N    0.980
    13   8 O    1.629 --    12 C    1.329    14 C    0.120
    14   6 C    3.609 --    12 C    1.425    15 N    1.111    20 O    0.844
                            13 O    0.120
    15   7 N    2.735 --    16 N    1.181    14 C    1.111    18 C    0.278
    16   7 N    3.634 --    18 C    1.372    15 N    1.181    17 C    0.949
    17   6 C    3.951 --    38 H    0.984    37 H    0.982    36 H    0.980
                            16 N    0.949
    18   6 C    3.813 --    16 N    1.372    20 O    1.043    19 C    1.026
                            15 N    0.278
    19   6 C    3.993 --    18 C    1.026    41 H    0.982    40 H    0.975
                            39 H    0.968
    20   8 O    2.074 --    18 C    1.043    14 C    0.844
    21   7 N    2.946 --     7 C    1.375    22 C    1.214    23 O    0.115
    22   6 C    3.914 --    23 O    1.456    21 N    1.214    24 C    1.118
    23   8 O    1.728 --    22 C    1.456    21 N    0.115
    24   6 C    3.799 --     5 C    1.404    22 C    1.118    25 O    1.024
    25   8 O    1.995 --    24 C    1.024    42 H    0.834
    26   1 H    1.014 --     1 C    0.981
    27   1 H    1.015 --     1 C    0.987
    28   1 H    1.014 --     1 C    0.981
    29   1 H    1.027 --     9 C    0.986
    30   1 H    1.033 --     9 C    0.982
    31   1 H    1.016 --     9 C    0.987
    32   1 H    1.015 --    10 C    0.988
    33   1 H    1.024 --    10 C    0.982
    34   1 H    1.010 --    10 C    0.988
    35   1 H    1.011 --    11 N    0.925
    36   1 H    1.002 --    17 C    0.980
    37   1 H    1.002 --    17 C    0.982
    38   1 H    1.011 --    17 C    0.984
    39   1 H    1.001 --    19 C    0.968
    40   1 H    1.002 --    19 C    0.975
    41   1 H    1.002 --    19 C    0.982
    42   1 H    0.888 --    25 O    0.834
 ---------------------------------------------------------------------------

           -------------------------------------------------
          | TOTAL ENERGY              -83.571982789194 Eh   |
          | GRADIENT NORM               0.000683435674 Eh/α |
          | HOMO-LUMO GAP               0.093790749924 eV   |
           -------------------------------------------------

 * finished run on 2023/06/20 at 17:54:55.158
