                         Program Version 5.0.1 -  RELEASE  -
|  1> # ORCA input file
|  2> ! SP r2SCAN-3c CPCM
|  3>
|  4> %maxcore 1875.0
|  5> %pal nprocs 4 end
|  6> %cpcm smd true SMDsolvent "DMSO" end
|  7>
|  8> *xyz 0 1
|  9> C       6.603111    1.072895    0.320234
| 10> O       5.361746    0.567461    0.808205
| 11> C       4.383281    0.429019   -0.094326
| 12> O       4.536232    0.715547   -1.267067
| 13> C       3.117349   -0.100081    0.458479
| 14> N       2.143504   -0.233402   -0.476795
| 15> C       0.976526   -0.693024   -0.154876
| 16> C      -0.092504   -0.875351   -1.200802
| 17> C       0.269027   -0.124133   -2.482409
| 18> C      -0.313004   -2.366299   -1.470896
| 19> N      -1.360812   -0.345371   -0.656677
| 20> C      -1.399524    0.869375   -0.120173
| 21> O      -0.451262    1.589830    0.083939
| 22> C      -2.846861    1.350217    0.292420
| 23> C      -3.169053    2.610923   -0.508004
| 24> N      -2.836363    1.550787    1.699858
| 25> N      -3.668454    0.720722    2.244155
| 26> C      -4.243798    0.006236    1.278896
| 27> C      -5.261369   -1.036979    1.459531
| 28> O      -3.803512    0.334422    0.082256
| 29> N       0.676336   -1.089672    1.116664
| 30> C       1.547400   -0.988129    2.180912
| 31> O       1.194614   -1.331221    3.295973
| 32> C       2.917909   -0.437341    1.839847
| 33> O       3.754121   -0.319832    2.737859
| 34> H       6.985853    0.433196   -0.479239
| 35> H       7.294037    1.076599    1.161410
| 36> H       6.473855    2.087540   -0.065660
| 37> H      -0.533992   -0.227265   -3.208094
| 38> H       0.426220    0.931678   -2.265566
| 39> H       1.186609   -0.539852   -2.896289
| 40> H       0.607795   -2.811013   -1.845172
| 41> H      -0.609116   -2.876764   -0.556571
| 42> H      -1.095638   -2.494362   -2.215486
| 43> H      -2.210224   -0.834230   -0.876365
| 44> H      -4.135220    2.995493   -0.190621
| 45> H      -3.205958    2.364272   -1.566069
| 46> H      -2.392289    3.350773   -0.324659
| 47> H      -5.265858   -1.386180    2.489672
| 48> H      -5.077955   -1.861513    0.772576
| 49> H      -6.243810   -0.622619    1.221082
| 50> H      -0.238951   -1.462353    1.309389
| 51> **                         ****END OF INPUT****

CARTESIAN COORDINATES (ANGSTROEM)
---------------------------------
  C      6.603111    1.072895    0.320234
  O      5.361746    0.567461    0.808205
  C      4.383281    0.429019   -0.094326
  O      4.536232    0.715547   -1.267067
  C      3.117349   -0.100081    0.458479
  N      2.143504   -0.233402   -0.476795
  C      0.976526   -0.693024   -0.154876
  C     -0.092504   -0.875351   -1.200802
  C      0.269027   -0.124133   -2.482409
  C     -0.313004   -2.366299   -1.470896
  N     -1.360812   -0.345371   -0.656677
  C     -1.399524    0.869375   -0.120173
  O     -0.451262    1.589830    0.083939
  C     -2.846861    1.350217    0.292420
  C     -3.169053    2.610923   -0.508004
  N     -2.836363    1.550787    1.699858
  N     -3.668454    0.720722    2.244155
  C     -4.243798    0.006236    1.278896
  C     -5.261369   -1.036979    1.459531
  O     -3.803512    0.334422    0.082256
  N      0.676336   -1.089672    1.116664
  C      1.547400   -0.988129    2.180912
  O      1.194614   -1.331221    3.295973
  C      2.917909   -0.437341    1.839847
  O      3.754121   -0.319832    2.737859
  H      6.985853    0.433196   -0.479239
  H      7.294037    1.076599    1.161410
  H      6.473855    2.087540   -0.065660
  H     -0.533992   -0.227265   -3.208094
  H      0.426220    0.931678   -2.265566
  H      1.186609   -0.539852   -2.896289
  H      0.607795   -2.811013   -1.845172
  H     -0.609116   -2.876764   -0.556571
  H     -1.095638   -2.494362   -2.215486
  H     -2.210224   -0.834230   -0.876365
  H     -4.135220    2.995493   -0.190621
  H     -3.205958    2.364272   -1.566069
  H     -2.392289    3.350773   -0.324659
  H     -5.265858   -1.386180    2.489672
  H     -5.077955   -1.861513    0.772576
  H     -6.243810   -0.622619    1.221082
  H     -0.238951   -1.462353    1.309389

 Total Charge           Charge          ....    0
 Multiplicity           Mult            ....    1
 Number of Electrons    NEL             ....  184
 Basis Dimension        Dim             ....  615

ORBITAL ENERGIES
----------------

  NO   OCC          E(Eh)            E(eV)
   0   2.0000     -19.067463      -518.8521
   1   2.0000     -18.988325      -516.6986
   2   2.0000     -18.960742      -515.9480
   3   2.0000     -18.930941      -515.1371
   4   2.0000     -18.923662      -514.9390
   5   2.0000     -18.918221      -514.7910
   6   2.0000     -14.229917      -387.2157
   7   2.0000     -14.228143      -387.1675
   8   2.0000     -14.218573      -386.9070
   9   2.0000     -14.216794      -386.8586
  10   2.0000     -14.164797      -385.4437
  11   2.0000     -10.178576      -276.9731
  12   2.0000     -10.167666      -276.6763
  13   2.0000     -10.166425      -276.6425
  14   2.0000     -10.147169      -276.1185
  15   2.0000     -10.138116      -275.8722
  16   2.0000     -10.122280      -275.4413
  17   2.0000     -10.108018      -275.0531
  18   2.0000     -10.104241      -274.9504
  19   2.0000     -10.077068      -274.2110
  20   2.0000     -10.070480      -274.0317
  21   2.0000     -10.055011      -273.6108
  22   2.0000     -10.048394      -273.4307
  23   2.0000     -10.031905      -272.9820
  24   2.0000     -10.021248      -272.6920
  25   2.0000      -1.159956       -31.5640
  26   2.0000      -1.063267       -28.9330
  27   2.0000      -1.049723       -28.5644
  28   2.0000      -1.023760       -27.8579
  29   2.0000      -1.005456       -27.3598
  30   2.0000      -0.977622       -26.6024
  31   2.0000      -0.970657       -26.4129
  32   2.0000      -0.960829       -26.1455
  33   2.0000      -0.926790       -25.2192
  34   2.0000      -0.874268       -23.7900
  35   2.0000      -0.845768       -23.0145
  36   2.0000      -0.783993       -21.3335
  37   2.0000      -0.742751       -20.2113
  38   2.0000      -0.727287       -19.7905
  39   2.0000      -0.696042       -18.9403
  40   2.0000      -0.687797       -18.7159
  41   2.0000      -0.669154       -18.2086
  42   2.0000      -0.651136       -17.7183
  43   2.0000      -0.636992       -17.3334
  44   2.0000      -0.624962       -17.0061
  45   2.0000      -0.619098       -16.8465
  46   2.0000      -0.597831       -16.2678
  47   2.0000      -0.567695       -15.4478
  48   2.0000      -0.546176       -14.8622
  49   2.0000      -0.535982       -14.5848
  50   2.0000      -0.518964       -14.1217
  51   2.0000      -0.497585       -13.5400
  52   2.0000      -0.494852       -13.4656
  53   2.0000      -0.489353       -13.3160
  54   2.0000      -0.470944       -12.8150
  55   2.0000      -0.452102       -12.3023
  56   2.0000      -0.445109       -12.1120
  57   2.0000      -0.438211       -11.9243
  58   2.0000      -0.433110       -11.7855
  59   2.0000      -0.426905       -11.6167
  60   2.0000      -0.426009       -11.5923
  61   2.0000      -0.420320       -11.4375
  62   2.0000      -0.415217       -11.2986
  63   2.0000      -0.406060       -11.0495
  64   2.0000      -0.400907       -10.9092
  65   2.0000      -0.392524       -10.6811
  66   2.0000      -0.389156       -10.5895
  67   2.0000      -0.387451       -10.5431
  68   2.0000      -0.383591       -10.4381
  69   2.0000      -0.375560       -10.2195
  70   2.0000      -0.372746       -10.1429
  71   2.0000      -0.370232       -10.0745
  72   2.0000      -0.367595       -10.0028
  73   2.0000      -0.364455        -9.9173
  74   2.0000      -0.359426        -9.7805
  75   2.0000      -0.348880        -9.4935
  76   2.0000      -0.342621        -9.3232
  77   2.0000      -0.338953        -9.2234
  78   2.0000      -0.336552        -9.1580
  79   2.0000      -0.333318        -9.0700
  80   2.0000      -0.327397        -8.9089
  81   2.0000      -0.314571        -8.5599
  82   2.0000      -0.277450        -7.5498
  83   2.0000      -0.273083        -7.4310
  84   2.0000      -0.271038        -7.3753
  85   2.0000      -0.265339        -7.2202
  86   2.0000      -0.263382        -7.1670
  87   2.0000      -0.256602        -6.9825
  88   2.0000      -0.246455        -6.7064
  89   2.0000      -0.230799        -6.2804
  90   2.0000      -0.200353        -5.4519
  91   2.0000      -0.179565        -4.8862
  92   0.0000      -0.172627        -4.6974
  93   0.0000      -0.070594        -1.9210
  94   0.0000      -0.045737        -1.2446
  95   0.0000      -0.029766        -0.8100
  96   0.0000      -0.024485        -0.6663

MULLIKEN ATOMIC CHARGES
-----------------------
   0 C :   -0.320672
   1 O :   -0.147061
   2 C :    0.144397
   3 O :   -0.416858
   4 C :    0.117727
   5 N :   -0.100694
   6 C :    0.141216
   7 C :    0.049336
   8 C :   -0.583475
   9 C :   -0.529838
  10 N :   -0.168231
  11 C :    0.330830
  12 O :   -0.406740
  13 C :    0.097080
  14 C :   -0.510147
  15 N :   -0.125087
  16 N :   -0.150733
  17 C :    0.385098
  18 C :   -0.619511
  19 O :   -0.089216
  20 N :   -0.014753
  21 C :    0.063011
  22 O :   -0.374058
  23 C :   -0.016076
  24 O :   -0.329790
  25 H :    0.170946
  26 H :    0.171697
  27 H :    0.170858
  28 H :    0.185972
  29 H :    0.192421
  30 H :    0.190458
  31 H :    0.198869
  32 H :    0.189593
  33 H :    0.192081
  34 H :    0.327957
  35 H :    0.197899
  36 H :    0.206059
  37 H :    0.215069
  38 H :    0.213120
  39 H :    0.208901
  40 H :    0.226563
  41 H :    0.315781
Sum of atomic charges:    0.0000000

LOEWDIN ATOMIC CHARGES
----------------------
   0 C :   -0.044622
   1 O :   -0.582130
   2 C :    0.392272
   3 O :   -0.438249
   4 C :    0.196525
   5 N :   -0.550121
   6 C :    0.351341
   7 C :    0.108586
   8 C :   -0.341497
   9 C :   -0.331848
  10 N :   -0.552237
  11 C :    0.392445
  12 O :   -0.388862
  13 C :    0.316054
  14 C :   -0.285359
  15 N :   -0.290329
  16 N :   -0.304190
  17 C :    0.429278
  18 C :   -0.304642
  19 O :   -0.422592
  20 N :   -0.455426
  21 C :    0.371629
  22 O :   -0.429271
  23 C :    0.255211
  24 O :   -0.481588
  25 H :    0.179606
  26 H :    0.182316
  27 H :    0.178728
  28 H :    0.170268
  29 H :    0.180317
  30 H :    0.178452
  31 H :    0.180595
  32 H :    0.176125
  33 H :    0.176369
  34 H :    0.305641
  35 H :    0.185243
  36 H :    0.188016
  37 H :    0.195337
  38 H :    0.197982
  39 H :    0.198812
  40 H :    0.210003
  41 H :    0.305809

  Mayer bond orders larger than 0.100000
B(  0-C ,  1-O ) :   0.8388 B(  0-C , 25-H ) :   0.9581 B(  0-C , 26-H ) :   0.9665
B(  0-C , 27-H ) :   0.9563 B(  1-O ,  2-C ) :   1.1585 B(  2-C ,  3-O ) :   1.8922
B(  2-C ,  4-C ) :   1.0826 B(  4-C ,  5-N ) :   1.0109 B(  4-C , 23-C ) :   0.9403
B(  4-C , 24-O ) :  -0.1121 B(  5-N ,  6-C ) :   1.6817 B(  6-C ,  7-C ) :   0.8207
B(  6-C , 12-O ) :   0.1190 B(  6-C , 20-N ) :   1.0294 B(  7-C ,  8-C ) :   0.9257
B(  7-C ,  9-C ) :   0.9587 B(  7-C , 10-N ) :   0.7524 B(  8-C , 28-H ) :   0.9711
B(  8-C , 29-H ) :   0.9604 B(  8-C , 30-H ) :   0.9607 B(  9-C , 31-H ) :   0.9650
B(  9-C , 32-H ) :   0.9456 B(  9-C , 33-H ) :   0.9608 B( 10-N , 11-C ) :   1.2555
B( 10-N , 34-H ) :   0.8809 B( 11-C , 12-O ) :   1.7073 B( 11-C , 13-C ) :   0.8633
B( 13-C , 14-C ) :   0.9837 B( 13-C , 15-N ) :   0.9888 B( 13-C , 19-O ) :   0.7810
B( 14-C , 35-H ) :   0.9422 B( 14-C , 36-H ) :   0.9456 B( 14-C , 37-H ) :   0.9363
B( 15-N , 16-N ) :   1.5518 B( 16-N , 17-C ) :   1.3224 B( 17-C , 18-C ) :   0.8936
B( 17-C , 19-O ) :   1.1890 B( 18-C , 38-H ) :   0.9692 B( 18-C , 39-H ) :   0.9479
B( 18-C , 40-H ) :   0.9062 B( 20-N , 21-C ) :   0.9838 B( 20-N , 41-H ) :   0.8833
B( 21-C , 22-O ) :   2.0664 B( 21-C , 23-C ) :   0.8718 B( 23-C , 24-O ) :   1.9168

Dispersion correction           -0.019342126
FINAL SINGLE POINT ENERGY     -1268.594592874103

DIPOLE MOMENT
-------------
                                X             Y             Z
Electronic contribution:      4.73761       1.33074      12.37666
Nuclear contribution   :    -12.92273      -3.01730     -16.10379
                        -----------------------------------------
Total Dipole Moment    :     -8.18512      -1.68655      -3.72713
                        -----------------------------------------
Magnitude (a.u.)       :      9.15053
Magnitude (Debye)      :     23.25880

Rotational constants in cm-1:     0.014597     0.004062     0.003795
Rotational constants in MHz :   437.601270   121.778209   113.757110

                             ****ORCA TERMINATED NORMALLY****
TOTAL RUN TIME: 0 days 0 hours 8 minutes 32 seconds 647 msec
