   * xtb version 6.5.1 (579679a) compiled by 'ehlert@majestix' on 2022-07-11
          program call               : /lustre/hpc/kemi/ree/PhD/git/ReactivityQM/dep/xtb-6.5.1/bin/xtb --gfn 1 /lustre/hpc/kemi/ree/PhD/git/ReactivityQM/calculations/R02methylcation/reac01prodN12/conf02/R02methylcation_reac01prodN12_conf02_gfn1.xyz --opt --vfukui --chrg 0 --uhf 0 --alpb DMSO

   ID    Z sym.   atoms
    1    6 C      1, 3, 5, 7-10, 12, 14, 15, 18, 19, 22, 24
    2    8 O      2, 4, 13, 20, 23, 25
    3    7 N      6, 11, 16, 17, 21
    4    1 H      26-42

      * Solvation model:               ALPB
        Solvent                        DMSO
        Solvent mass                       7.8130E+01 g/mol
          :  Hamiltonian                  GFN1-xTB          :
 * total energy  :   -82.9294093 Eh     change       -0.2153598E-08 Eh
 * total energy  :   -82.9404275 Eh     change       -0.1101826E-01 Eh
 * total energy  :   -82.9446974 Eh     change       -0.4269875E-02 Eh
 * total energy  :   -82.9453963 Eh     change       -0.6988697E-03 Eh
 * total energy  :   -82.9458683 Eh     change       -0.4719854E-03 Eh
 * total energy  :   -82.9462026 Eh     change       -0.3343815E-03 Eh
 * total energy  :   -82.9465484 Eh     change       -0.3457548E-03 Eh
 * total energy  :   -82.9469754 Eh     change       -0.4269931E-03 Eh
 * total energy  :   -82.9474360 Eh     change       -0.4606026E-03 Eh
 * total energy  :   -82.9479165 Eh     change       -0.4805218E-03 Eh
 * total energy  :   -82.9550309 Eh     change       -0.8242558E-05 Eh
 * total energy  :   -82.9550406 Eh     change       -0.9693681E-05 Eh
 * total energy  :   -82.9550490 Eh     change       -0.8387305E-05 Eh
 * total energy  :   -82.9550552 Eh     change       -0.6226094E-05 Eh
 * total energy  :   -82.9550616 Eh     change       -0.6317890E-05 Eh
 * total energy  :   -82.9550679 Eh     change       -0.6299207E-05 Eh
 * total energy  :   -82.9550740 Eh     change       -0.6101337E-05 Eh
 * total energy  :   -82.9550797 Eh     change       -0.5693241E-05 Eh
 * total energy  :   -82.9550828 Eh     change       -0.3191278E-05 Eh
   *** GEOMETRY OPTIMIZATION CONVERGED AFTER 68 ITERATIONS ***

 final structure:
================
42
 xtb: 6.5.1 (579679a)
C            6.60311108913841        1.07289490782766        0.32023398274212
O            5.36174573034421        0.56746112698517        0.80820537696312
C            4.38328134900611        0.42901920892232       -0.09432560008953
O            4.53623191818292        0.71554653165791       -1.26706746114441
C            3.11734929719571       -0.10008057127556        0.45847872446402
N            2.14350368331061       -0.23340196103982       -0.47679463037564
C            0.97652591381378       -0.69302420137385       -0.15487616988420
C           -0.09250393790232       -0.87535072088512       -1.20080192156590
C            0.26902735261727       -0.12413326337130       -2.48240873855447
C           -0.31300367630735       -2.36629896939493       -1.47089635913848
N           -1.36081217322640       -0.34537086448821       -0.65667722654592
C           -1.39952375384648        0.86937458087034       -0.12017275193388
O           -0.45126201627013        1.58982964535685        0.08393854022551
C           -2.84686055707306        1.35021729929264        0.29241979424841
C           -3.16905322205484        2.61092314643881       -0.50800432010243
N           -2.83636299419272        1.55078708684249        1.69985829117397
N           -3.66845392867500        0.72072194127892        2.24415533188387
C           -4.24379765463747        0.00623552021231        1.27889637505022
C           -5.26136865162053       -1.03697941288364        1.45953093335079
O           -3.80351153328426        0.33442223849331        0.08225587764621
N            0.67633636231173       -1.08967195755685        1.11666365526459
C            1.54739958776565       -0.98812867465743        2.18091249894858
O            1.19461430888142       -1.33122077375420        3.29597268904450
C            2.91790904388276       -0.43734065896261        1.83984668725453
O            3.75412117992818       -0.31983185086973        2.73785911627991
H            6.98585330933963        0.43319619109661       -0.47923915810582
H            7.29403711789642        1.07659913696566        1.16140975033587
H            6.47385498117434        2.08754027926755       -0.06566018360499
H           -0.53399203638991       -0.22726529444226       -3.20809439568841
H            0.42621954374279        0.93167788045421       -2.26556586263307
H            1.18660854792831       -0.53985233536211       -2.89628935203482
H            0.60779544842348       -2.81101255134302       -1.84517154163756
H           -0.60911648009703       -2.87676361700711       -0.55657101691695
H           -1.09563805519085       -2.49436225648231       -2.21548604532987
H           -2.21022371268431       -0.83422977025354       -0.87636502640194
H           -4.13521953603983        2.99549343294248       -0.19062086780938
H           -3.20595812500196        2.36427234657795       -1.56606909497761
H           -2.39228926953858        3.35077280780127       -0.32465934867192
H           -5.26585761777897       -1.38617982465031        2.48967196048631
H           -5.07795512244747       -1.86151280911296        0.77257556775120
H           -6.24380994298610       -0.62261861299863        1.22108172252726
H           -0.23895076763880       -1.46235335714050        1.30938919749951

          :  Hamiltonian                  GFN1-xTB          :
         :: total energy             -82.955082847774 Eh    ::
         :: gradient norm              0.000394542929 Eh/a0 ::
         :: HOMO-LUMO gap              0.135457624477 eV    ::
         :: SCC energy               -83.726247912002 Eh    ::
         :: -> Gsolv                  -0.090706921030 Eh    ::
         :: repulsion energy           0.798210739635 Eh    ::

    * Orbital Energies and Occupations

         #    Occupation            Energy/Eh            Energy/eV
      -------------------------------------------------------------
         1        2.0000           -0.8890962             -24.1935
       ...           ...                  ...                  ...
        55        2.0000           -0.5152132             -14.0197
        56        2.0000           -0.5082497             -13.8302
        57        2.0000           -0.5055221             -13.7560
        58        2.0000           -0.4944894             -13.4557
        59        2.0000           -0.4884189             -13.2906
        60        2.0000           -0.4867902             -13.2462
        61        2.0000           -0.4786230             -13.0240
        62        2.0000           -0.4770767             -12.9819
        63        2.0000           -0.4712837             -12.8243
        64        2.0000           -0.4672818             -12.7154
        65        2.0000           -0.4519337             -12.2977
        66        2.0000           -0.4154850             -11.3059
        67        1.8643           -0.4002865             -10.8924 (HOMO)
        68        0.1357           -0.3953086             -10.7569 (LUMO)
        69                         -0.3022403              -8.2244
        70                         -0.2899383              -7.8896
        71                         -0.2782198              -7.5707
        72                         -0.2750822              -7.4854
        73                         -0.2281021              -6.2070
        74                         -0.1571395              -4.2760
        75                         -0.1479661              -4.0264
        76                         -0.1427663              -3.8849
        77                         -0.1397530              -3.8029
        78                         -0.1326957              -3.6108
       ...                                ...                  ...
       134                          0.7452148              20.2783
      -------------------------------------------------------------
                  HL-Gap            0.0049780 Eh            0.1355 eV

Wiberg/Mayer (AO) data.
largest (>0.10) Wiberg bond orders for each atom

     #   Z sym  total        # sym  WBO       # sym  WBO       # sym  WBO
 ---------------------------------------------------------------------------
     1   6 C    3.881 --    27 H    0.986    28 H    0.980    26 H    0.979
                             2 O    0.907
     2   8 O    2.186 --     3 C    1.096     1 C    0.907     4 O    0.127
     3   6 C    3.840 --     4 O    1.622     2 O    1.096     5 C    1.039
     4   8 O    1.870 --     3 C    1.622     2 O    0.127
     5   6 C    3.759 --     6 N    1.267    24 C    1.187     3 C    1.039
     6   7 N    2.993 --     7 C    1.511     5 C    1.267
     7   6 C    3.865 --     6 N    1.511    21 N    1.154     8 C    0.988
     8   6 C    3.922 --     9 C    0.992     7 C    0.988    10 C    0.980
                            11 N    0.894
     9   6 C    3.988 --     8 C    0.992    29 H    0.986    31 H    0.982
                            30 H    0.982
    10   6 C    3.978 --    33 H    0.983    32 H    0.982    34 H    0.981
                             8 C    0.980
    11   7 N    3.359 --    12 C    1.320     8 C    0.894    35 H    0.884
                            13 O    0.173
    12   6 C    3.888 --    13 O    1.633    11 N    1.320    14 C    0.810
    13   8 O    1.981 --    12 C    1.633    11 N    0.173
    14   6 C    3.850 --    16 N    1.063    15 C    0.935    20 O    0.907
                            12 C    0.810
    15   6 C    3.939 --    37 H    0.982    36 H    0.979    38 H    0.979
                            14 C    0.935
    16   7 N    2.758 --    17 N    1.465    14 C    1.063
    17   7 N    2.968 --    16 N    1.465    18 C    1.354
    18   6 C    3.696 --    17 N    1.354    20 O    1.160    19 C    1.054
    19   6 C    3.972 --    18 C    1.054    39 H    0.975    40 H    0.959
                            41 H    0.932
    20   8 O    2.243 --    18 C    1.160    14 C    0.907
    21   7 N    3.442 --     7 C    1.154    22 C    1.127    42 H    0.890
                            23 O    0.121
    22   6 C    3.858 --    23 O    1.630    21 N    1.127    24 C    0.953
    23   8 O    1.883 --    22 C    1.630    21 N    0.121
    24   6 C    3.882 --    25 O    1.591     5 C    1.187    22 C    0.953
    25   8 O    1.790 --    24 C    1.591
    26   1 H    1.009 --     1 C    0.979
    27   1 H    1.012 --     1 C    0.986
    28   1 H    1.008 --     1 C    0.980
    29   1 H    1.000 --     9 C    0.986
    30   1 H    1.007 --     9 C    0.982
    31   1 H    1.007 --     9 C    0.982
    32   1 H    0.998 --    10 C    0.982
    33   1 H    0.998 --    10 C    0.983
    34   1 H    0.995 --    10 C    0.981
    35   1 H    0.928 --    11 N    0.884
    36   1 H    0.994 --    15 C    0.979
    37   1 H    0.995 --    15 C    0.982
    38   1 H    1.000 --    15 C    0.979
    39   1 H    0.993 --    19 C    0.975
    40   1 H    0.986 --    19 C    0.959
    41   1 H    0.977 --    19 C    0.932
    42   1 H    0.939 --    21 N    0.890
 ---------------------------------------------------------------------------

           -------------------------------------------------
          | TOTAL ENERGY              -82.955082847774 Eh   |
          | GRADIENT NORM               0.000394542929 Eh/α |
          | HOMO-LUMO GAP               0.135457624477 eV   |
           -------------------------------------------------

 * finished run on 2023/06/21 at 17:44:49.412
