   * xtb version 6.5.1 (579679a) compiled by 'ehlert@majestix' on 2022-07-11
          program call               : /lustre/hpc/kemi/ree/PhD/git/ReactivityQM/dep/xtb-6.5.1/bin/xtb --gfn 1 /lustre/hpc/kemi/ree/PhD/git/ReactivityQM/calculations/R02methylcation/reac01prodN04/conf13/R02methylcation_reac01prodN04_conf13_gfn1.xyz --opt --vfukui --chrg 0 --uhf 0 --alpb DMSO

   ID    Z sym.   atoms
    1    6 C      1, 3, 5, 6, 8-11, 13, 15, 18, 19, 22, 24
    2    8 O      2, 4, 14, 20, 23, 25
    3    7 N      7, 12, 16, 17, 21
    4    1 H      26-42

      * Solvation model:               ALPB
        Solvent                        DMSO
        Solvent mass                       7.8130E+01 g/mol
          :  Hamiltonian                  GFN1-xTB          :
 * total energy  :   -82.9635459 Eh     change       -0.7617018E-11 Eh
 * total energy  :   -82.9800835 Eh     change       -0.1653752E-01 Eh
 * total energy  :   -82.9860932 Eh     change       -0.6009739E-02 Eh
 * total energy  :   -82.9874481 Eh     change       -0.1354872E-02 Eh
 * total energy  :   -82.9881810 Eh     change       -0.7328973E-03 Eh
 * total energy  :   -82.9885467 Eh     change       -0.3657588E-03 Eh
 * total energy  :   -82.9889079 Eh     change       -0.3611226E-03 Eh
 * total energy  :   -82.9892113 Eh     change       -0.3033927E-03 Eh
 * total energy  :   -82.9894753 Eh     change       -0.2640332E-03 Eh
 * total energy  :   -82.9896728 Eh     change       -0.1974708E-03 Eh
 * total energy  :   -82.9905567 Eh     change       -0.1150721E-04 Eh
 * total energy  :   -82.9905664 Eh     change       -0.9651377E-05 Eh
 * total energy  :   -82.9905718 Eh     change       -0.5476207E-05 Eh
 * total energy  :   -82.9905835 Eh     change       -0.1162441E-04 Eh
 * total energy  :   -82.9905885 Eh     change       -0.5019558E-05 Eh
 * total energy  :   -82.9905961 Eh     change       -0.7611841E-05 Eh
 * total energy  :   -82.9905952 Eh     change        0.9061201E-06 Eh
 * total energy  :   -82.9906018 Eh     change       -0.6623834E-05 Eh
 * total energy  :   -82.9906052 Eh     change       -0.3418533E-05 Eh
   *** GEOMETRY OPTIMIZATION CONVERGED AFTER 36 ITERATIONS ***

 final structure:
================
42
 xtb: 6.5.1 (579679a)
C            5.07399163144911       -1.79462843033163        1.10978850692671
O            3.82376108129918       -1.15916302658174        0.83294831445140
C            3.75730285799452        0.16138769610231        0.81318401423341
O            4.88602641859699        0.75735117001149        1.13148301955895
C            5.25402991163744        2.09140111495575        0.76756424400875
C            2.53169997051641        0.73368175624068        0.44003413177094
N            1.64144727104704       -0.19074596986168       -0.10719123502354
C            0.49149091764830        0.17829439805499       -0.52761948933227
C           -0.43536734180277       -0.85017741834866       -1.15781361605741
C            0.16705605333026       -2.24604435450980       -0.98673763481673
C           -0.62911821350944       -0.54539495642681       -2.64887188476446
N           -1.72579055481472       -0.86037762975138       -0.45408824072153
C           -2.71620962357454        0.04091432856871       -0.58966489565673
O           -2.66756609176224        1.06763324556539       -1.24949076585652
C           -3.90502307494438       -0.35600773530973        0.20566493464364
N           -3.98954092555064       -1.38490462702007        0.99487235338791
N           -5.24075719076023       -1.36609581413266        1.53171189624063
C           -5.84102090700316       -0.32644667258724        1.03474921015262
C           -7.22395606960966        0.12767961355072        1.29818205731160
O           -5.04810919135063        0.35226416370379        0.19323870862025
N            0.06716632158729        1.48464324856772       -0.47516293715886
C            0.78705397729520        2.49521446809443        0.09786864383832
O            0.36871592285870        3.63917817277703        0.11493639271934
C            2.12362178091347        2.08725816462994        0.69656787111400
O            2.73998989850603        2.90007039108532        1.38481740378994
H            4.89457095233951       -2.86448320473253        1.02298955452370
H            5.40993127030485       -1.54890205346332        2.11927342139038
H            5.82757729657171       -1.47682028024587        0.38650822940936
H            5.02420755836977        2.77757048666871        1.58448789639660
H            4.73929321210413        2.40179283971576       -0.14210629841366
H            6.33090535077967        2.06630972529305        0.59763135304856
H            1.12949535230389       -2.29272136512030       -1.49300519206803
H            0.32080732724757       -2.46495719725856        0.06902835504405
H           -0.49798052628189       -2.99261024368496       -1.41640183670700
H           -1.00107533702779        0.46490249539946       -2.80325088662392
H           -1.33655846444939       -1.25272721229837       -3.07784226230215
H            0.32808947578612       -0.64768735049264       -3.15778881993621
H           -1.91270786041367       -1.66598150384002        0.12489798202643
H           -7.68119127782423       -0.51186403411649        2.04984129937365
H           -7.81007038290164        0.08443097460591        0.37950416786299
H           -7.21869320090188        1.16044737480223        1.64710222271668
H           -0.83749657599904        1.72631825171812       -0.87045218912803

          :  Hamiltonian                  GFN1-xTB          :
         :: total energy             -82.990605239259 Eh    ::
         :: gradient norm              0.000735668834 Eh/a0 ::
         :: HOMO-LUMO gap              2.326141941436 eV    ::
         :: SCC energy               -83.767758154812 Eh    ::
         :: -> Gsolv                  -0.053947245359 Eh    ::
         :: repulsion energy           0.802628384604 Eh    ::

    * Orbital Energies and Occupations

         #    Occupation            Energy/Eh            Energy/eV
      -------------------------------------------------------------
         1        2.0000           -0.8652265             -23.5440
       ...           ...                  ...                  ...
        55        2.0000           -0.5071082             -13.7991
        56        2.0000           -0.5041706             -13.7192
        57        2.0000           -0.5001113             -13.6087
        58        2.0000           -0.4913277             -13.3697
        59        2.0000           -0.4844030             -13.1813
        60        2.0000           -0.4725839             -12.8597
        61        2.0000           -0.4677958             -12.7294
        62        2.0000           -0.4646038             -12.6425
        63        2.0000           -0.4546075             -12.3705
        64        2.0000           -0.4543962             -12.3647
        65        2.0000           -0.4426375             -12.0448
        66        2.0000           -0.4203687             -11.4388
        67        2.0000           -0.4126891             -11.2298 (HOMO)
        68                         -0.3272050              -8.9037 (LUMO)
        69                         -0.3133871              -8.5277
        70                         -0.2709407              -7.3727
        71                         -0.2582721              -7.0279
        72                         -0.2485848              -6.7643
        73                         -0.2016644              -5.4876
        74                         -0.1575838              -4.2881
        75                         -0.1473177              -4.0087
        76                         -0.1426992              -3.8830
        77                         -0.1370890              -3.7304
        78                         -0.1290759              -3.5123
       ...                                ...                  ...
       134                          0.7519057              20.4604
      -------------------------------------------------------------
                  HL-Gap            0.0854841 Eh            2.3261 eV

Wiberg/Mayer (AO) data.
largest (>0.10) Wiberg bond orders for each atom

     #   Z sym  total        # sym  WBO       # sym  WBO       # sym  WBO
 ---------------------------------------------------------------------------
     1   6 C    3.862 --    26 H    0.984    27 H    0.978    28 H    0.978
                             2 O    0.889
     2   8 O    2.225 --     3 C    1.143     1 C    0.889
     3   6 C    3.830 --     6 C    1.320     4 O    1.145     2 O    1.143
     4   8 O    2.224 --     3 C    1.145     5 C    0.873
     5   6 C    3.845 --    30 H    0.982    31 H    0.980    29 H    0.969
                             4 O    0.873
     6   6 C    3.923 --     3 C    1.320    24 C    1.181     7 N    1.105
     7   7 N    3.025 --     8 C    1.660     6 C    1.105
     8   6 C    3.934 --     7 N    1.660    21 N    1.116     9 C    0.968
     9   6 C    3.933 --    10 C    1.001    11 C    0.984     8 C    0.968
                            12 N    0.916
    10   6 C    3.992 --     9 C    1.001    34 H    0.985    33 H    0.983
                            32 H    0.982
    11   6 C    3.987 --    37 H    0.985     9 C    0.984    36 H    0.984
                            35 H    0.979
    12   7 N    3.349 --    13 C    1.267     9 C    0.916    38 H    0.893
                            14 O    0.177
    13   6 C    3.916 --    14 O    1.571    12 N    1.267    15 C    0.992
    14   8 O    1.919 --    13 C    1.571    12 N    0.177
    15   6 C    3.876 --    16 N    1.608    20 O    1.065    13 C    0.992
    16   7 N    3.017 --    15 C    1.608    17 N    1.202
    17   7 N    2.981 --    18 C    1.602    16 N    1.202
    18   6 C    3.870 --    17 N    1.602    20 O    1.084    19 C    1.032
    19   6 C    3.986 --    18 C    1.032    39 H    0.982    41 H    0.965
                            40 H    0.961
    20   8 O    2.332 --    18 C    1.084    15 C    1.065
    21   7 N    3.443 --    22 C    1.172     8 C    1.116    42 H    0.859
                            23 O    0.140
    22   6 C    3.889 --    23 O    1.629    21 N    1.172    24 C    0.943
    23   8 O    1.906 --    22 C    1.629    21 N    0.140
    24   6 C    3.919 --    25 O    1.600     6 C    1.181    22 C    0.943
    25   8 O    1.921 --    24 C    1.600
    26   1 H    1.009 --     1 C    0.984
    27   1 H    1.005 --     1 C    0.978
    28   1 H    1.004 --     1 C    0.978
    29   1 H    1.022 --     5 C    0.969
    30   1 H    1.007 --     5 C    0.982
    31   1 H    1.009 --     5 C    0.980
    32   1 H    1.010 --    10 C    0.982
    33   1 H    1.005 --    10 C    0.983
    34   1 H    0.999 --    10 C    0.985
    35   1 H    1.009 --    11 C    0.979
    36   1 H    0.999 --    11 C    0.984
    37   1 H    1.001 --    11 C    0.985
    38   1 H    0.950 --    12 N    0.893
    39   1 H    0.998 --    19 C    0.982
    40   1 H    0.996 --    19 C    0.961
    41   1 H    0.996 --    19 C    0.965
    42   1 H    0.937 --    21 N    0.859
 ---------------------------------------------------------------------------

           -------------------------------------------------
          | TOTAL ENERGY              -82.990605239259 Eh   |
          | GRADIENT NORM               0.000735668834 Eh/α |
          | HOMO-LUMO GAP               2.326141941436 eV   |
           -------------------------------------------------

 * finished run on 2023/06/21 at 17:34:04.370
