   * xtb version 6.5.1 (579679a) compiled by 'ehlert@majestix' on 2022-07-11
          program call               : /lustre/hpc/kemi/ree/PhD/git/ReactivityQM/dep/xtb-6.5.1/bin/xtb --gfn 1 /lustre/hpc/kemi/ree/PhD/git/ReactivityQM/calculations/R02deprot/reac01prodE01/conf12/R02deprot_reac01prodE01_conf12_gfn1.xyz --opt --vfukui --chrg -2 --uhf 0 --alpb DMSO

   ID    Z sym.   atoms
    1    6 C      1, 3, 5, 7-10, 12, 13, 15, 18, 19, 22, 24
    2    8 O      2, 4, 14, 20, 23, 25
    3    7 N      6, 11, 16, 17, 21
    4    1 H      26-42

      * Solvation model:               ALPB
        Solvent                        DMSO
        Solvent mass                       7.8130E+01 g/mol
          :  Hamiltonian                  GFN1-xTB          :
 * total energy  :   -83.6125171 Eh     change       -0.5303491E-10 Eh
 * total energy  :   -83.6257605 Eh     change       -0.1324341E-01 Eh
 * total energy  :   -83.6301106 Eh     change       -0.4350142E-02 Eh
 * total energy  :   -83.6308906 Eh     change       -0.7799372E-03 Eh
 * total energy  :   -83.6312893 Eh     change       -0.3987612E-03 Eh
 * total energy  :   -83.6314689 Eh     change       -0.1795945E-03 Eh
 * total energy  :   -83.6315832 Eh     change       -0.1142792E-03 Eh
 * total energy  :   -83.6316440 Eh     change       -0.6082597E-04 Eh
 * total energy  :   -83.6316796 Eh     change       -0.3557766E-04 Eh
 * total energy  :   -83.6317038 Eh     change       -0.2420105E-04 Eh
 * total energy  :   -83.6317208 Eh     change       -0.1696376E-04 Eh
 * total energy  :   -83.6317394 Eh     change       -0.1863077E-04 Eh
 * total energy  :   -83.6317507 Eh     change       -0.1132489E-04 Eh
 * total energy  :   -83.6317713 Eh     change       -0.2060489E-04 Eh
 * total energy  :   -83.6317773 Eh     change       -0.5988340E-05 Eh
 * total energy  :   -83.6317889 Eh     change       -0.1162137E-04 Eh
 * total energy  :   -83.6317925 Eh     change       -0.3539045E-05 Eh
   *** GEOMETRY OPTIMIZATION CONVERGED AFTER 17 ITERATIONS ***

 final structure:
================
42
 xtb: 6.5.1 (579679a)
C            5.50598880700450        0.78653867834947        1.92961602533999
O            4.32349032383991        0.45527338671486        1.21082772411929
C            4.12690634707027        1.11770922631169        0.05891354088480
O            4.92717230936566        1.95870772765111       -0.33444341611116
C            2.90106863316693        0.73829481377401       -0.65167034429739
N            2.11513759212446       -0.22255453099048       -0.08080735229363
C            1.01380517996620       -0.55067490823566       -0.72839339047889
C            0.14932538151381       -1.67281883080749       -0.15003245624223
C            0.57833910275748       -2.02539749709527        1.27571883144066
C            0.38179764990040       -2.90145686176639       -1.05981213449153
N           -1.27970351979997       -1.35165111566004       -0.26545906359166
C           -1.88584334680191       -0.45232012372921        0.80385378198217
C           -1.24577963972649        0.97842106200719        0.71005215114277
O           -1.90752986568675       -0.95859500152075        2.00705750275077
C           -3.35702643321800       -0.28716375335948        0.25725627534337
N           -4.08748639564888       -1.17761547226906       -0.34216679291266
N           -5.35514795949101       -0.64038899016407       -0.47673746170352
C           -5.30663608701958        0.53312733071983        0.05606886522577
C           -6.40961348067830        1.51818814205717        0.17528759879518
O           -4.08316728001081        0.82266941410166        0.54014209405602
N            0.59244958048203       -0.04597096916135       -1.88884402712843
C            1.31835828190896        0.90578395212510       -2.53090514823000
O            0.96405620513794        1.38926702349556       -3.62318343806906
C            2.55740432343849        1.32066182113157       -1.85319167059959
O            3.30789588096399        2.27008663716530       -2.46686744045514
H            6.39066098950019        0.60803787927493        1.31255103269260
H            5.49002335917259        1.83816357529238        2.22878510128752
H            5.53230391311553        0.14847724039297        2.81129735554966
H            0.56231781028966       -1.14852400720025        1.92230188380247
H            1.59731503966014       -2.41588658948595        1.25886132226137
H           -0.08421506365213       -2.78154560638365        1.69794814629344
H           -0.23886594813932       -3.73439294182647       -0.72884957358160
H            0.11739962786453       -2.65336561131220       -2.08834362617341
H            1.42833258070983       -3.20502882051020       -1.03211323721951
H           -1.39415964111138       -0.87489719665603       -1.16474095000621
H           -0.21412114167739        0.93664031224950        1.05367126553047
H           -1.80423183357460        1.64213562778964        1.36830457037137
H           -1.27734616628483        1.36671956900242       -0.30707202178890
H           -6.66188589254918        1.67869688944227        1.22357271898251
H           -7.28669656518908        1.14771463914974       -0.34963133201871
H           -6.11049192864837        2.47580584597833       -0.24978938036351
H            4.10839926995430        2.46312803395868       -1.93979453009086

          :  Hamiltonian                  GFN1-xTB          :
         :: total energy             -83.631792485435 Eh    ::
         :: gradient norm              0.000798949453 Eh/a0 ::
         :: HOMO-LUMO gap              1.613704712527 eV    ::
         :: SCC energy               -84.355222311019 Eh    ::
         :: -> Gsolv                  -0.278867967790 Eh    ::
         :: repulsion energy           0.750158431894 Eh    ::

    * Orbital Energies and Occupations

         #    Occupation            Energy/Eh            Energy/eV
      -------------------------------------------------------------
         1        2.0000           -0.8127404             -22.1158
       ...           ...                  ...                  ...
        56        2.0000           -0.4395810             -11.9616
        57        2.0000           -0.4324667             -11.7680
        58        2.0000           -0.4269075             -11.6167
        59        2.0000           -0.4137729             -11.2593
        60        2.0000           -0.4079433             -11.1007
        61        2.0000           -0.4026521             -10.9567
        62        2.0000           -0.3985779             -10.8459
        63        2.0000           -0.3839917             -10.4489
        64        2.0000           -0.3552731              -9.6675
        65        2.0000           -0.3530250              -9.6063
        66        2.0000           -0.3512099              -9.5569
        67        2.0000           -0.3361684              -9.1476
        68        2.0000           -0.3280882              -8.9277 (HOMO)
        69                         -0.2687856              -7.3140 (LUMO)
        70                         -0.2206632              -6.0046
        71                         -0.2075074              -5.6466
        72                         -0.2036637              -5.5420
        73                         -0.1771682              -4.8210
        74                         -0.1275710              -3.4714
        75                         -0.1235305              -3.3614
        76                         -0.0941484              -2.5619
        77                         -0.0889279              -2.4199
        78                         -0.0767201              -2.0877
        79                         -0.0699770              -1.9042
       ...                                ...                  ...
       134                          0.7345160              19.9872
      -------------------------------------------------------------
                  HL-Gap            0.0593026 Eh            1.6137 eV

Wiberg/Mayer (AO) data.
largest (>0.10) Wiberg bond orders for each atom

     #   Z sym  total        # sym  WBO       # sym  WBO       # sym  WBO
 ---------------------------------------------------------------------------
     1   6 C    3.889 --    28 H    0.987    26 H    0.980    27 H    0.980
                             2 O    0.914
     2   8 O    2.188 --     3 C    1.088     1 C    0.914     4 O    0.115
     3   6 C    3.831 --     4 O    1.580     2 O    1.088     5 C    1.056
     4   8 O    1.910 --     3 C    1.580     2 O    0.115
     5   6 C    3.964 --    24 C    1.451     6 N    1.208     3 C    1.056
     6   7 N    2.986 --     7 C    1.447     5 C    1.208
     7   6 C    3.947 --     6 N    1.447    21 N    1.360     8 C    0.966
     8   6 C    3.969 --     9 C    1.002    10 C    0.976    11 N    0.972
                             7 C    0.966
     9   6 C    3.997 --     8 C    1.002    30 H    0.986    31 H    0.986
                            29 H    0.980
    10   6 C    3.995 --    34 H    0.988    32 H    0.987    33 H    0.985
                             8 C    0.976
    11   7 N    2.982 --     8 C    0.972    35 H    0.949    12 C    0.874
    12   6 C    3.936 --    14 O    1.202    13 C    0.934    11 N    0.874
                            15 C    0.871
    13   6 C    3.991 --    38 H    0.989    37 H    0.986    36 H    0.983
                            12 C    0.934
    14   8 O    1.519 --    12 C    1.202
    15   6 C    3.792 --    16 N    1.649    20 O    1.043    12 C    0.871
    16   7 N    2.957 --    15 C    1.649    17 N    1.148
    17   7 N    2.975 --    18 C    1.656    16 N    1.148
    18   6 C    3.890 --    17 N    1.656    20 O    1.064    19 C    1.023
    19   6 C    3.994 --    18 C    1.023    40 H    0.985    41 H    0.972
                            39 H    0.969
    20   8 O    2.292 --    18 C    1.064    15 C    1.043
    21   7 N    2.993 --     7 C    1.360    22 C    1.244    23 O    0.127
    22   6 C    3.932 --    23 O    1.481    21 N    1.244    24 C    1.073
    23   8 O    1.770 --    22 C    1.481    21 N    0.127
    24   6 C    3.901 --     5 C    1.451    22 C    1.073    25 O    1.064
    25   8 O    2.042 --    24 C    1.064    42 H    0.811
    26   1 H    1.012 --     1 C    0.980
    27   1 H    1.011 --     1 C    0.980
    28   1 H    1.014 --     1 C    0.987
    29   1 H    1.035 --     9 C    0.980
    30   1 H    1.019 --     9 C    0.986
    31   1 H    1.028 --     9 C    0.986
    32   1 H    1.015 --    10 C    0.987
    33   1 H    1.017 --    10 C    0.985
    34   1 H    1.009 --    10 C    0.988
    35   1 H    1.005 --    11 N    0.949
    36   1 H    1.020 --    13 C    0.983
    37   1 H    1.020 --    13 C    0.986
    38   1 H    1.014 --    13 C    0.989
    39   1 H    1.003 --    19 C    0.969
    40   1 H    1.003 --    19 C    0.985
    41   1 H    1.002 --    19 C    0.972
    42   1 H    0.880 --    25 O    0.811
 ---------------------------------------------------------------------------

           -------------------------------------------------
          | TOTAL ENERGY              -83.631792485435 Eh   |
          | GRADIENT NORM               0.000798949453 Eh/α |
          | HOMO-LUMO GAP               1.613704712527 eV   |
           -------------------------------------------------

 * finished run on 2023/06/20 at 17:32:33.800
