   * xtb version 6.5.1 (579679a) compiled by 'ehlert@majestix' on 2022-07-11
          program call               : /lustre/hpc/kemi/ree/PhD/git/ReactivityQM/dep/xtb-6.5.1/bin/xtb --gfn 1 /lustre/hpc/kemi/ree/PhD/git/ReactivityQM/calculations/R01/reac02prodE07/conf05/R01_reac02prodE07_conf05_gfn1.xyz --opt --vfukui --chrg -1 --uhf 0 --alpb DMSO

   ID    Z sym.   atoms
    1    6 C      1, 3, 5, 6, 8, 10, 12-15
    2    8 O      2, 4, 7, 9
    3    7 N      11, 16, 17
    4    1 H      18-33

      * Solvation model:               ALPB
        Solvent                        DMSO
        Solvent mass                       7.8130E+01 g/mol
          :  Hamiltonian                  GFN1-xTB          :
 * total energy  :   -58.4952459 Eh     change       -0.3844036E-11 Eh
 * total energy  :   -58.5113965 Eh     change       -0.1615061E-01 Eh
 * total energy  :   -58.5159916 Eh     change       -0.4595065E-02 Eh
 * total energy  :   -58.5165580 Eh     change       -0.5664216E-03 Eh
 * total energy  :   -58.5170506 Eh     change       -0.4926416E-03 Eh
 * total energy  :   -58.5174585 Eh     change       -0.4079169E-03 Eh
 * total energy  :   -58.5180004 Eh     change       -0.5418930E-03 Eh
 * total energy  :   -58.5188231 Eh     change       -0.8227000E-03 Eh
 * total energy  :   -58.5199080 Eh     change       -0.1084906E-02 Eh
 * total energy  :   -58.5204917 Eh     change       -0.5836150E-03 Eh
 * total energy  :   -58.5246383 Eh     change       -0.1092794E-04 Eh
 * total energy  :   -58.5246547 Eh     change       -0.1643726E-04 Eh
 * total energy  :   -58.5246616 Eh     change       -0.6834557E-05 Eh
 * total energy  :   -58.5246725 Eh     change       -0.1097046E-04 Eh
 * total energy  :   -58.5246877 Eh     change       -0.1512849E-04 Eh
 * total energy  :   -58.5246951 Eh     change       -0.7425989E-05 Eh
 * total energy  :   -58.5247016 Eh     change       -0.6491458E-05 Eh
 * total energy  :   -58.5247069 Eh     change       -0.5287113E-05 Eh
 * total energy  :   -58.5247115 Eh     change       -0.4632325E-05 Eh
   *** GEOMETRY OPTIMIZATION CONVERGED AFTER 74 ITERATIONS ***

 final structure:
================
33
 xtb: 6.5.1 (579679a)
C            4.49688478640275       -1.34544829047217       -1.84007939110974
O            3.53227017923872       -0.56722555596704       -1.15741413143283
C            2.25327317990156       -1.18769185424346       -1.03881748153589
O            2.10859807913633       -2.32199361289930       -1.54400942807329
C            1.30577131202122       -0.41307354206806       -0.38277738578625
C            1.49290645313996        0.88935304870911        0.25402798203720
O            2.75404103622495        1.38591806372505        0.51296111322804
C            0.42359956263095        1.56614664448539        0.71339543299439
O            0.46972472531450        2.73671338738628        1.45528298147683
C            0.31184198354058        3.94039465688239        0.71386481168022
N           -0.90754858469375        1.10092519566759        0.41296360435798
C           -0.96120229517765       -0.29633462494169        0.17400070985432
C           -2.34780806089801       -0.89443664909505        0.32124837887554
C           -2.26737431931971       -2.42532002635708        0.38358521073347
C           -3.19955843302858       -0.44984930584027       -0.87705789876203
N           -2.95898443829761       -0.35015672109520        1.53940846297884
N            0.01811907399440       -0.98991208436915       -0.23569614850951
H            5.41749170530019       -0.76162435248727       -1.88478135008251
H            4.69362410394148       -2.28868790344523       -1.31425497999598
H            4.16951546814158       -1.57914654050783       -2.86136120402122
H            3.41324544231333        0.84928414744496        0.03655596578553
H            0.30473986881832        4.76153244683312        1.43313760106903
H            1.14074931792975        4.08495517624489        0.00864708336662
H           -0.63302579739926        3.94271771802170        0.15677808885289
H           -1.58062718724149        1.38267198510235        1.12147745509563
H           -3.26581671975997       -2.85288154918044        0.45923104580028
H           -1.68578196321715       -2.73349603647207        1.25231795357950
H           -1.78006069052427       -2.80830647931829       -0.51411096771459
H           -2.75622230758021       -0.80774404917635       -1.80675357589418
H           -3.25317421942709        0.63854536676682       -0.90782308377696
H           -4.21009600554241       -0.84859770808842       -0.79420857998907
H           -2.55301335176343       -0.79598045639319        2.35187893000463
H           -3.94610190411980       -0.56125249485307        1.54468479491195

          :  Hamiltonian                  GFN1-xTB          :
         :: total energy             -58.524711489481 Eh    ::
         :: gradient norm              0.000580433868 Eh/a0 ::
         :: HOMO-LUMO gap              2.279663265210 eV    ::
         :: SCC energy               -59.062655139323 Eh    ::
         :: -> Gsolv                  -0.109980135616 Eh    ::
         :: repulsion energy           0.555913438211 Eh    ::

    * Orbital Energies and Occupations

         #    Occupation            Energy/Eh            Energy/eV
      -------------------------------------------------------------
         1        2.0000           -0.7668398             -20.8668
       ...           ...                  ...                  ...
        36        2.0000           -0.4757944             -12.9470
        37        2.0000           -0.4691625             -12.7666
        38        2.0000           -0.4617662             -12.5653
        39        2.0000           -0.4537857             -12.3481
        40        2.0000           -0.4486006             -12.2070
        41        2.0000           -0.4340539             -11.8112
        42        2.0000           -0.4305334             -11.7154
        43        2.0000           -0.4092500             -11.1363
        44        2.0000           -0.3964395             -10.7877
        45        2.0000           -0.3910465             -10.6409
        46        2.0000           -0.3798094             -10.3351
        47        2.0000           -0.3702403             -10.0748
        48        2.0000           -0.2935971              -7.9892 (HOMO)
        49                         -0.2098210              -5.7095 (LUMO)
        50                         -0.1834176              -4.9910
        51                         -0.1187209              -3.2306
        52                         -0.1084346              -2.9507
        53                         -0.1072444              -2.9183
        54                         -0.1037708              -2.8237
        55                         -0.0909847              -2.4758
        56                         -0.0842954              -2.2938
        57                         -0.0642452              -1.7482
        58                         -0.0592675              -1.6128
        59                         -0.0581291              -1.5818
       ...                                ...                  ...
       100                          0.7281099              19.8129
      -------------------------------------------------------------
                  HL-Gap            0.0837761 Eh            2.2797 eV

Wiberg/Mayer (AO) data.
largest (>0.10) Wiberg bond orders for each atom

     #   Z sym  total        # sym  WBO       # sym  WBO       # sym  WBO
 ---------------------------------------------------------------------------
     1   6 C    3.915 --    18 H    0.987    19 H    0.981    20 H    0.981
                             2 O    0.944
     2   8 O    2.072 --     1 C    0.944     3 C    0.895
     3   6 C    3.868 --     4 O    1.432     5 C    1.387     2 O    0.895
     4   8 O    1.752 --     3 C    1.432     5 C    0.132
     5   6 C    3.844 --     3 C    1.387     6 C    1.084    17 N    1.047
                             4 O    0.132
     6   6 C    3.899 --     8 C    1.650     5 C    1.084     7 O    1.004
     7   8 O    1.972 --     6 C    1.004    21 H    0.827
     8   6 C    3.828 --     6 C    1.650    11 N    0.962     9 O    0.955
     9   8 O    2.019 --     8 C    0.955    10 C    0.934
    10   6 C    3.920 --    22 H    0.986    24 H    0.983    23 H    0.983
                             9 O    0.934
    11   7 N    3.173 --    12 C    1.023     8 C    0.962    25 H    0.918
                            17 N    0.105
    12   6 C    3.945 --    17 N    1.747    11 N    1.023    13 C    0.975
    13   6 C    3.964 --    14 C    0.992    15 C    0.987    12 C    0.975
                            16 N    0.974
    14   6 C    3.997 --    13 C    0.992    26 H    0.988    27 H    0.985
                            28 H    0.983
    15   6 C    3.994 --    29 H    0.987    13 C    0.987    30 H    0.986
                            31 H    0.986
    16   7 N    2.973 --    13 C    0.974    32 H    0.948    33 H    0.948
    17   7 N    3.034 --    12 C    1.747     5 C    1.047    11 N    0.105
    18   1 H    1.019 --     1 C    0.987
    19   1 H    1.021 --     1 C    0.981
    20   1 H    1.022 --     1 C    0.981
    21   1 H    0.892 --     7 O    0.827
    22   1 H    1.019 --    10 C    0.986
    23   1 H    1.017 --    10 C    0.983
    24   1 H    1.015 --    10 C    0.983
    25   1 H    0.985 --    11 N    0.918
    26   1 H    1.006 --    14 C    0.988
    27   1 H    1.011 --    14 C    0.985
    28   1 H    1.018 --    14 C    0.983
    29   1 H    1.008 --    15 C    0.987
    30   1 H    1.011 --    15 C    0.986
    31   1 H    1.003 --    15 C    0.986
    32   1 H    0.965 --    16 N    0.948
    33   1 H    0.963 --    16 N    0.948
 ---------------------------------------------------------------------------

           -------------------------------------------------
          | TOTAL ENERGY              -58.524711489481 Eh   |
          | GRADIENT NORM               0.000580433868 Eh/α |
          | HOMO-LUMO GAP               2.279663265210 eV   |
           -------------------------------------------------

 * finished run on 2023/06/20 at 15:01:54.174
