   * xtb version 6.5.1 (579679a) compiled by 'ehlert@majestix' on 2022-07-11
          program call               : /lustre/hpc/kemi/ree/PhD/git/ReactivityQM/dep/xtb-6.5.1/bin/xtb --gfn 1 /lustre/hpc/kemi/ree/PhD/git/ReactivityQM/calculations/R02/reac01prodE09/conf19/R02_reac01prodE09_conf19_gfn1.xyz --opt --vfukui --chrg -1 --uhf 0 --alpb DMSO

   ID    Z sym.   atoms
    1    6 C      1, 3, 5, 7-10, 12, 14, 16, 17, 20, 22, 24
    2    8 O      2, 4, 13, 15, 23, 25
    3    7 N      6, 11, 18, 19, 21
    4    1 H      26-43

      * Solvation model:               ALPB
        Solvent                        DMSO
        Solvent mass                       7.8130E+01 g/mol
          :  Hamiltonian                  GFN1-xTB          :
 * total energy  :   -83.8309044 Eh     change       -0.6750156E-11 Eh
 * total energy  :   -83.8424560 Eh     change       -0.1155160E-01 Eh
 * total energy  :   -83.8466195 Eh     change       -0.4163499E-02 Eh
 * total energy  :   -83.8474275 Eh     change       -0.8080694E-03 Eh
 * total energy  :   -83.8480951 Eh     change       -0.6675286E-03 Eh
 * total energy  :   -83.8486114 Eh     change       -0.5162974E-03 Eh
 * total energy  :   -83.8495101 Eh     change       -0.8987117E-03 Eh
 * total energy  :   -83.8502708 Eh     change       -0.7607511E-03 Eh
 * total energy  :   -83.8510937 Eh     change       -0.8228729E-03 Eh
 * total energy  :   -83.8520555 Eh     change       -0.9618125E-03 Eh
 * total energy  :   -83.8556227 Eh     change       -0.1458404E-04 Eh
 * total energy  :   -83.8556415 Eh     change       -0.1879941E-04 Eh
 * total energy  :   -83.8556675 Eh     change       -0.2596350E-04 Eh
 * total energy  :   -83.8556906 Eh     change       -0.2311675E-04 Eh
 * total energy  :   -83.8557093 Eh     change       -0.1875656E-04 Eh
 * total energy  :   -83.8557219 Eh     change       -0.1255596E-04 Eh
 * total energy  :   -83.8557275 Eh     change       -0.5588534E-05 Eh
 * total energy  :   -83.8557356 Eh     change       -0.8118052E-05 Eh
 * total energy  :   -83.8557402 Eh     change       -0.4624878E-05 Eh
   *** GEOMETRY OPTIMIZATION CONVERGED AFTER 46 ITERATIONS ***

 final structure:
================
43
 xtb: 6.5.1 (579679a)
C            6.89284761702564        0.04441773387558       -1.07895205344221
O            5.67353888439801        0.67983708245616       -0.68985330400526
C            4.64830634453853       -0.16306485819130       -0.38495695679205
O            4.78547301737210       -1.37321812332387       -0.44560122807828
C            3.41292800430347        0.51842766735571        0.00693660153625
N            2.38437058110037       -0.35647834262255        0.29321252110255
C            1.23597486576684        0.10285020579501        0.65243252827185
C            0.10888860983875       -0.83825873494193        1.03341407916116
C            0.19459333366743       -1.02552765554901        2.55860696815334
C            0.28580110240616       -2.17987469941333        0.30708436584235
N           -1.13935014123511       -0.17106846247420        0.66444697283496
C           -2.37071015724004       -0.90689535561070        0.83151040241496
O           -2.47984716171484       -1.83003114305219        1.68596898156441
C           -3.41382783476245       -0.40661489265905        0.08562727657291
O           -3.27842212042528        0.54452442731280       -0.94362979322646
C           -4.46974774507612        0.54135721934536       -1.56609160877049
C           -4.67740396893866        1.47362984381061       -2.70574041511016
N           -5.34134230544635       -0.27755369082344       -1.11386523836417
N           -4.71400558806336       -1.00876269845572       -0.06669966722875
C           -5.54876992180502       -0.99753532433039        1.13963621706216
N            0.99489277726269        1.44042500984421        0.77912837833368
C            1.94031411467985        2.42375584196305        0.52573361874656
O            1.65008931136608        3.61179873814211        0.66244242359787
C            3.22218707438239        1.89087778341132        0.11469072361370
O            4.16809076646929        2.82784672198411       -0.13711877389528
H            6.73502686995337       -0.55932572056068       -1.97687584031890
H            7.61144908252098        0.83526875500745       -1.28232064471753
H            7.25928534887692       -0.59793227608259       -0.27351962300369
H           -0.52901962575059       -1.76537851442456        2.89523119810142
H            1.19592486710361       -1.36066078686192        2.82846815325202
H           -0.00865398250236       -0.07879734451352        3.05752337837861
H           -0.48552908267093       -2.88072321692480        0.62307918252652
H            1.26548694956134       -2.59616279033553        0.54035987054395
H            0.21608781839833       -2.03202330345179       -0.77011826282112
H           -1.08495302667104        0.19213968306859       -0.28217476622925
H           -4.48296294261006        2.49763924841867       -2.38802704706574
H           -5.69985583310938        1.39194211628239       -3.06627234889623
H           -3.98782869185036        1.23444504410327       -3.51535376243788
H           -5.71471474061648        0.02273416986617        1.49841752015330
H           -5.03145084159089       -1.57887138433159        1.90262580246157
H           -6.50418462994010       -1.46308371778064        0.90362998858366
H            0.07163587348144        1.74540607343719        1.05750013000452
H            5.00938612754957        2.42852167123800       -0.41265294841680

          :  Hamiltonian                  GFN1-xTB          :
         :: total energy             -83.855740235298 Eh    ::
         :: gradient norm              0.000777281284 Eh/a0 ::
         :: HOMO-LUMO gap              0.086790511477 eV    ::
         :: SCC energy               -84.616019635242 Eh    ::
         :: -> Gsolv                  -0.109161438114 Eh    ::
         :: repulsion energy           0.786089349000 Eh    ::

    * Orbital Energies and Occupations

         #    Occupation            Energy/Eh            Energy/eV
      -------------------------------------------------------------
         1        2.0000           -0.8189074             -22.2836
       ...           ...                  ...                  ...
        56        2.0000           -0.4757734             -12.9465
        57        2.0000           -0.4683790             -12.7452
        58        2.0000           -0.4590093             -12.4903
        59        2.0000           -0.4569067             -12.4331
        60        2.0000           -0.4443251             -12.0907
        61        2.0000           -0.4351542             -11.8411
        62        2.0000           -0.4316390             -11.7455
        63        2.0000           -0.4220842             -11.4855
        64        2.0000           -0.4071676             -11.0796
        65        2.0000           -0.4039633             -10.9924
        66        2.0000           -0.4015641             -10.9271
        67        2.0000           -0.3854238             -10.4879
        68        1.6854           -0.3062951              -8.3347 (HOMO)
        69        0.3146           -0.3031057              -8.2479 (LUMO)
        70                         -0.2526567              -6.8751
        71                         -0.2256759              -6.1410
        72                         -0.2147018              -5.8423
        73                         -0.1527016              -4.1552
        74                         -0.1311998              -3.5701
        75                         -0.1284902              -3.4964
        76                         -0.1277862              -3.4772
        77                         -0.1039877              -2.8297
        78                         -0.1025251              -2.7899
        79                         -0.1003781              -2.7314
       ...                                ...                  ...
       136                          0.7152051              19.4617
      -------------------------------------------------------------
                  HL-Gap            0.0031895 Eh            0.0868 eV

Wiberg/Mayer (AO) data.
largest (>0.10) Wiberg bond orders for each atom

     #   Z sym  total        # sym  WBO       # sym  WBO       # sym  WBO
 ---------------------------------------------------------------------------
     1   6 C    3.879 --    27 H    0.987    28 H    0.981    26 H    0.981
                             2 O    0.903
     2   8 O    2.153 --     3 C    1.033     1 C    0.903     4 O    0.112
     3   6 C    3.773 --     4 O    1.604     5 C    1.070     2 O    1.033
     4   8 O    1.839 --     3 C    1.604     2 O    0.112
     5   6 C    3.878 --    24 C    1.406     6 N    1.158     3 C    1.070
     6   7 N    3.008 --     7 C    1.595     5 C    1.158
     7   6 C    3.907 --     6 N    1.595    21 N    1.160     8 C    0.978
     8   6 C    3.960 --    10 C    0.988     7 C    0.978     9 C    0.976
                            11 N    0.963
     9   6 C    3.991 --    30 H    0.988    31 H    0.986     8 C    0.976
                            29 H    0.976
    10   6 C    3.993 --     8 C    0.988    34 H    0.987    33 H    0.985
                            32 H    0.983
    11   7 N    3.081 --    12 C    0.977     8 C    0.963    35 H    0.930
    12   6 C    3.871 --    14 C    1.409    13 O    1.374    11 N    0.977
    13   8 O    1.687 --    12 C    1.374    14 C    0.123
    14   6 C    3.551 --    12 C    1.409    19 N    0.982    15 O    0.912
                            13 O    0.123
    15   8 O    2.180 --    16 C    1.068    14 C    0.912    18 N    0.113
    16   6 C    3.896 --    18 N    1.708    15 O    1.068    17 C    1.020
    17   6 C    3.993 --    16 C    1.020    37 H    0.986    36 H    0.971
                            38 H    0.969
    18   7 N    2.933 --    16 C    1.708    19 N    1.006    15 O    0.113
    19   7 N    3.078 --    18 N    1.006    14 C    0.982    20 C    0.951
    20   6 C    3.954 --    41 H    0.989    40 H    0.985    39 H    0.983
                            19 N    0.951
    21   7 N    3.395 --     7 C    1.160    22 C    1.093    42 H    0.886
                            23 O    0.118
    22   6 C    3.866 --    23 O    1.538    24 C    1.120    21 N    1.093
    23   8 O    1.811 --    22 C    1.538    21 N    0.118
    24   6 C    3.803 --     5 C    1.406    22 C    1.120    25 O    1.066
    25   8 O    2.026 --    24 C    1.066    43 H    0.813
    26   1 H    1.010 --     1 C    0.981
    27   1 H    1.012 --     1 C    0.987
    28   1 H    1.010 --     1 C    0.981
    29   1 H    1.025 --     9 C    0.976
    30   1 H    1.007 --     9 C    0.988
    31   1 H    1.008 --     9 C    0.986
    32   1 H    1.016 --    10 C    0.983
    33   1 H    1.015 --    10 C    0.985
    34   1 H    1.006 --    10 C    0.987
    35   1 H    0.969 --    11 N    0.930
    36   1 H    1.001 --    17 C    0.971
    37   1 H    1.003 --    17 C    0.986
    38   1 H    1.002 --    17 C    0.969
    39   1 H    1.009 --    20 C    0.983
    40   1 H    1.029 --    20 C    0.985
    41   1 H    1.019 --    20 C    0.989
    42   1 H    0.950 --    21 N    0.886
    43   1 H    0.867 --    25 O    0.813
 ---------------------------------------------------------------------------

           -------------------------------------------------
          | TOTAL ENERGY              -83.855740235298 Eh   |
          | GRADIENT NORM               0.000777281284 Eh/α |
          | HOMO-LUMO GAP               0.086790511477 eV   |
           -------------------------------------------------

 * finished run on 2023/06/20 at 15:09:41.763
