   * xtb version 6.5.1 (579679a) compiled by 'ehlert@majestix' on 2022-07-11
          program call               : /lustre/hpc/kemi/ree/PhD/git/ReactivityQM/dep/xtb-6.5.1/bin/xtb --gfn 1 /lustre/hpc/kemi/ree/PhD/git/ReactivityQM/calculations/R01/reac01prodE04/conf02/R01_reac01prodE04_conf02_gfn1.xyz --opt --vfukui --chrg -1 --uhf 0 --alpb DMSO

   ID    Z sym.   atoms
    1    6 C      1, 3, 5, 7, 8, 11
    2    8 O      2, 4, 6
    3    7 N      9, 10
    4    1 H      12-20

      * Solvation model:               ALPB
        Solvent                        DMSO
        Solvent mass                       7.8130E+01 g/mol
          :  Hamiltonian                  GFN1-xTB          :
 * total energy  :   -38.2886702 Eh     change       -0.5371703E-11 Eh
 * total energy  :   -38.3029764 Eh     change       -0.1430622E-01 Eh
 * total energy  :   -38.3067738 Eh     change       -0.3797421E-02 Eh
 * total energy  :   -38.3081269 Eh     change       -0.1353085E-02 Eh
 * total energy  :   -38.3113287 Eh     change       -0.3201806E-02 Eh
 * total energy  :   -38.3131373 Eh     change       -0.1808582E-02 Eh
 * total energy  :   -38.3174100 Eh     change       -0.4272682E-02 Eh
 * total energy  :   -38.3166862 Eh     change        0.7237741E-03 Eh
 * total energy  :   -38.3196297 Eh     change       -0.2943508E-02 Eh
 * total energy  :   -38.3202469 Eh     change       -0.6171841E-03 Eh
 * total energy  :   -38.3246728 Eh     change       -0.5396651E-04 Eh
 * total energy  :   -38.3247088 Eh     change       -0.3602143E-04 Eh
 * total energy  :   -38.3247396 Eh     change       -0.3071365E-04 Eh
 * total energy  :   -38.3247590 Eh     change       -0.1940398E-04 Eh
 * total energy  :   -38.3247726 Eh     change       -0.1367035E-04 Eh
 * total energy  :   -38.3247797 Eh     change       -0.7096451E-05 Eh
 * total energy  :   -38.3247888 Eh     change       -0.9093699E-05 Eh
 * total energy  :   -38.3247956 Eh     change       -0.6803292E-05 Eh
 * total energy  :   -38.3247998 Eh     change       -0.4189167E-05 Eh
   *** GEOMETRY OPTIMIZATION CONVERGED AFTER 36 ITERATIONS ***

 final structure:
================
20
 xtb: 6.5.1 (579679a)
C            3.60359000650665       -0.23666545701364       -0.45066907208705
O            2.23660483979235        0.10349865556486       -0.52775593663376
C            1.37053149633449       -0.77690538265004        0.19890268613242
O            1.87621562614688       -1.76109203440281        0.79378148105115
C            0.10151771329704       -0.26076463203321        0.28432300416183
O           -1.00294275935391       -1.04372595092571        0.74559986452362
C           -2.06112723471092       -0.54746114263646        0.10066512530093
C           -3.39541892649077       -1.16553898154505        0.34660964518004
N           -1.86120519978664        0.43656806878648       -0.69070707141624
N           -0.44927222960552        0.73698446825400       -0.63930304130376
C           -0.32017128624159        2.10574883786057       -0.11157609918006
H            4.15748882255123        0.49883856280397       -1.03800962379431
H            3.79564891156264       -1.23814827328432       -0.86024399923318
H            3.96809469726532       -0.21358612287097        0.58553993627939
H           -4.16411840112113       -0.59633230903413       -0.17059866628385
H           -3.60801101282006       -1.17547355514234        1.41492351292027
H           -3.40836994649811       -2.19548070547165       -0.01040354732126
H            0.74193249836116        2.33706494554984       -0.05160603920225
H           -0.80852429895049        2.79381825920830       -0.80066999361546
H           -0.77246331623837        2.19865274898250        0.88119883452113

          :  Hamiltonian                  GFN1-xTB          :
         :: total energy             -38.324799811168 Eh    ::
         :: gradient norm              0.000769007111 Eh/a0 ::
         :: HOMO-LUMO gap              2.439036135346 eV    ::
         :: SCC energy               -38.639046944556 Eh    ::
         :: -> Gsolv                  -0.102667065730 Eh    ::
         :: repulsion energy           0.322678031512 Eh    ::

    * Orbital Energies and Occupations

         #    Occupation            Energy/Eh            Energy/eV
      -------------------------------------------------------------
         1        2.0000           -0.7807298             -21.2447
       ...           ...                  ...                  ...
        19        2.0000           -0.5081609             -13.8278
        20        2.0000           -0.5035706             -13.7029
        21        2.0000           -0.4890814             -13.3086
        22        2.0000           -0.4832912             -13.1510
        23        2.0000           -0.4754622             -12.9380
        24        2.0000           -0.4680848             -12.7372
        25        2.0000           -0.4522217             -12.3056
        26        2.0000           -0.4256679             -11.5830
        27        2.0000           -0.4212383             -11.4625
        28        2.0000           -0.4156389             -11.3101
        29        2.0000           -0.3880903             -10.5605
        30        2.0000           -0.3849907             -10.4761
        31        2.0000           -0.2983203              -8.1177 (HOMO)
        32                         -0.2086874              -5.6787 (LUMO)
        33                         -0.1401286              -3.8131
        34                         -0.1234886              -3.3603
        35                         -0.1058552              -2.8805
        36                         -0.0930660              -2.5325
        37                         -0.0569444              -1.5495
        38                         -0.0561317              -1.5274
        39                         -0.0450955              -1.2271
        40                         -0.0423139              -1.1514
        41                         -0.0419335              -1.1411
        42                         -0.0373772              -1.0171
       ...                                ...                  ...
        62                          0.6989014              19.0181
      -------------------------------------------------------------
                  HL-Gap            0.0896329 Eh            2.4390 eV

Wiberg/Mayer (AO) data.
largest (>0.10) Wiberg bond orders for each atom

     #   Z sym  total        # sym  WBO       # sym  WBO       # sym  WBO
 ---------------------------------------------------------------------------
     1   6 C    3.923 --    12 H    0.986    14 H    0.981    13 H    0.980
                             2 O    0.957
     2   8 O    2.030 --     1 C    0.957     3 C    0.887
     3   6 C    3.879 --     5 C    1.484     4 O    1.392     2 O    0.887
     4   8 O    1.719 --     3 C    1.392     5 C    0.173
     5   6 C    3.631 --     3 C    1.484    10 N    0.950     6 O    0.875
                             4 O    0.173
     6   8 O    2.186 --     7 C    1.096     5 C    0.875     9 N    0.135
     7   6 C    3.908 --     9 N    1.708     6 O    1.096     8 C    1.014
     8   6 C    3.995 --     7 C    1.014    15 H    0.987    16 H    0.974
                            17 H    0.972
     9   7 N    2.944 --     7 C    1.708    10 N    0.984     6 O    0.135
    10   7 N    3.056 --     9 N    0.984    11 C    0.970     5 C    0.950
    11   6 C    3.982 --    19 H    0.989    18 H    0.987    20 H    0.984
                            10 N    0.970
    12   1 H    1.021 --     1 C    0.986
    13   1 H    1.024 --     1 C    0.980
    14   1 H    1.022 --     1 C    0.981
    15   1 H    1.006 --     8 C    0.987
    16   1 H    1.003 --     8 C    0.974
    17   1 H    1.004 --     8 C    0.972
    18   1 H    1.032 --    11 C    0.987
    19   1 H    1.024 --    11 C    0.989
    20   1 H    1.021 --    11 C    0.984
 ---------------------------------------------------------------------------

           -------------------------------------------------
          | TOTAL ENERGY              -38.324799811168 Eh   |
          | GRADIENT NORM               0.000769007111 Eh/α |
          | HOMO-LUMO GAP               2.439036135346 eV   |
           -------------------------------------------------

 * finished run on 2023/06/20 at 14:53:37.618
