   * xtb version 6.5.1 (579679a) compiled by 'ehlert@majestix' on 2022-07-11
          program call               : /lustre/hpc/kemi/ree/PhD/git/ReactivityQM/dep/xtb-6.5.1/bin/xtb --gfn 1 /lustre/hpc/kemi/ree/PhD/git/ReactivityQM/calculations/R01/reac02prodE04/conf12/R01_reac02prodE04_conf12_gfn1.xyz --opt --vfukui --chrg -1 --uhf 0 --alpb DMSO

   ID    Z sym.   atoms
    1    6 C      1, 3, 5, 6, 8, 11-14, 17
    2    8 O      2, 4, 7, 9
    3    7 N      10, 15, 16
    4    1 H      18-33

      * Solvation model:               ALPB
        Solvent                        DMSO
        Solvent mass                       7.8130E+01 g/mol
          :  Hamiltonian                  GFN1-xTB          :
 * total energy  :   -58.4741829 Eh     change       -0.2527401E-10 Eh
 * total energy  :   -58.4888331 Eh     change       -0.1465023E-01 Eh
 * total energy  :   -58.4980823 Eh     change       -0.9249217E-02 Eh
 * total energy  :   -58.4998670 Eh     change       -0.1784690E-02 Eh
 * total energy  :   -58.5017521 Eh     change       -0.1885120E-02 Eh
 * total energy  :   -58.5026594 Eh     change       -0.9072181E-03 Eh
 * total energy  :   -58.5039443 Eh     change       -0.1284918E-02 Eh
 * total energy  :   -58.5050595 Eh     change       -0.1115194E-02 Eh
 * total energy  :   -58.5061869 Eh     change       -0.1127393E-02 Eh
 * total energy  :   -58.5070212 Eh     change       -0.8343582E-03 Eh
 * total energy  :   -58.5097804 Eh     change       -0.6941619E-04 Eh
 * total energy  :   -58.5098238 Eh     change       -0.4341323E-04 Eh
 * total energy  :   -58.5098591 Eh     change       -0.3529280E-04 Eh
 * total energy  :   -58.5098834 Eh     change       -0.2437297E-04 Eh
 * total energy  :   -58.5098985 Eh     change       -0.1508685E-04 Eh
 * total energy  :   -58.5099197 Eh     change       -0.2121182E-04 Eh
 * total energy  :   -58.5099283 Eh     change       -0.8593294E-05 Eh
 * total energy  :   -58.5099459 Eh     change       -0.1760364E-04 Eh
 * total energy  :   -58.5099502 Eh     change       -0.4241291E-05 Eh
   *** GEOMETRY OPTIMIZATION CONVERGED AFTER 26 ITERATIONS ***

 final structure:
================
33
 xtb: 6.5.1 (579679a)
C            4.87308898807743        0.09885178160687        0.71059646179832
O            3.72197086641204       -0.37798529141554        0.04231920234709
C            2.53915227648797        0.34768589669263        0.32746644597305
O            2.61417735606177        1.31352411909903        1.12854855129142
C            1.43711939593042       -0.13337673041868       -0.35432670918782
C            1.40697746534708       -1.28807370314377       -1.27853965786719
O            2.42911942728594       -1.39779990634786       -2.25489905573899
C            0.31375831117394       -2.08136447781999       -1.32880046087558
O           -0.07660762121530       -3.04224204538437       -2.04151004354624
N           -0.69772051012901       -1.65115969751803       -0.26804268147197
C           -0.91641018344648       -0.32871499023801       -0.09845916914568
C           -2.33995427401831        0.15871143532904        0.17197147953752
C           -3.38385083273082       -0.94112666859551       -0.08094354550200
C           -2.45992878971895        0.61184561431116        1.63449544757548
N           -2.64257785451236        1.29265777428724       -0.70723844170307
N            0.14722371485215        0.44645968104586       -0.09652399998455
C            0.11564440617966        1.88817757797612        0.13907266546904
H            4.73599402133242        0.08954812657926        1.79930136474123
H            5.11940917941279        1.12295590651748        0.40223519190708
H            5.70099703315693       -0.56213188513548        0.45052122274342
H            3.28824885127388       -1.33107786262953       -1.81111505456564
H           -1.52437277093745       -2.22513733473136       -0.34219996346180
H           -3.29681518006571       -1.33864743835553       -1.09126727976958
H           -4.37600348467253       -0.50618171005786        0.02727495372824
H           -3.28963110329539       -1.75193930978028        0.64027990947529
H           -3.49528203507688        0.86865389921645        1.85191083716769
H           -1.84196967746694        1.48547209747467        1.83121849285687
H           -2.15412678247432       -0.19553562326340        2.29929389196157
H           -3.50380998357976        1.71627091038321       -0.39644496310165
H           -2.79976861460515        0.95618959346157       -1.64833199848241
H            0.91305346362295        2.35693693312542       -0.43723569539718
H            0.28287096465545        2.09462018563071        1.19768120049797
H           -0.83997902331849        2.30393214209977       -0.17118459927019

          :  Hamiltonian                  GFN1-xTB          :
         :: total energy             -58.509950169814 Eh    ::
         :: gradient norm              0.000917160355 Eh/a0 ::
         :: HOMO-LUMO gap              1.066275066202 eV    ::
         :: SCC energy               -59.053378211548 Eh    ::
         :: -> Gsolv                  -0.122943694574 Eh    ::
         :: repulsion energy           0.563047069828 Eh    ::

    * Orbital Energies and Occupations

         #    Occupation            Energy/Eh            Energy/eV
      -------------------------------------------------------------
         1        2.0000           -0.7825927             -21.2954
       ...           ...                  ...                  ...
        36        2.0000           -0.4834723             -13.1560
        37        2.0000           -0.4757688             -12.9463
        38        2.0000           -0.4749241             -12.9233
        39        2.0000           -0.4651174             -12.6565
        40        2.0000           -0.4584098             -12.4740
        41        2.0000           -0.4354331             -11.8487
        42        2.0000           -0.4329521             -11.7812
        43        2.0000           -0.4152650             -11.2999
        44        2.0000           -0.4066760             -11.0662
        45        2.0000           -0.3986269             -10.8472
        46        2.0000           -0.3765987             -10.2478
        47        2.0000           -0.3526627              -9.5964
        48        2.0000           -0.2890163              -7.8645 (HOMO)
        49                         -0.2498314              -6.7983 (LUMO)
        50                         -0.1571519              -4.2763
        51                         -0.1217429              -3.3128
        52                         -0.1187842              -3.2323
        53                         -0.1134635              -3.0875
        54                         -0.1083164              -2.9474
        55                         -0.1010989              -2.7510
        56                         -0.0989988              -2.6939
        57                         -0.0733651              -1.9964
        58                         -0.0646688              -1.7597
        59                         -0.0534632              -1.4548
       ...                                ...                  ...
       100                          0.7796151              21.2144
      -------------------------------------------------------------
                  HL-Gap            0.0391849 Eh            1.0663 eV

Wiberg/Mayer (AO) data.
largest (>0.10) Wiberg bond orders for each atom

     #   Z sym  total        # sym  WBO       # sym  WBO       # sym  WBO
 ---------------------------------------------------------------------------
     1   6 C    3.916 --    20 H    0.987    19 H    0.981    18 H    0.981
                             2 O    0.947
     2   8 O    2.070 --     1 C    0.947     3 C    0.915
     3   6 C    3.880 --     5 C    1.422     4 O    1.392     2 O    0.915
     4   8 O    1.751 --     3 C    1.392     5 C    0.140
     5   6 C    3.771 --     3 C    1.422     6 C    1.028    16 N    0.954
                             4 O    0.140
     6   6 C    3.808 --     8 C    1.576     5 C    1.028     7 O    0.937
                             9 O    0.188
     7   8 O    1.898 --     6 C    0.937    21 H    0.865
     8   6 C    3.895 --     6 C    1.576     9 O    1.381    10 N    0.784
     9   8 O    1.725 --     8 C    1.381     6 C    0.188
    10   7 N    3.273 --    11 C    1.253    22 H    0.916     8 C    0.784
                            16 N    0.128
    11   6 C    3.934 --    16 N    1.442    10 N    1.253    12 C    0.971
    12   6 C    3.966 --    13 C    0.994    14 C    0.987    15 N    0.977
                            11 C    0.971
    13   6 C    3.995 --    12 C    0.994    24 H    0.982    23 H    0.982
                            25 H    0.982
    14   6 C    3.995 --    12 C    0.987    28 H    0.986    26 H    0.984
                            27 H    0.982
    15   7 N    2.991 --    12 C    0.977    29 H    0.943    30 H    0.943
    16   7 N    3.555 --    11 C    1.442     5 C    0.954    17 C    0.941
                            10 N    0.128
    17   6 C    3.945 --    31 H    0.983    32 H    0.974    33 H    0.971
                            16 N    0.941
    18   1 H    1.022 --     1 C    0.981
    19   1 H    1.020 --     1 C    0.981
    20   1 H    1.019 --     1 C    0.987
    21   1 H    0.914 --     7 O    0.865
    22   1 H    0.972 --    10 N    0.916
    23   1 H    1.002 --    13 C    0.982
    24   1 H    1.004 --    13 C    0.982
    25   1 H    1.001 --    13 C    0.982
    26   1 H    1.001 --    14 C    0.984
    27   1 H    1.006 --    14 C    0.982
    28   1 H    1.004 --    14 C    0.986
    29   1 H    0.958 --    15 N    0.943
    30   1 H    0.959 --    15 N    0.943
    31   1 H    1.019 --    17 C    0.983
    32   1 H    1.030 --    17 C    0.974
    33   1 H    1.031 --    17 C    0.971
 ---------------------------------------------------------------------------

           -------------------------------------------------
          | TOTAL ENERGY              -58.509950169814 Eh   |
          | GRADIENT NORM               0.000917160355 Eh/α |
          | HOMO-LUMO GAP               1.066275066202 eV   |
           -------------------------------------------------

 * finished run on 2023/06/20 at 14:59:06.786
