   * xtb version 6.5.1 (579679a) compiled by 'ehlert@majestix' on 2022-07-11
          program call               : /lustre/hpc/kemi/ree/PhD/git/ReactivityQM/dep/xtb-6.5.1/bin/xtb --gfn 1 /lustre/hpc/kemi/ree/PhD/git/ReactivityQM/calculations/R02deprot/reac01prodE07/conf04/R02deprot_reac01prodE07_conf04_gfn1.xyz --opt --vfukui --chrg -2 --uhf 0 --alpb DMSO

   ID    Z sym.   atoms
    1    6 C      1, 3, 5, 7-10, 12, 14, 15, 18, 19, 22, 24
    2    8 O      2, 4, 13, 20, 23, 25
    3    7 N      6, 11, 16, 17, 21
    4    1 H      26-42

      * Solvation model:               ALPB
        Solvent                        DMSO
        Solvent mass                       7.8130E+01 g/mol
          :  Hamiltonian                  GFN1-xTB          :
 * total energy  :   -83.5648872 Eh     change       -0.2136474E-08 Eh
 * total energy  :   -83.5796936 Eh     change       -0.1480637E-01 Eh
 * total energy  :   -83.5863112 Eh     change       -0.6617634E-02 Eh
 * total energy  :   -83.5878414 Eh     change       -0.1530195E-02 Eh
 * total energy  :   -83.5889718 Eh     change       -0.1130372E-02 Eh
 * total energy  :   -83.5894299 Eh     change       -0.4581137E-03 Eh
 * total energy  :   -83.5897574 Eh     change       -0.3274302E-03 Eh
 * total energy  :   -83.5900476 Eh     change       -0.2902526E-03 Eh
 * total energy  :   -83.5903994 Eh     change       -0.3518352E-03 Eh
 * total energy  :   -83.5908059 Eh     change       -0.4064409E-03 Eh
 * total energy  :   -83.5977051 Eh     change       -0.1899667E-04 Eh
 * total energy  :   -83.5977114 Eh     change       -0.6355923E-05 Eh
 * total energy  :   -83.5977316 Eh     change       -0.2013158E-04 Eh
 * total energy  :   -83.5977410 Eh     change       -0.9417308E-05 Eh
 * total energy  :   -83.5977544 Eh     change       -0.1337990E-04 Eh
 * total energy  :   -83.5977680 Eh     change       -0.1364931E-04 Eh
 * total energy  :   -83.5977779 Eh     change       -0.9931736E-05 Eh
 * total energy  :   -83.5977845 Eh     change       -0.6552156E-05 Eh
 * total energy  :   -83.5977894 Eh     change       -0.4911559E-05 Eh
   *** GEOMETRY OPTIMIZATION CONVERGED AFTER 79 ITERATIONS ***

 final structure:
================
42
 xtb: 6.5.1 (579679a)
C           -5.49413116967708       -0.27879639489171       -3.16052430904919
O           -4.75290216263416        0.47641738234387       -2.20335575873240
C           -3.70635763377256       -0.17070527373526       -1.62800522132580
O           -3.44270401908702       -1.31806890021937       -1.93051009710518
C           -2.96531374755344        0.63670491490463       -0.64077183239511
N           -1.88561415594299       -0.01622473990264       -0.11373500519585
C           -1.16404183784356        0.61941996985418        0.78816639105505
C            0.04241588438881       -0.11089439578302        1.37208142874537
C            0.04814116333643       -1.58144143047732        0.92692630783024
C           -0.02239205677230       -0.01697493574182        2.90277150799312
N            1.25979680416718        0.59479934394450        0.89763882028488
C            2.49992735652422       -0.02274242933314        1.33117540647187
O            3.03825780628980        0.50632213360471        2.52620526164769
C            3.86012534758002        1.65401439112232        2.36841261067778
C            3.33934860507290       -0.63336743225964        0.43105253145863
N            4.63035033113983       -1.00879811964395        0.60315030198906
N            4.98111320198380       -1.69491875049464       -0.54580240544817
C            3.96023424058865       -1.71464979505499       -1.32597690874876
C            3.86333145380106       -2.33526776129221       -2.67497049211059
O            2.86503289492262       -1.07043664586876       -0.79990082642268
N           -1.38540521593453        1.84873372045034        1.25120909292552
C           -2.43391892601812        2.57275707611263        0.78507224132364
O           -2.67691167509963        3.72565356597064        1.19537984101805
C           -3.27151975698764        1.91683388498187       -0.23273478487634
O           -4.31889384368656        2.65872414882091       -0.68694013278921
H           -6.29306973028510        0.36398967430807       -3.52266780350153
H           -4.84865097517804       -0.57798251378797       -3.99076789238600
H           -5.91564627997055       -1.17322719185340       -2.69410588118216
H            0.14545956577289       -1.64404625935835       -0.15706537442354
H            0.88471832130668       -2.10881395685727        1.38701019782666
H           -0.88254545584268       -2.06648168218991        1.22127671787333
H            0.83896867442236       -0.50904582969412        3.35466660834548
H           -0.02949879448723        1.03158333605278        3.20543274922625
H           -0.93113360760562       -0.49503272332699        3.26981344874249
H            1.23771856857852        0.58110112269656       -0.12276506025103
H            4.75845746700418        1.41995639922318        1.77805548499513
H            3.31945328549199        2.47549709519099        1.87567375422121
H            4.16858041236842        1.98096743021715        3.36516445368594
H            4.82669493915728       -2.76498979600830       -2.94234834946341
H            3.10790477018021       -3.12327219899461       -2.68862304654807
H            3.58601319501257       -1.59152358205206       -3.42410619898733
H           -4.84139224471110        2.18619414902973       -1.35065977743394

          :  Hamiltonian                  GFN1-xTB          :
         :: total energy             -83.597789410139 Eh    ::
         :: gradient norm              0.000373065511 Eh/a0 ::
         :: HOMO-LUMO gap              0.256281922010 eV    ::
         :: SCC energy               -84.321776738972 Eh    ::
         :: -> Gsolv                  -0.273746322806 Eh    ::
         :: repulsion energy           0.749551643251 Eh    ::

    * Orbital Energies and Occupations

         #    Occupation            Energy/Eh            Energy/eV
      -------------------------------------------------------------
         1        2.0000           -0.8111670             -22.0730
       ...           ...                  ...                  ...
        56        2.0000           -0.4375337             -11.9059
        57        2.0000           -0.4152859             -11.3005
        58        2.0000           -0.4131144             -11.2414
        59        2.0000           -0.4057398             -11.0407
        60        2.0000           -0.4011038             -10.9146
        61        2.0000           -0.3925355             -10.6814
        62        2.0000           -0.3835894             -10.4380
        63        2.0000           -0.3792477             -10.3199
        64        2.0000           -0.3656176              -9.9490
        65        2.0000           -0.3567565              -9.7078
        66        2.0000           -0.3535362              -9.6202
        67        2.0000           -0.3532155              -9.6115
        68        1.9860           -0.2764831              -7.5235 (HOMO)
        69        0.0140           -0.2670649              -7.2672 (LUMO)
        70                         -0.2084561              -5.6724
        71                         -0.1797938              -4.8924
        72                         -0.1770014              -4.8165
        73                         -0.1363916              -3.7114
        74                         -0.1229136              -3.3446
        75                         -0.1118682              -3.0441
        76                         -0.1024831              -2.7887
        77                         -0.0911812              -2.4812
        78                         -0.0861752              -2.3449
        79                         -0.0803424              -2.1862
       ...                                ...                  ...
       134                          0.7421449              20.1948
      -------------------------------------------------------------
                  HL-Gap            0.0094182 Eh            0.2563 eV

Wiberg/Mayer (AO) data.
largest (>0.10) Wiberg bond orders for each atom

     #   Z sym  total        # sym  WBO       # sym  WBO       # sym  WBO
 ---------------------------------------------------------------------------
     1   6 C    3.883 --    26 H    0.987    28 H    0.981    27 H    0.981
                             2 O    0.906
     2   8 O    2.175 --     3 C    1.045     1 C    0.906     4 O    0.116
     3   6 C    3.821 --     4 O    1.637     2 O    1.045     5 C    1.042
     4   8 O    1.897 --     3 C    1.637     2 O    0.116
     5   6 C    3.960 --    24 C    1.460     6 N    1.210     3 C    1.042
     6   7 N    2.989 --     7 C    1.450     5 C    1.210
     7   6 C    3.948 --     6 N    1.450    21 N    1.366     8 C    0.973
     8   6 C    3.970 --     9 C    0.993    10 C    0.992     7 C    0.973
                            11 N    0.948
     9   6 C    3.997 --     8 C    0.993    31 H    0.986    30 H    0.985
                            29 H    0.984
    10   6 C    3.997 --     8 C    0.992    34 H    0.989    32 H    0.984
                            33 H    0.984
    11   7 N    3.013 --    12 C    0.963     8 C    0.948    35 H    0.948
    12   6 C    3.674 --    15 C    1.462    11 N    0.963    13 O    0.917
                            16 N    0.145
    13   8 O    1.994 --    14 C    0.951    12 C    0.917
    14   6 C    3.939 --    38 H    0.986    37 H    0.982    36 H    0.981
                            13 O    0.951
    15   6 C    3.862 --    12 C    1.462    16 N    1.294    20 O    0.959
    16   7 N    2.801 --    15 C    1.294    17 N    1.149    12 C    0.145
                            18 C    0.115
    17   7 N    2.985 --    18 C    1.675    16 N    1.149
    18   6 C    3.883 --    17 N    1.675    19 C    1.018    20 O    0.996
                            16 N    0.115
    19   6 C    3.996 --    18 C    1.018    39 H    0.987    41 H    0.976
                            40 H    0.975
    20   8 O    2.186 --    18 C    0.996    15 C    0.959
    21   7 N    2.973 --     7 C    1.366    22 C    1.248    23 O    0.126
    22   6 C    3.932 --    23 O    1.475    21 N    1.248    24 C    1.077
    23   8 O    1.760 --    22 C    1.475    21 N    0.126
    24   6 C    3.889 --     5 C    1.460    22 C    1.077    25 O    1.048
    25   8 O    2.034 --    24 C    1.048    42 H    0.828
    26   1 H    1.013 --     1 C    0.987
    27   1 H    1.011 --     1 C    0.981
    28   1 H    1.011 --     1 C    0.981
    29   1 H    1.022 --     9 C    0.984
    30   1 H    1.019 --     9 C    0.985
    31   1 H    1.015 --     9 C    0.986
    32   1 H    1.019 --    10 C    0.984
    33   1 H    1.028 --    10 C    0.984
    34   1 H    1.009 --    10 C    0.989
    35   1 H    0.986 --    11 N    0.948
    36   1 H    1.030 --    14 C    0.981
    37   1 H    1.020 --    14 C    0.982
    38   1 H    1.023 --    14 C    0.986
    39   1 H    1.008 --    19 C    0.987
    40   1 H    1.007 --    19 C    0.975
    41   1 H    1.007 --    19 C    0.976
    42   1 H    0.880 --    25 O    0.828
 ---------------------------------------------------------------------------

           -------------------------------------------------
          | TOTAL ENERGY              -83.597789410139 Eh   |
          | GRADIENT NORM               0.000373065511 Eh/α |
          | HOMO-LUMO GAP               0.256281922010 eV   |
           -------------------------------------------------

 * finished run on 2023/06/20 at 17:49:08.574
