   * xtb version 6.5.1 (579679a) compiled by 'ehlert@majestix' on 2022-07-11
          program call               : /lustre/hpc/kemi/ree/PhD/git/ReactivityQM/dep/xtb-6.5.1/bin/xtb --gfn 1 /lustre/hpc/kemi/ree/PhD/git/ReactivityQM/calculations/R02methylcation/reac01prodN09/conf09/R02methylcation_reac01prodN09_conf09_gfn1.xyz --opt --vfukui --chrg 0 --uhf 0 --alpb DMSO

   ID    Z sym.   atoms
    1    6 C      1, 3, 4, 6, 8-11, 13, 15, 18, 19, 22, 24
    2    8 O      2, 5, 14, 20, 23, 25
    3    7 N      7, 12, 16, 17, 21
    4    1 H      26-42

      * Solvation model:               ALPB
        Solvent                        DMSO
        Solvent mass                       7.8130E+01 g/mol
          :  Hamiltonian                  GFN1-xTB          :
 * total energy  :   -82.8653991 Eh     change       -0.2223175E-08 Eh
 * total energy  :   -82.8785883 Eh     change       -0.1318921E-01 Eh
 * total energy  :   -82.8853313 Eh     change       -0.6743006E-02 Eh
 * total energy  :   -82.8872232 Eh     change       -0.1891890E-02 Eh
 * total energy  :   -82.8890993 Eh     change       -0.1876140E-02 Eh
 * total energy  :   -82.8910928 Eh     change       -0.1993421E-02 Eh
 * total energy  :   -82.8934198 Eh     change       -0.2327004E-02 Eh
 * total energy  :   -82.8965014 Eh     change       -0.3081657E-02 Eh
 * total energy  :   -82.9006641 Eh     change       -0.4162645E-02 Eh
 * total energy  :   -82.9063890 Eh     change       -0.5724901E-02 Eh
 * total energy  :   -83.0046779 Eh     change       -0.7571352E-05 Eh
 * total energy  :   -83.0046832 Eh     change       -0.5379843E-05 Eh
 * total energy  :   -83.0046899 Eh     change       -0.6662556E-05 Eh
 * total energy  :   -83.0046988 Eh     change       -0.8852868E-05 Eh
 * total energy  :   -83.0047058 Eh     change       -0.7015843E-05 Eh
 * total energy  :   -83.0047124 Eh     change       -0.6576751E-05 Eh
 * total energy  :   -83.0047183 Eh     change       -0.5971624E-05 Eh
 * total energy  :   -83.0047234 Eh     change       -0.5031230E-05 Eh
 * total energy  :   -83.0047275 Eh     change       -0.4168720E-05 Eh
   *** GEOMETRY OPTIMIZATION CONVERGED AFTER 101 ITERATIONS ***

 final structure:
================
42
 xtb: 6.5.1 (579679a)
C           -2.67589281984585        0.47229603982986        3.95986724533724
O           -2.68585327961897        0.74916633404368        2.54986488019972
C           -2.11701941887277       -0.13472231414663        1.76034207240769
C           -2.34046301412966        1.80523601239039        0.11134293121535
O           -1.61465325035417       -1.16706441251841        2.11495435759517
C           -2.19425309828135        0.29130519464823        0.26343996785363
N           -0.94854169544293       -0.14273922728519       -0.32266312773142
C           -0.82942461416193       -1.29700504626307       -0.83301599899170
C            0.51843702305321       -1.76108498025434       -1.35140272132191
C            0.45635066486901       -1.92207800266388       -2.87707957167503
C            0.92616976584271       -3.07239951181798       -0.66489508430532
N            1.47160219919800       -0.71222757921469       -1.00193631216783
C            2.78310919473424       -0.75933010143070       -1.29334573072964
O            3.34324621537925       -1.65785952653971       -1.90223263997937
C            3.52591462357921        0.42191061009099       -0.78226306370309
N            4.79624322038942        0.65979906488409       -0.88789248198146
N            5.02935188555695        1.84416608601364       -0.25534230502456
C            3.88710647596474        2.25636979414959        0.19861822239665
C            3.61145199724669        3.49184656503238        0.96354956239492
O            2.89345429138017        1.40280953138713       -0.10082815412887
N           -1.88182843599546       -2.19008038253945       -0.97712480384040
C           -3.18787938601770       -1.87793282385877       -0.74216371421853
O           -4.08809827172905       -2.66591490883814       -0.91981874596281
C           -3.41684926989505       -0.44041408959451       -0.25974947444434
O           -4.51479596937330        0.05037952692475       -0.26553003285689
H           -3.24656297119835        1.26857846292118        4.43171574109844
H           -1.64733221616085        0.47048390730608        4.32443234648178
H           -3.13548818145029       -0.49917627422155        4.15119185775363
H           -2.29311702817210        2.06414109018487       -0.94461690582056
H           -1.53339825006734        2.30700597382073        0.63879667566327
H           -3.29683339520826        2.12781470940124        0.51809772723025
H            1.41903941707380       -2.26861542946538       -3.24864025568210
H            0.21577828876705       -0.96710381936591       -3.34116547495791
H           -0.30722072419823       -2.65037560625538       -3.14162734874491
H            0.23004037495790       -3.86644524878075       -0.92546009838285
H            1.92170745701862       -3.36289608653949       -0.99576345230236
H            0.93076961846189       -2.93948238444414        0.41588247688951
H            1.09167345788032        0.08328167634323       -0.50413166776853
H            4.53874109954315        4.03637610920057        1.12501321181999
H            2.90998417423843        4.12091498057548        0.41607735024330
H            3.16141738082786        3.24229987593554        1.92412297413844
H           -1.70608353578650       -3.11930378903974       -1.32862043399922

          :  Hamiltonian                  GFN1-xTB          :
         :: total energy             -83.004727524406 Eh    ::
         :: gradient norm              0.000629512466 Eh/a0 ::
         :: HOMO-LUMO gap              2.409511218665 eV    ::
         :: SCC energy               -83.792706461369 Eh    ::
         :: -> Gsolv                  -0.054423247146 Eh    ::
         :: repulsion energy           0.814691983893 Eh    ::

    * Orbital Energies and Occupations

         #    Occupation            Energy/Eh            Energy/eV
      -------------------------------------------------------------
         1        2.0000           -0.8651496             -23.5419
       ...           ...                  ...                  ...
        55        2.0000           -0.5108542             -13.9011
        56        2.0000           -0.5054629             -13.7543
        57        2.0000           -0.5044149             -13.7258
        58        2.0000           -0.5031112             -13.6904
        59        2.0000           -0.4921036             -13.3908
        60        2.0000           -0.4797488             -13.0546
        61        2.0000           -0.4709768             -12.8159
        62        2.0000           -0.4635319             -12.6133
        63        2.0000           -0.4620661             -12.5735
        64        2.0000           -0.4588708             -12.4865
        65        2.0000           -0.4513050             -12.2806
        66        2.0000           -0.4474649             -12.1761
        67        2.0000           -0.4419408             -12.0258 (HOMO)
        68                         -0.3533929              -9.6163 (LUMO)
        69                         -0.3094659              -8.4210
        70                         -0.2976551              -8.0996
        71                         -0.2704958              -7.3606
        72                         -0.2567218              -6.9858
        73                         -0.2258729              -6.1463
        74                         -0.1972943              -5.3687
        75                         -0.1460722              -3.9748
        76                         -0.1430468              -3.8925
        77                         -0.1421149              -3.8671
        78                         -0.1259523              -3.4273
       ...                                ...                  ...
       134                          0.7585784              20.6420
      -------------------------------------------------------------
                  HL-Gap            0.0885479 Eh            2.4095 eV

Wiberg/Mayer (AO) data.
largest (>0.10) Wiberg bond orders for each atom

     #   Z sym  total        # sym  WBO       # sym  WBO       # sym  WBO
 ---------------------------------------------------------------------------
     1   6 C    3.852 --    26 H    0.985    28 H    0.980    27 H    0.979
                             2 O    0.874
     2   8 O    2.232 --     3 C    1.159     1 C    0.874     5 O    0.140
     3   6 C    3.845 --     5 O    1.697     2 O    1.159     6 C    0.863
     4   6 C    3.984 --    30 H    0.985    29 H    0.983    31 H    0.982
                             6 C    0.981
     5   8 O    1.965 --     3 C    1.697     2 O    0.140
     6   6 C    3.962 --     4 C    0.981     7 N    0.979    24 C    0.950
                             3 C    0.863
     7   7 N    3.049 --     8 C    1.751     6 C    0.979
     8   6 C    3.926 --     7 N    1.751    21 N    1.072     9 C    0.980
     9   6 C    3.939 --     8 C    0.980    11 C    0.979    10 C    0.977
                            12 N    0.937
    10   6 C    3.986 --    33 H    0.985    34 H    0.984    32 H    0.978
                             9 C    0.977
    11   6 C    3.987 --    37 H    0.985    35 H    0.982     9 C    0.979
                            36 H    0.977
    12   7 N    3.361 --    13 C    1.270     9 C    0.937    38 H    0.875
                            14 O    0.179
    13   6 C    3.919 --    14 O    1.576    12 N    1.270    15 C    0.991
    14   8 O    1.897 --    13 C    1.576    12 N    0.179
    15   6 C    3.872 --    16 N    1.624    20 O    1.047    13 C    0.991
    16   7 N    2.999 --    15 C    1.624    17 N    1.197
    17   7 N    2.982 --    18 C    1.613    16 N    1.197
    18   6 C    3.869 --    17 N    1.613    20 O    1.072    19 C    1.031
    19   6 C    3.987 --    18 C    1.031    39 H    0.982    41 H    0.964
                            40 H    0.963
    20   8 O    2.315 --    18 C    1.072    15 C    1.047
    21   7 N    3.429 --    22 C    1.184     8 C    1.072    42 H    0.880
                            23 O    0.148
    22   6 C    3.892 --    23 O    1.676    21 N    1.184    24 C    0.906
    23   8 O    1.960 --    22 C    1.676    21 N    0.148
    24   6 C    3.848 --    25 O    1.813     6 C    0.950    22 C    0.906
    25   8 O    2.027 --    24 C    1.813
    26   1 H    1.007 --     1 C    0.985
    27   1 H    1.003 --     1 C    0.979
    28   1 H    1.004 --     1 C    0.980
    29   1 H    1.000 --     4 C    0.983
    30   1 H    1.003 --     4 C    0.985
    31   1 H    1.007 --     4 C    0.982
    32   1 H    1.008 --    10 C    0.978
    33   1 H    1.001 --    10 C    0.985
    34   1 H    0.999 --    10 C    0.984
    35   1 H    0.998 --    11 C    0.982
    36   1 H    1.007 --    11 C    0.977
    37   1 H    1.000 --    11 C    0.985
    38   1 H    0.956 --    12 N    0.875
    39   1 H    0.998 --    19 C    0.982
    40   1 H    0.997 --    19 C    0.963
    41   1 H    0.997 --    19 C    0.964
    42   1 H    0.928 --    21 N    0.880
 ---------------------------------------------------------------------------

           -------------------------------------------------
          | TOTAL ENERGY              -83.004727524406 Eh   |
          | GRADIENT NORM               0.000629512466 Eh/α |
          | HOMO-LUMO GAP               2.409511218665 eV   |
           -------------------------------------------------

 * finished run on 2023/06/21 at 17:40:54.368
