   * xtb version 6.5.1 (579679a) compiled by 'ehlert@majestix' on 2022-07-11
          program call               : /lustre/hpc/kemi/ree/PhD/git/ReactivityQM/dep/xtb-6.5.1/bin/xtb --gfn 1 /lustre/hpc/kemi/ree/PhD/git/ReactivityQM/calculations/R02/reac01prodE01/conf14/R02_reac01prodE01_conf14_gfn1.xyz --opt --vfukui --chrg -1 --uhf 0 --alpb DMSO

   ID    Z sym.   atoms
    1    6 C      1, 3, 5, 7-10, 12, 13, 15, 18, 19, 22, 24
    2    8 O      2, 4, 14, 20, 23, 25
    3    7 N      6, 11, 16, 17, 21
    4    1 H      26-43

      * Solvation model:               ALPB
        Solvent                        DMSO
        Solvent mass                       7.8130E+01 g/mol
          :  Hamiltonian                  GFN1-xTB          :
 * total energy  :   -83.8517125 Eh     change       -0.1931255E-10 Eh
 * total energy  :   -83.8648305 Eh     change       -0.1311798E-01 Eh
 * total energy  :   -83.8692632 Eh     change       -0.4432670E-02 Eh
 * total energy  :   -83.8702552 Eh     change       -0.9920119E-03 Eh
 * total energy  :   -83.8708118 Eh     change       -0.5566215E-03 Eh
 * total energy  :   -83.8710865 Eh     change       -0.2746587E-03 Eh
 * total energy  :   -83.8712630 Eh     change       -0.1765003E-03 Eh
 * total energy  :   -83.8713470 Eh     change       -0.8400210E-04 Eh
 * total energy  :   -83.8713975 Eh     change       -0.5052566E-04 Eh
 * total energy  :   -83.8714444 Eh     change       -0.4691122E-04 Eh
 * total energy  :   -83.8721007 Eh     change       -0.1346160E-04 Eh
 * total energy  :   -83.8721217 Eh     change       -0.2091379E-04 Eh
 * total energy  :   -83.8721293 Eh     change       -0.7692677E-05 Eh
 * total energy  :   -83.8721399 Eh     change       -0.1055345E-04 Eh
 * total energy  :   -83.8721448 Eh     change       -0.4915544E-05 Eh
 * total energy  :   -83.8721516 Eh     change       -0.6813845E-05 Eh
 * total energy  :   -83.8721581 Eh     change       -0.6457822E-05 Eh
 * total energy  :   -83.8721609 Eh     change       -0.2827343E-05 Eh
 * total energy  :   -83.8721642 Eh     change       -0.3278763E-05 Eh
   *** GEOMETRY OPTIMIZATION CONVERGED AFTER 36 ITERATIONS ***

 final structure:
================
43
 xtb: 6.5.1 (579679a)
C            6.31604035843081       -0.18715132964405       -1.25236555970741
O            4.97638936695972       -0.06658008078277       -0.76873168644401
C            4.79545033663504        0.73296218972936        0.27626408473855
O            5.70913210160400        1.34882630924733        0.80110947175030
C            3.39517568379653        0.79799965194148        0.74942194870969
N            2.46579132655393        0.07555107137041        0.04878595781597
C            1.23382964881602        0.09871593765990        0.44906877132958
C            0.16795306267200       -0.71762292316240       -0.26532667098434
C            0.37959252276770       -2.17200849578918        0.18553745208720
C            0.38779574055568       -0.58243092458108       -1.78248617890521
N           -1.12288088674511       -0.18141111519389        0.16216812461132
C           -2.37465412100435       -1.02917657971365       -0.21141454845995
C           -2.87118812936447       -1.63206004386627        1.14376143562262
O           -2.22140126433798       -1.88372629890706       -1.17660057747917
C           -3.40396528859496        0.08325075399316       -0.59070606049034
N           -3.16322305694257        1.22433111758305       -1.15641189485429
N           -4.38573080060675        1.80705218319232       -1.42875376694572
C           -5.28079860411748        0.97488355463175       -1.01419121999830
C           -6.75501908893317        1.12811993626927       -1.07460760682178
O           -4.73396245782864       -0.13342842831383       -0.47625178230258
N            0.84855479824098        0.80121893189215        1.54685436963460
C            1.67666869528486        1.57109065879915        2.32718719375567
O            1.25495482524389        2.18344356365792        3.29818584005461
C            3.06408995242060        1.54760751295884        1.85410748295202
O            3.94019658351364        2.27580092954178        2.55880320154298
H            6.70161604278625        0.79337881733819       -1.54015087361145
H            6.27901670118500       -0.84839336699087       -2.11557476822836
H            6.95647670170777       -0.61174417688552       -0.47598655504490
H            1.39943795213392       -2.47665010811385       -0.04973146854392
H           -0.31580106244868       -2.83362957269800       -0.32916677265459
H            0.22882641754947       -2.25678219407213        1.26123342575799
H            1.40029358486620       -0.89522500956136       -2.03721814956419
H            0.25425381946105        0.45564871830821       -2.08710067411985
H           -0.32909675991022       -1.20421181943507       -2.31683010089443
H           -1.23498953721677        0.71766477506637       -0.31053755327633
H           -3.83344343876805       -2.11568204525175        0.98192880414999
H           -2.15627091407228       -2.37533903220497        1.49012418065103
H           -2.97472630382602       -0.85226571000145        1.89590597172677
H           -7.19281756271674        0.33541947199018       -1.68186891079653
H           -7.18162328335536        1.06223848026633       -0.07390265880525
H           -7.00238689044014        2.09343095253907       -1.51018492154418
H           -0.13900590438468        0.75150233799087        1.79286896695648
H            4.84144313243557        2.19537839920693        2.17459827663096

          :  Hamiltonian                  GFN1-xTB          :
         :: total energy             -83.872164194331 Eh    ::
         :: gradient norm              0.000715460065 Eh/a0 ::
         :: HOMO-LUMO gap              0.904813373780 eV    ::
         :: SCC energy               -84.625357244658 Eh    ::
         :: -> Gsolv                  -0.109733850636 Eh    ::
         :: repulsion energy           0.779766821102 Eh    ::

    * Orbital Energies and Occupations

         #    Occupation            Energy/Eh            Energy/eV
      -------------------------------------------------------------
         1        2.0000           -0.8382361             -22.8096
       ...           ...                  ...                  ...
        56        2.0000           -0.4660409             -12.6816
        57        2.0000           -0.4628347             -12.5944
        58        2.0000           -0.4620773             -12.5738
        59        2.0000           -0.4501995             -12.2506
        60        2.0000           -0.4428833             -12.0515
        61        2.0000           -0.4392780             -11.9534
        62        2.0000           -0.4330588             -11.7841
        63        2.0000           -0.4172865             -11.3549
        64        2.0000           -0.4145415             -11.2802
        65        2.0000           -0.4127746             -11.2322
        66        2.0000           -0.3837988             -10.4437
        67        2.0000           -0.3520860              -9.5807
        68        2.0000           -0.3481613              -9.4740 (HOMO)
        69                         -0.3149101              -8.5691 (LUMO)
        70                         -0.2656694              -7.2292
        71                         -0.2318884              -6.3100
        72                         -0.2282303              -6.2105
        73                         -0.2132608              -5.8031
        74                         -0.1466546              -3.9907
        75                         -0.1358758              -3.6974
        76                         -0.1295743              -3.5259
        77                         -0.1049407              -2.8556
        78                         -0.0964227              -2.6238
        79                         -0.0877269              -2.3872
       ...                                ...                  ...
       136                          0.7245541              19.7161
      -------------------------------------------------------------
                  HL-Gap            0.0332513 Eh            0.9048 eV

Wiberg/Mayer (AO) data.
largest (>0.10) Wiberg bond orders for each atom

     #   Z sym  total        # sym  WBO       # sym  WBO       # sym  WBO
 ---------------------------------------------------------------------------
     1   6 C    3.871 --    27 H    0.986    26 H    0.979    28 H    0.979
                             2 O    0.897
     2   8 O    2.213 --     3 C    1.128     1 C    0.897     4 O    0.127
     3   6 C    3.844 --     4 O    1.602     2 O    1.128     5 C    1.024
     4   8 O    1.937 --     3 C    1.602     2 O    0.127
     5   6 C    3.967 --    24 C    1.482     6 N    1.188     3 C    1.024
     6   7 N    3.015 --     7 C    1.557     5 C    1.188
     7   6 C    3.909 --     6 N    1.557    21 N    1.185     8 C    0.973
     8   6 C    3.965 --    11 N    0.987    10 C    0.980     9 C    0.974
                             7 C    0.973
     9   6 C    3.992 --    29 H    0.987    31 H    0.986     8 C    0.974
                            30 H    0.973
    10   6 C    3.994 --    33 H    0.986    32 H    0.985     8 C    0.980
                            34 H    0.977
    11   7 N    3.004 --     8 C    0.987    35 H    0.940    12 C    0.830
    12   6 C    3.934 --    14 O    1.220    13 C    0.941    15 C    0.888
                            11 N    0.830
    13   6 C    3.992 --    38 H    0.991    36 H    0.986    37 H    0.984
                            12 C    0.941
    14   8 O    1.572 --    12 C    1.220
    15   6 C    3.810 --    16 N    1.651    20 O    1.051    12 C    0.888
    16   7 N    2.987 --    15 C    1.651    17 N    1.147
    17   7 N    2.976 --    18 C    1.656    16 N    1.147
    18   6 C    3.886 --    17 N    1.656    20 O    1.062    19 C    1.024
    19   6 C    3.993 --    18 C    1.024    41 H    0.985    40 H    0.970
                            39 H    0.969
    20   8 O    2.297 --    18 C    1.062    15 C    1.051
    21   7 N    3.479 --     7 C    1.185    22 C    1.140    42 H    0.868
                            23 O    0.135
    22   6 C    3.913 --    23 O    1.576    21 N    1.140    24 C    1.064
    23   8 O    1.875 --    22 C    1.576    21 N    0.135
    24   6 C    3.919 --     5 C    1.482    25 O    1.109    22 C    1.064
    25   8 O    2.078 --    24 C    1.109    43 H    0.784
    26   1 H    1.007 --     1 C    0.979
    27   1 H    1.011 --     1 C    0.986
    28   1 H    1.007 --     1 C    0.979
    29   1 H    1.009 --     9 C    0.987
    30   1 H    1.028 --     9 C    0.973
    31   1 H    1.009 --     9 C    0.986
    32   1 H    1.014 --    10 C    0.985
    33   1 H    1.008 --    10 C    0.986
    34   1 H    1.032 --    10 C    0.977
    35   1 H    0.992 --    11 N    0.940
    36   1 H    1.016 --    13 C    0.986
    37   1 H    1.017 --    13 C    0.984
    38   1 H    1.016 --    13 C    0.991
    39   1 H    1.002 --    19 C    0.969
    40   1 H    1.001 --    19 C    0.970
    41   1 H    1.002 --    19 C    0.985
    42   1 H    0.960 --    21 N    0.868
    43   1 H    0.858 --    25 O    0.784
 ---------------------------------------------------------------------------

           -------------------------------------------------
          | TOTAL ENERGY              -83.872164194331 Eh   |
          | GRADIENT NORM               0.000715460065 Eh/α |
          | HOMO-LUMO GAP               0.904813373780 eV   |
           -------------------------------------------------

 * finished run on 2023/06/20 at 14:52:18.499
