   * xtb version 6.5.1 (579679a) compiled by 'ehlert@majestix' on 2022-07-11
          program call               : /lustre/hpc/kemi/ree/PhD/git/ReactivityQM/dep/xtb-6.5.1/bin/xtb --gfn 1 /lustre/hpc/kemi/ree/PhD/git/ReactivityQM/calculations/R02oxygendeprot/reac01prodN06/conf03/R02oxygendeprot_reac01prodN06_conf03_gfn1.xyz --opt --vfukui --chrg 0 --uhf 0 --alpb DMSO

   ID    Z sym.   atoms
    1    6 C      1, 3, 5, 7-10, 12, 14, 16, 17, 20, 22, 24
    2    8 O      2, 4, 13, 15, 23, 25
    3    7 N      6, 11, 18, 19, 21
    4    1 H      26-42

      * Solvation model:               ALPB
        Solvent                        DMSO
        Solvent mass                       7.8130E+01 g/mol
          :  Hamiltonian                  GFN1-xTB          :
 * total energy  :   -82.9494452 Eh     change       -0.2577977E-08 Eh
 * total energy  :   -82.9655103 Eh     change       -0.1606513E-01 Eh
 * total energy  :   -82.9734935 Eh     change       -0.7983179E-02 Eh
 * total energy  :   -82.9752359 Eh     change       -0.1742342E-02 Eh
 * total energy  :   -82.9765221 Eh     change       -0.1286237E-02 Eh
 * total energy  :   -82.9772141 Eh     change       -0.6920400E-03 Eh
 * total energy  :   -82.9778359 Eh     change       -0.6217477E-03 Eh
 * total energy  :   -82.9783109 Eh     change       -0.4750202E-03 Eh
 * total energy  :   -82.9786387 Eh     change       -0.3277480E-03 Eh
 * total energy  :   -82.9789058 Eh     change       -0.2671116E-03 Eh
 * total energy  :   -82.9854965 Eh     change       -0.4211167E-04 Eh
 * total energy  :   -82.9855279 Eh     change       -0.3140107E-04 Eh
 * total energy  :   -82.9855529 Eh     change       -0.2506263E-04 Eh
 * total energy  :   -82.9855771 Eh     change       -0.2417557E-04 Eh
 * total energy  :   -82.9855871 Eh     change       -0.1000070E-04 Eh
 * total energy  :   -82.9856020 Eh     change       -0.1489376E-04 Eh
 * total energy  :   -82.9856075 Eh     change       -0.5509291E-05 Eh
 * total energy  :   -82.9856162 Eh     change       -0.8684144E-05 Eh
 * total energy  :   -82.9856206 Eh     change       -0.4426568E-05 Eh
   *** GEOMETRY OPTIMIZATION CONVERGED AFTER 66 ITERATIONS ***

 final structure:
================
42
 xtb: 6.5.1 (579679a)
C            6.65441602705455       -1.08824374057276        0.64594357850249
O            5.38385538997830       -1.26126344731873        0.03115194632454
C            4.49103895007938       -0.26338516415232        0.22554481431524
O            4.78117455075244        0.71725230854421        0.89803862517855
C            3.20101784545504       -0.46685927066957       -0.42665949326180
N            2.31465103792571        0.56378502312939       -0.18865708274068
C            1.14431113668355        0.54654084508471       -0.70555231958467
C            0.17989711045324        1.69172922933541       -0.48342471215783
C            0.59051429749634        2.50493013201911        0.74538042835460
C            0.11438878085226        2.57378800767910       -1.73290417939357
N           -1.17156945526585        1.13216870536474       -0.27993265620590
C           -1.42999586233219        0.20050774831543        0.64136354430632
O           -0.64554140226627       -0.28025951377229        1.43860854669935
C           -2.85326917719190       -0.26454668074471        0.59411789833317
O           -3.73553819474687        0.19335170282054       -0.28784339826020
C           -4.87927511943436       -0.47557449456122       -0.05409973503205
C           -6.07842645905635       -0.21421539990042       -0.86753800964003
N           -4.73753963821019       -1.31798085697125        0.92439148155131
N           -3.45716572298070       -1.17780116880254        1.32612650886333
C           -2.98032631748379       -1.97779406182510        2.43504540004707
N            0.71380068342243       -0.48088881891188       -1.51894787880032
C            1.46884160718343       -1.59226573322004       -1.80212888084315
O            0.99734404154620       -2.48712771256277       -2.49606352694751
C            2.86528807026094       -1.60074912487649       -1.21660130306060
O            3.60258767512414       -2.57052735046851       -1.45935791020301
H            7.14687041019353       -0.18776694167829        0.26620875062342
H            7.24972881072687       -1.96700428074075        0.40027257255520
H            6.54948652184265       -1.00232270446251        1.73191941675043
H            1.59479506602339        2.89759043742191        0.58909315848869
H            0.59515120963385        1.87296797785196        1.63205879838155
H           -0.10318334212691        3.32910972083004        0.89483536409168
H           -0.60217369241941        3.37947028129436       -1.58658278961819
H            1.09600570206308        3.00446372114394       -1.92631418195215
H           -0.18903144425588        1.98302146408544       -2.59542871805997
H           -1.92035671089438        1.47188504123340       -0.85655969374101
H           -5.87019228427988       -0.45030285566710       -1.91177636281958
H           -6.33507802470610        0.84352248301563       -0.81162022895460
H           -6.90881037693121       -0.81810635583517       -0.50994526012026
H           -1.94507410611393       -1.71567655818660        2.64074748109919
H           -3.06883285937679       -3.02877993272344        2.16327167452815
H           -3.61147905175416       -1.76965976677005        3.29749713807044
H           -0.21230568289609       -0.44698189379482       -1.90637180565753

          :  Hamiltonian                  GFN1-xTB          :
         :: total energy             -82.985620607738 Eh    ::
         :: gradient norm              0.000895984374 Eh/a0 ::
         :: HOMO-LUMO gap              0.211965091923 eV    ::
         :: SCC energy               -83.774056251836 Eh    ::
         :: -> Gsolv                  -0.119473597134 Eh    ::
         :: repulsion energy           0.814137893949 Eh    ::

    * Orbital Energies and Occupations

         #    Occupation            Energy/Eh            Energy/eV
      -------------------------------------------------------------
         1        2.0000           -0.9272896             -25.2328
       ...           ...                  ...                  ...
        55        2.0000           -0.5095045             -13.8643
        56        2.0000           -0.5063331             -13.7780
        57        2.0000           -0.4984718             -13.5641
        58        2.0000           -0.4921014             -13.3908
        59        2.0000           -0.4863484             -13.2342
        60        2.0000           -0.4726368             -12.8611
        61        2.0000           -0.4698401             -12.7850
        62        2.0000           -0.4654543             -12.6657
        63        2.0000           -0.4490171             -12.2184
        64        2.0000           -0.4432152             -12.0605
        65        2.0000           -0.4260120             -11.5924
        66        2.0000           -0.3876693             -10.5490
        67        1.9674           -0.3745970             -10.1933 (HOMO)
        68        0.0326           -0.3668075              -9.9813 (LUMO)
        69                         -0.3151302              -8.5751
        70                         -0.2778246              -7.5600
        71                         -0.2490245              -6.7763
        72                         -0.2441520              -6.6437
        73                         -0.2045352              -5.5657
        74                         -0.1666721              -4.5354
        75                         -0.1624252              -4.4198
        76                         -0.1360084              -3.7010
        77                         -0.1241501              -3.3783
        78                         -0.1237028              -3.3661
       ...                                ...                  ...
       134                          0.7515461              20.4506
      -------------------------------------------------------------
                  HL-Gap            0.0077896 Eh            0.2120 eV

Wiberg/Mayer (AO) data.
largest (>0.10) Wiberg bond orders for each atom

     #   Z sym  total        # sym  WBO       # sym  WBO       # sym  WBO
 ---------------------------------------------------------------------------
     1   6 C    3.895 --    27 H    0.987    26 H    0.980    28 H    0.980
                             2 O    0.921
     2   8 O    2.166 --     3 C    1.058     1 C    0.921     4 O    0.113
     3   6 C    3.848 --     4 O    1.585     5 C    1.099     2 O    1.058
     4   8 O    1.853 --     3 C    1.585     2 O    0.113
     5   6 C    3.886 --    24 C    1.259     6 N    1.167     3 C    1.099
                            25 O    0.121
     6   7 N    3.028 --     7 C    1.623     5 C    1.167
     7   6 C    3.920 --     6 N    1.623    21 N    1.096     8 C    0.972
     8   6 C    3.913 --     9 C    0.990    10 C    0.989     7 C    0.972
                            11 N    0.897
     9   6 C    3.987 --     8 C    0.990    31 H    0.986    29 H    0.981
                            30 H    0.981
    10   6 C    3.988 --     8 C    0.989    34 H    0.984    32 H    0.983
                            33 H    0.982
    11   7 N    3.391 --    12 C    1.303     8 C    0.897    35 H    0.888
                            13 O    0.198
    12   6 C    3.923 --    13 O    1.572    11 N    1.303    14 C    0.967
    13   8 O    1.921 --    12 C    1.572    11 N    0.198
    14   6 C    3.801 --    19 N    1.428    15 O    1.112    12 C    0.967
    15   8 O    2.350 --    14 C    1.112    16 C    1.065
    16   6 C    3.839 --    18 N    1.586    15 O    1.065    17 C    1.042
    17   6 C    3.972 --    16 C    1.042    38 H    0.978    37 H    0.952
                            36 H    0.949
    18   7 N    2.959 --    16 C    1.586    19 N    1.145
    19   7 N    3.617 --    14 C    1.428    18 N    1.145    20 C    0.912
    20   6 C    3.883 --    39 H    0.973    41 H    0.966    40 H    0.966
                            19 N    0.912
    21   7 N    3.421 --    22 C    1.153     7 C    1.096    42 H    0.898
                            23 O    0.133
    22   6 C    3.873 --    23 O    1.588    21 N    1.153    24 C    0.964
    23   8 O    1.863 --    22 C    1.588    21 N    0.133
    24   6 C    3.934 --    25 O    1.533     5 C    1.259    22 C    0.964
    25   8 O    1.818 --    24 C    1.533     5 C    0.121
    26   1 H    1.013 --     1 C    0.980
    27   1 H    1.015 --     1 C    0.987
    28   1 H    1.013 --     1 C    0.980
    29   1 H    1.011 --     9 C    0.981
    30   1 H    1.010 --     9 C    0.981
    31   1 H    1.001 --     9 C    0.986
    32   1 H    0.997 --    10 C    0.983
    33   1 H    1.000 --    10 C    0.982
    34   1 H    0.999 --    10 C    0.984
    35   1 H    0.926 --    11 N    0.888
    36   1 H    0.989 --    17 C    0.949
    37   1 H    0.989 --    17 C    0.952
    38   1 H    0.991 --    17 C    0.978
    39   1 H    1.006 --    20 C    0.973
    40   1 H    0.991 --    20 C    0.966
    41   1 H    0.992 --    20 C    0.966
    42   1 H    0.946 --    21 N    0.898
 ---------------------------------------------------------------------------

           -------------------------------------------------
          | TOTAL ENERGY              -82.985620607738 Eh   |
          | GRADIENT NORM               0.000895984374 Eh/α |
          | HOMO-LUMO GAP               0.211965091923 eV   |
           -------------------------------------------------

 * finished run on 2023/06/21 at 17:21:49.520
