   * xtb version 6.5.1 (579679a) compiled by 'ehlert@majestix' on 2022-07-11
          program call               : /lustre/hpc/kemi/ree/PhD/git/ReactivityQM/dep/xtb-6.5.1/bin/xtb --gfn 1 /lustre/hpc/kemi/ree/PhD/git/ReactivityQM/calculations/R02deprot/reac01prodE09/conf15/R02deprot_reac01prodE09_conf15_gfn1.xyz --opt --vfukui --chrg -2 --uhf 0 --alpb DMSO

   ID    Z sym.   atoms
    1    6 C      1, 3, 5, 7-10, 12, 14, 16, 17, 20, 22, 24
    2    8 O      2, 4, 13, 15, 23, 25
    3    7 N      6, 11, 18, 19, 21
    4    1 H      26-42

      * Solvation model:               ALPB
        Solvent                        DMSO
        Solvent mass                       7.8130E+01 g/mol
          :  Hamiltonian                  GFN1-xTB          :
 * total energy  :   -83.5859573 Eh     change       -0.2194298E-09 Eh
 * total energy  :   -83.5981493 Eh     change       -0.1219198E-01 Eh
 * total energy  :   -83.6019978 Eh     change       -0.3848477E-02 Eh
 * total energy  :   -83.6025978 Eh     change       -0.5999809E-03 Eh
 * total energy  :   -83.6033845 Eh     change       -0.7867232E-03 Eh
 * total energy  :   -83.6043108 Eh     change       -0.9263057E-03 Eh
 * total energy  :   -83.6057889 Eh     change       -0.1478064E-02 Eh
 * total energy  :   -83.6075029 Eh     change       -0.1714075E-02 Eh
 * total energy  :   -83.6096139 Eh     change       -0.2110924E-02 Eh
 * total energy  :   -83.6117265 Eh     change       -0.2112603E-02 Eh
 * total energy  :   -83.6196531 Eh     change       -0.1476938E-04 Eh
 * total energy  :   -83.6196614 Eh     change       -0.8302123E-05 Eh
 * total energy  :   -83.6196721 Eh     change       -0.1072150E-04 Eh
 * total energy  :   -83.6196825 Eh     change       -0.1035113E-04 Eh
 * total energy  :   -83.6196909 Eh     change       -0.8371346E-05 Eh
 * total energy  :   -83.6196983 Eh     change       -0.7402993E-05 Eh
 * total energy  :   -83.6197022 Eh     change       -0.3893437E-05 Eh
 * total energy  :   -83.6197066 Eh     change       -0.4403335E-05 Eh
 * total energy  :   -83.6197096 Eh     change       -0.3021995E-05 Eh
   *** GEOMETRY OPTIMIZATION CONVERGED AFTER 59 ITERATIONS ***

 final structure:
================
42
 xtb: 6.5.1 (579679a)
C            6.13074485077205        0.02842844478091        1.97140708339551
O            4.87413798704151       -0.02630160722130        1.30505377327800
C            4.78027223815536        0.67473573263193        0.16304117625855
O            5.72963069547320        1.31941643337375       -0.26726878024483
C            3.46813509527878        0.59130693711489       -0.48732604864311
N            2.51782853511768       -0.18532520820202        0.11244346756946
C            1.33820962217083       -0.24171400496121       -0.47408065862491
C            0.26582180200488       -1.12816570571933        0.16163270762281
C            0.75316741226567       -1.66005297081080        1.51465612111053
C            0.01207643658888       -2.29502305819243       -0.81798290162321
N           -0.91732684717846       -0.28794314504931        0.34203716611427
C           -2.17966119025101       -0.91529941113147        0.63926460448716
O           -2.21701987864782       -2.03960067750326        1.23026122016765
C           -3.27121777698069       -0.08854798562251        0.47145740019673
O           -3.23638861859177        1.06661425412687       -0.37932278496085
C           -4.47491667838799        1.16820067154601       -0.86472484934919
C           -4.77841154572786        2.27922894416514       -1.81286089888634
N           -5.33527176574693        0.30451399927570       -0.47601245013239
N           -4.65445410761303       -0.58369482451874        0.43942871400371
C           -5.31732771377093       -0.44384109221218        1.74619425893382
N            0.97720835215858        0.38039925568186       -1.59475236249603
C            1.86265415618296        1.16536311096931       -2.26350179083159
O            1.56401875916869        1.75537739302461       -3.31865618620460
C            3.19936933400846        1.27065018389479       -1.65656203154937
O            4.10857585384590        2.04942889447735       -2.29448744582750
H            6.04340549467453       -0.58470293460142        2.86662537040686
H            6.92187890531423       -0.36189014797961        1.32581225510085
H            6.37317944698785        1.05864200298183        2.24577088850407
H            0.01357856550844       -2.32802520985545        1.95486055423154
H            0.92946886318911       -0.82762623394938        2.19707139456060
H            1.68866844925883       -2.20450152978960        1.38404384301372
H           -0.34562851455637       -1.90349758264795       -1.77127561411040
H            0.94317610502545       -2.83578844138197       -0.99010078526525
H           -0.72536666370694       -2.98829058541532       -0.41464505198263
H           -1.00709170773664        0.36172771245404       -0.43959654043585
H           -4.51645581857042        3.23427669609743       -1.35972742320246
H           -5.83819658769925        2.27449117911624       -2.05529043176160
H           -4.19924841245360        2.16878936898571       -2.72955620475762
H           -4.81716632097624       -1.11515676543999        2.44350263354178
H           -5.26006860410596        0.58378466338160        2.12097105471034
H           -6.36200528512060       -0.73504621092400        1.64251222701530
H            4.95802007763475        2.04466045504045       -1.81031867333855

          :  Hamiltonian                  GFN1-xTB          :
         :: total energy             -83.619709582157 Eh    ::
         :: gradient norm              0.000549386342 Eh/a0 ::
         :: HOMO-LUMO gap              0.353546649236 eV    ::
         :: SCC energy               -84.351591215295 Eh    ::
         :: -> Gsolv                  -0.271105827459 Eh    ::
         :: repulsion energy           0.757041733986 Eh    ::

    * Orbital Energies and Occupations

         #    Occupation            Energy/Eh            Energy/eV
      -------------------------------------------------------------
         1        2.0000           -0.8121853             -22.1007
       ...           ...                  ...                  ...
        56        2.0000           -0.4421675             -12.0320
        57        2.0000           -0.4364429             -11.8762
        58        2.0000           -0.4156042             -11.3092
        59        2.0000           -0.4137727             -11.2593
        60        2.0000           -0.4061580             -11.0521
        61        2.0000           -0.4045272             -11.0077
        62        2.0000           -0.3848568             -10.4725
        63        2.0000           -0.3768993             -10.2560
        64        2.0000           -0.3677160             -10.0061
        65        2.0000           -0.3568920              -9.7115
        66        2.0000           -0.3557098              -9.6794
        67        2.0000           -0.3515699              -9.5667
        68        1.9979           -0.2841628              -7.7325 (HOMO)
        69        0.0021           -0.2711702              -7.3789 (LUMO)
        70                         -0.2103659              -5.7243
        71                         -0.2015953              -5.4857
        72                         -0.1796217              -4.8878
        73                         -0.1324869              -3.6052
        74                         -0.1250191              -3.4019
        75                         -0.1193569              -3.2479
        76                         -0.0927134              -2.5229
        77                         -0.0887146              -2.4140
        78                         -0.0849234              -2.3109
        79                         -0.0807685              -2.1978
       ...                                ...                  ...
       134                          0.7330488              19.9473
      -------------------------------------------------------------
                  HL-Gap            0.0129926 Eh            0.3535 eV

Wiberg/Mayer (AO) data.
largest (>0.10) Wiberg bond orders for each atom

     #   Z sym  total        # sym  WBO       # sym  WBO       # sym  WBO
 ---------------------------------------------------------------------------
     1   6 C    3.888 --    26 H    0.987    28 H    0.980    27 H    0.980
                             2 O    0.913
     2   8 O    2.187 --     3 C    1.088     1 C    0.913     4 O    0.116
     3   6 C    3.831 --     4 O    1.581     2 O    1.088     5 C    1.056
     4   8 O    1.910 --     3 C    1.581     2 O    0.116
     5   6 C    3.963 --    24 C    1.451     6 N    1.208     3 C    1.056
     6   7 N    2.988 --     7 C    1.451     5 C    1.208
     7   6 C    3.949 --     6 N    1.451    21 N    1.369     8 C    0.970
     8   6 C    3.965 --     9 C    0.999    10 C    0.975     7 C    0.970
                            11 N    0.962
     9   6 C    3.997 --     8 C    0.999    31 H    0.987    30 H    0.986
                            29 H    0.981
    10   6 C    3.995 --    33 H    0.988    32 H    0.986    34 H    0.982
                             8 C    0.975
    11   7 N    3.095 --    12 C    0.988     8 C    0.962    35 H    0.928
    12   6 C    3.925 --    14 C    1.465    13 O    1.352    11 N    0.988
    13   8 O    1.705 --    12 C    1.352    14 C    0.161
    14   6 C    3.601 --    12 C    1.465    19 N    0.945    15 O    0.863
                            13 O    0.161
    15   8 O    2.188 --    16 C    1.098    14 C    0.863    18 N    0.137
    16   6 C    3.909 --    18 N    1.703    15 O    1.098    17 C    1.012
    17   6 C    3.995 --    16 C    1.012    37 H    0.987    36 H    0.974
                            38 H    0.973
    18   7 N    2.943 --    16 C    1.703    19 N    0.982    15 O    0.137
    19   7 N    3.052 --    18 N    0.982    20 C    0.973    14 C    0.945
    20   6 C    3.984 --    41 H    0.989    39 H    0.988    40 H    0.983
                            19 N    0.973
    21   7 N    2.988 --     7 C    1.369    22 C    1.241    23 O    0.127
    22   6 C    3.932 --    23 O    1.484    21 N    1.241    24 C    1.073
    23   8 O    1.773 --    22 C    1.484    21 N    0.127
    24   6 C    3.900 --     5 C    1.451    22 C    1.073    25 O    1.066
    25   8 O    2.043 --    24 C    1.066    42 H    0.810
    26   1 H    1.014 --     1 C    0.987
    27   1 H    1.011 --     1 C    0.980
    28   1 H    1.011 --     1 C    0.980
    29   1 H    1.032 --     9 C    0.981
    30   1 H    1.020 --     9 C    0.986
    31   1 H    1.021 --     9 C    0.987
    32   1 H    1.017 --    10 C    0.986
    33   1 H    1.009 --    10 C    0.988
    34   1 H    1.025 --    10 C    0.982
    35   1 H    0.994 --    11 N    0.928
    36   1 H    1.004 --    17 C    0.974
    37   1 H    1.007 --    17 C    0.987
    38   1 H    1.004 --    17 C    0.973
    39   1 H    1.033 --    20 C    0.988
    40   1 H    1.024 --    20 C    0.983
    41   1 H    1.027 --    20 C    0.989
    42   1 H    0.880 --    25 O    0.810
 ---------------------------------------------------------------------------

           -------------------------------------------------
          | TOTAL ENERGY              -83.619709582157 Eh   |
          | GRADIENT NORM               0.000549386342 Eh/α |
          | HOMO-LUMO GAP               0.353546649236 eV   |
           -------------------------------------------------

 * finished run on 2023/06/20 at 17:53:13.007
