   * xtb version 6.5.1 (579679a) compiled by 'ehlert@majestix' on 2022-07-11
          program call               : /lustre/hpc/kemi/ree/PhD/git/ReactivityQM/dep/xtb-6.5.1/bin/xtb --gfn 1 /lustre/hpc/kemi/ree/PhD/git/ReactivityQM/calculations/R03/reac01prodN03/conf02/R03_reac01prodN03_conf02_gfn1.xyz --opt --vfukui --chrg 1 --uhf 0 --alpb DMSO

   ID    Z sym.   atoms
    1    6 C      1-4, 6-9
    2    9 F      5
    3    7 N      10
    4    1 H      11-21

      * Solvation model:               ALPB
        Solvent                        DMSO
        Solvent mass                       7.8130E+01 g/mol
          :  Hamiltonian                  GFN1-xTB          :
 * total energy  :   -30.7602093 Eh     change       -0.5069722E-11 Eh
 * total energy  :   -30.7659205 Eh     change       -0.5711172E-02 Eh
 * total energy  :   -30.7676050 Eh     change       -0.1684520E-02 Eh
 * total energy  :   -30.7679726 Eh     change       -0.3676214E-03 Eh
 * total energy  :   -30.7684645 Eh     change       -0.4919130E-03 Eh
 * total energy  :   -30.7688527 Eh     change       -0.3881678E-03 Eh
 * total energy  :   -30.7692895 Eh     change       -0.4367988E-03 Eh
 * total energy  :   -30.7697101 Eh     change       -0.4206355E-03 Eh
 * total energy  :   -30.7699442 Eh     change       -0.2341235E-03 Eh
 * total energy  :   -30.7700356 Eh     change       -0.9140679E-04 Eh
 * total energy  :   -30.7700680 Eh     change       -0.3240666E-04 Eh
 * total energy  :   -30.7700857 Eh     change       -0.1764358E-04 Eh
 * total energy  :   -30.7701104 Eh     change       -0.2469855E-04 Eh
 * total energy  :   -30.7701231 Eh     change       -0.1269129E-04 Eh
 * total energy  :   -30.7701308 Eh     change       -0.7761905E-05 Eh
 * total energy  :   -30.7701373 Eh     change       -0.6433507E-05 Eh
 * total energy  :   -30.7701428 Eh     change       -0.5478045E-05 Eh
 * total energy  :   -30.7701460 Eh     change       -0.3211239E-05 Eh
   *** GEOMETRY OPTIMIZATION CONVERGED AFTER 18 ITERATIONS ***

 final structure:
================
21
 xtb: 6.5.1 (579679a)
C           -0.14477439149452        2.20603883445919       -0.13082048918099
C            0.39917652697364        0.87552903419301        0.44771465505234
C            1.87089258932355        0.79582407994012        0.36350312921209
C            2.47560169077929       -0.34881063002742       -0.04535153472790
F            3.79971692727799       -0.41162215444798       -0.10392522763823
C            1.74785988376148       -1.48134105729162       -0.45156484585848
C            0.36560897079925       -1.46035952531751       -0.40746335205144
C           -0.33145719545745       -0.33145869772812        0.00197436447299
C           -1.81673888288034       -0.33417598419914       -0.00059430446851
N           -2.35275750009406       -1.67738637482757       -0.05251890116759
H           -1.19337397175711        2.32637575175037        0.12837038722268
H            0.42094568312046        3.03819253041182        0.28277490040114
H           -0.03623875754036        2.19680479068524       -1.21325570961921
H            0.18643190881069        0.94242915970163        1.53181996650447
H            2.44835018560565        1.66678220360785        0.64672344784582
H            2.28371653616868       -2.35451995682652       -0.80574146034363
H           -0.20219750399323       -2.32777371769041       -0.72777029230079
H           -2.20407070207208        0.23168976910793        0.85671670167590
H           -2.14018709299258        0.20548304080483       -0.90047882238207
H           -3.33867541070863       -1.63237258301372       -0.26524829175744
H           -2.23783149363029       -2.12532951329194        0.84513367910875

          :  Hamiltonian                  GFN1-xTB          :
         :: total energy             -30.770145964530 Eh    ::
         :: gradient norm              0.000732268267 Eh/a0 ::
         :: HOMO-LUMO gap              0.708821971723 eV    ::
         :: SCC energy               -31.163087918278 Eh    ::
         :: -> Gsolv                  -0.086542649851 Eh    ::
         :: repulsion energy           0.403118052807 Eh    ::

    * Orbital Energies and Occupations

         #    Occupation            Energy/Eh            Energy/eV
      -------------------------------------------------------------
         1        2.0000           -0.9133733             -24.8542
       ...           ...                  ...                  ...
        15        2.0000           -0.5959850             -16.2176
        16        2.0000           -0.5913653             -16.0919
        17        2.0000           -0.5844919             -15.9048
        18        2.0000           -0.5770573             -15.7025
        19        2.0000           -0.5600416             -15.2395
        20        2.0000           -0.5543535             -15.0847
        21        2.0000           -0.5510838             -14.9958
        22        2.0000           -0.5474298             -14.8963
        23        2.0000           -0.5359444             -14.5838
        24        2.0000           -0.5261584             -14.3175
        25        2.0000           -0.5234046             -14.2426
        26        2.0000           -0.4974440             -13.5361
        27        2.0000           -0.4400356             -11.9740 (HOMO)
        28        0.0000           -0.4139869             -11.2652 (LUMO)
        29                         -0.3228974              -8.7865
        30                         -0.2391368              -6.5072
        31                         -0.1644592              -4.4752
        32                         -0.1517264              -4.1287
        33                         -0.1463875              -3.9834
        34                         -0.1383400              -3.7644
        35                         -0.1270706              -3.4578
        36                         -0.1182666              -3.2182
        37                         -0.1080942              -2.9414
        38                         -0.0988187              -2.6890
       ...                                ...                  ...
        62                          0.5420260              14.7493
      -------------------------------------------------------------
                  HL-Gap            0.0260487 Eh            0.7088 eV

Wiberg/Mayer (AO) data.
largest (>0.10) Wiberg bond orders for each atom

     #   Z sym  total        # sym  WBO       # sym  WBO       # sym  WBO
 ---------------------------------------------------------------------------
     1   6 C    3.971 --    13 H    0.982    11 H    0.982    12 H    0.981
                             2 C    0.925
     2   6 C    3.991 --     8 C    1.079     3 C    1.078     1 C    0.925
                            14 H    0.836
     3   6 C    3.971 --     4 C    1.557     2 C    1.078    15 H    0.959
     4   6 C    3.883 --     3 C    1.557     6 C    1.271     5 F    0.964
     5   9 F    1.105 --     4 C    0.964
     6   6 C    3.960 --     7 C    1.459     4 C    1.271    16 H    0.961
     7   6 C    3.984 --     6 C    1.459     8 C    1.430    17 H    0.954
     8   6 C    3.928 --     7 C    1.430     2 C    1.079     9 C    1.060
     9   6 C    3.982 --     8 C    1.060    10 N    1.013    18 H    0.934
                            19 H    0.911
    10   7 N    2.994 --     9 C    1.013    21 H    0.931    20 H    0.926
    11   1 H    0.995 --     1 C    0.982
    12   1 H    0.993 --     1 C    0.981
    13   1 H    0.995 --     1 C    0.982
    14   1 H    0.982 --     2 C    0.836
    15   1 H    0.986 --     3 C    0.959
    16   1 H    0.988 --     6 C    0.961
    17   1 H    1.006 --     7 C    0.954
    18   1 H    0.993 --     9 C    0.934
    19   1 H    0.996 --     9 C    0.911
    20   1 H    0.940 --    10 N    0.926
    21   1 H    0.945 --    10 N    0.931
 ---------------------------------------------------------------------------

           -------------------------------------------------
          | TOTAL ENERGY              -30.770145964530 Eh   |
          | GRADIENT NORM               0.000732268267 Eh/α |
          | HOMO-LUMO GAP               0.708821971723 eV   |
           -------------------------------------------------

 * finished run on 2023/06/20 at 15:14:11.933
