   * xtb version 6.5.1 (579679a) compiled by 'ehlert@majestix' on 2022-07-11
          program call               : /lustre/hpc/kemi/ree/PhD/git/ReactivityQM/dep/xtb-6.5.1/bin/xtb --gfn 1 /lustre/hpc/kemi/ree/PhD/git/ReactivityQM/calculations/RaltegravirCLI/reac02prodN08/conf05/RaltegravirCLI_reac02prodN08_conf05_gfn1.xyz --opt --vfukui --chrg 1 --uhf 0 --alpb DMSO

   ID    Z sym.   atoms
    1    6 C      1, 3-6, 9, 10, 13-18, 20-22, 24
    2    7 N      2, 7, 8, 12
    3    8 O      11, 23, 25
    4    9 F      19
    5    1 H      26-47

      * Solvation model:               ALPB
        Solvent                        DMSO
        Solvent mass                       7.8130E+01 g/mol
          :  Hamiltonian                  GFN1-xTB          :
 * total energy  :   -79.4712757 Eh     change       -0.2188472E-11 Eh
 * total energy  :   -79.4809081 Eh     change       -0.9632354E-02 Eh
 * total energy  :   -79.4839155 Eh     change       -0.3007457E-02 Eh
 * total energy  :   -79.4844384 Eh     change       -0.5228654E-03 Eh
 * total energy  :   -79.4849376 Eh     change       -0.4991728E-03 Eh
 * total energy  :   -79.4852230 Eh     change       -0.2853949E-03 Eh
 * total energy  :   -79.4855569 Eh     change       -0.3339104E-03 Eh
 * total energy  :   -79.4859262 Eh     change       -0.3693482E-03 Eh
 * total energy  :   -79.4862255 Eh     change       -0.2992772E-03 Eh
 * total energy  :   -79.4864560 Eh     change       -0.2305390E-03 Eh
 * total energy  :   -79.4876367 Eh     change       -0.1670427E-04 Eh
 * total energy  :   -79.4876527 Eh     change       -0.1603038E-04 Eh
 * total energy  :   -79.4876661 Eh     change       -0.1336727E-04 Eh
 * total energy  :   -79.4876765 Eh     change       -0.1035134E-04 Eh
 * total energy  :   -79.4876846 Eh     change       -0.8159639E-05 Eh
 * total energy  :   -79.4876913 Eh     change       -0.6713589E-05 Eh
 * total energy  :   -79.4876971 Eh     change       -0.5790962E-05 Eh
 * total energy  :   -79.4877023 Eh     change       -0.5218243E-05 Eh
 * total energy  :   -79.4877070 Eh     change       -0.4695896E-05 Eh
   *** GEOMETRY OPTIMIZATION CONVERGED AFTER 41 ITERATIONS ***

 final structure:
================
47
 xtb: 6.5.1 (579679a)
C           -4.56496818411067        1.47939930628828       -0.64007853590927
N           -3.14724710630586        1.20220738523940       -0.38373040098897
C           -2.69790308272498        0.09278995450927        0.28795660856223
C           -3.64396637584667       -0.95980777570008        0.85068500285953
C           -4.17421933330860       -0.47240012007234        2.20790146259470
C           -2.87121789128483       -2.27539175009972        1.04899880134112
N           -4.76158885249945       -1.18191763169945       -0.05840287962400
N           -1.43633080218676       -0.10223188602740        0.52044820429145
C           -0.48379180385783        0.77571314928535        0.08986231604577
C            0.90819892661394        0.39003055568717        0.41957184004571
O            1.23294233065352       -0.72315093130816        0.81162514788995
N            1.87030293523131        1.34977028760476        0.25007158004740
C            3.21964188920632        0.99481745424546        0.45829248349940
C            3.80329262199105        0.11141350086705       -0.78488507224339
C            3.59148600632235        0.95813541262391       -2.05104649942623
C            5.22112665080670       -0.03273143895790       -0.41052271145087
C            5.72343675691876       -1.19025906567103        0.09650387270216
C            4.88197956196784       -2.31435766384871        0.16927631457898
F            5.37716993992120       -3.42444963536854        0.65770363220227
C            3.57817852320896       -2.31919874054140       -0.31528380317927
C            3.05678444534593       -1.15456677358335       -0.82076762328273
C           -0.85958924115746        1.87133582238705       -0.63321518552564
O           -0.00121034381082        2.76927151393047       -1.14834448812649
C           -2.26358326078245        2.12336504456306       -0.90995189147629
O           -2.61899839620432        3.10223636811086       -1.55920175408619
H           -4.90001557429528        0.89839821008149       -1.49775796577010
H           -4.66692521269819        2.54320104764075       -0.85381053302298
H           -5.16046429702041        1.21743158705550        0.22813817930017
H           -4.76571330004643        0.43451670023552        2.09565639162579
H           -3.34013445793093       -0.26704647996811        2.87773121846086
H           -4.80155876705739       -1.24445011446938        2.65120769977369
H           -3.55585154009854       -3.04473847663070        1.40202053570748
H           -2.07272011131429       -2.14392520586448        1.77796903981580
H           -2.43424700186980       -2.59697503524916        0.10517233841646
H           -5.44224776223623       -1.77639484478552        0.39485298613695
H           -4.43054225267017       -1.66590009005921       -0.88264188935180
H            1.66555274350083        2.21433697938354       -0.22821820424245
H            3.31833764181739        0.38051593601385        1.35398243256332
H            3.82930754578848        1.89291958651769        0.51816040974713
H            3.98465704715942        0.42373232006198       -2.91388322112986
H            4.10942045377372        1.91025225089283       -1.95502019329685
H            2.52857554216340        1.14180481702452       -2.19768239349424
H            5.84405144756922        0.85074732678789       -0.48329437834897
H            6.75429896051738       -1.27657997114331        0.41639905566778
H            3.00703542217543       -3.23933277538487       -0.31420944007923
H            2.10084486263898       -1.16805687771985       -1.32694194581963
H           -0.51159030397573        3.44552276711051       -1.63865854400102

          :  Hamiltonian                  GFN1-xTB          :
         :: total energy             -79.487707038211 Eh    ::
         :: gradient norm              0.000134891489 Eh/a0 ::
         :: HOMO-LUMO gap              0.348029779551 eV    ::
         :: SCC energy               -80.370125817705 Eh    ::
         :: -> Gsolv                  -0.099959099876 Eh    ::
         :: repulsion energy           0.914007837382 Eh    ::

    * Orbital Energies and Occupations

         #    Occupation            Energy/Eh            Energy/eV
      -------------------------------------------------------------
         1        2.0000           -0.9326884             -25.3797
       ...           ...                  ...                  ...
        55        2.0000           -0.5185670             -14.1109
        56        2.0000           -0.5161827             -14.0460
        57        2.0000           -0.5097150             -13.8701
        58        2.0000           -0.5061884             -13.7741
        59        2.0000           -0.4998313             -13.6011
        60        2.0000           -0.4931203             -13.4185
        61        2.0000           -0.4921653             -13.3925
        62        2.0000           -0.4820352             -13.1168
        63        2.0000           -0.4749481             -12.9240
        64        2.0000           -0.4643340             -12.6352
        65        2.0000           -0.4513411             -12.2816
        66        2.0000           -0.4344703             -11.8225
        67        1.9976           -0.4179367             -11.3726 (HOMO)
        68        0.0024           -0.4051468             -11.0246 (LUMO)
        69                         -0.3337469              -9.0817
        70                         -0.3240327              -8.8174
        71                         -0.2872020              -7.8152
        72                         -0.2539369              -6.9100
        73                         -0.2402214              -6.5368
        74                         -0.1665107              -4.5310
        75                         -0.1556475              -4.2354
        76                         -0.1515846              -4.1248
        77                         -0.1359956              -3.7006
        78                         -0.1351685              -3.6781
       ...                                ...                  ...
       144                          0.6950658              18.9137
      -------------------------------------------------------------
                  HL-Gap            0.0127899 Eh            0.3480 eV

Wiberg/Mayer (AO) data.
largest (>0.10) Wiberg bond orders for each atom

     #   Z sym  total        # sym  WBO       # sym  WBO       # sym  WBO
 ---------------------------------------------------------------------------
     1   6 C    3.916 --    28 H    0.978    27 H    0.976    26 H    0.974
                             2 N    0.923
     2   7 N    3.521 --     3 C    1.176    24 C    1.141     1 C    0.923
                            25 O    0.136
     3   6 C    3.918 --     8 N    1.559     2 N    1.176     4 C    0.977
     4   6 C    3.965 --     6 C    0.987     7 N    0.986     5 C    0.980
                             3 C    0.977
     5   6 C    3.993 --    30 H    0.986    31 H    0.982    29 H    0.980
                             4 C    0.980
     6   6 C    3.993 --     4 C    0.987    32 H    0.985    34 H    0.985
                            33 H    0.983
     7   7 N    2.976 --     4 C    0.986    36 H    0.940    35 H    0.937
     8   7 N    3.028 --     3 C    1.559     9 C    1.194
     9   6 C    3.966 --    22 C    1.491     8 N    1.194    10 C    1.021
    10   6 C    3.888 --    11 O    1.586    12 N    1.180     9 C    1.021
    11   8 O    1.945 --    10 C    1.586    12 N    0.113
    12   7 N    3.396 --    10 C    1.180    13 C    1.049    37 H    0.869
                            11 O    0.113
    13   6 C    3.934 --    12 N    1.049    39 H    0.971    38 H    0.970
                            14 C    0.762
    14   6 C    3.982 --    21 C    1.106    16 C    1.085    15 C    0.955
                            13 C    0.762
    15   6 C    3.977 --    41 H    0.982    40 H    0.980    42 H    0.980
                            14 C    0.955
    16   6 C    3.958 --    17 C    1.626    14 C    1.085    43 H    0.964
    17   6 C    3.984 --    16 C    1.626    18 C    1.268    44 H    0.958
    18   6 C    3.843 --    20 C    1.346    17 C    1.268    19 F    1.016
    19   9 F    1.170 --    18 C    1.016
    20   6 C    3.984 --    21 C    1.530    18 C    1.346    45 H    0.958
    21   6 C    3.943 --    20 C    1.530    14 C    1.106    46 H    0.963
    22   6 C    3.914 --     9 C    1.491    23 O    1.083    24 C    1.080
    23   8 O    2.077 --    22 C    1.083    47 H    0.790
    24   6 C    3.919 --    25 O    1.550     2 N    1.141    22 C    1.080
    25   8 O    1.898 --    24 C    1.550     2 N    0.136
    26   1 H    1.015 --     1 C    0.974
    27   1 H    1.007 --     1 C    0.976
    28   1 H    1.022 --     1 C    0.978
    29   1 H    1.004 --     5 C    0.980
    30   1 H    1.003 --     5 C    0.986
    31   1 H    0.999 --     5 C    0.982
    32   1 H    1.003 --     6 C    0.985
    33   1 H    1.013 --     6 C    0.983
    34   1 H    1.006 --     6 C    0.985
    35   1 H    0.952 --     7 N    0.937
    36   1 H    0.955 --     7 N    0.940
    37   1 H    0.930 --    12 N    0.869
    38   1 H    1.005 --    13 C    0.970
    39   1 H    0.996 --    13 C    0.971
    40   1 H    0.996 --    15 C    0.980
    41   1 H    0.994 --    15 C    0.982
    42   1 H    0.999 --    15 C    0.980
    43   1 H    0.990 --    16 C    0.964
    44   1 H    0.987 --    17 C    0.958
    45   1 H    0.988 --    20 C    0.958
    46   1 H    1.002 --    21 C    0.963
    47   1 H    0.835 --    23 O    0.790
 ---------------------------------------------------------------------------

           -------------------------------------------------
          | TOTAL ENERGY              -79.487707038211 Eh   |
          | GRADIENT NORM               0.000134891489 Eh/α |
          | HOMO-LUMO GAP               0.348029779551 eV   |
           -------------------------------------------------

 * finished run on 2023/06/20 at 15:27:10.534
