   * xtb version 6.5.1 (579679a) compiled by 'ehlert@majestix' on 2022-07-11
          program call               : /lustre/hpc/kemi/ree/PhD/git/ReactivityQM/dep/xtb-6.5.1/bin/xtb --gfn 1 /lustre/hpc/kemi/ree/PhD/git/ReactivityQM/calculations/R02/reac01prodE11/conf01/R02_reac01prodE11_conf01_gfn1.xyz --opt --vfukui --chrg -1 --uhf 0 --alpb DMSO

   ID    Z sym.   atoms
    1    6 C      1, 3, 5, 7-10, 12, 14, 17-19, 22, 24
    2    8 O      2, 4, 13, 20, 23, 25
    3    7 N      6, 11, 15, 16, 21
    4    1 H      26-43

      * Solvation model:               ALPB
        Solvent                        DMSO
        Solvent mass                       7.8130E+01 g/mol
          :  Hamiltonian                  GFN1-xTB          :
 * total energy  :   -83.8683203 Eh     change       -0.1510131E-08 Eh
 * total energy  :   -83.8783233 Eh     change       -0.1000303E-01 Eh
 * total energy  :   -83.8820641 Eh     change       -0.3740753E-02 Eh
 * total energy  :   -83.8827302 Eh     change       -0.6661031E-03 Eh
 * total energy  :   -83.8831853 Eh     change       -0.4551345E-03 Eh
 * total energy  :   -83.8833543 Eh     change       -0.1690530E-03 Eh
 * total energy  :   -83.8834696 Eh     change       -0.1152534E-03 Eh
 * total energy  :   -83.8835402 Eh     change       -0.7063860E-04 Eh
 * total energy  :   -83.8835882 Eh     change       -0.4800417E-04 Eh
 * total energy  :   -83.8836161 Eh     change       -0.2791171E-04 Eh
 * total energy  :   -83.8836298 Eh     change       -0.1365192E-04 Eh
 * total energy  :   -83.8836386 Eh     change       -0.8758846E-05 Eh
 * total energy  :   -83.8836437 Eh     change       -0.5146318E-05 Eh
 * total energy  :   -83.8836484 Eh     change       -0.4708544E-05 Eh
   *** GEOMETRY OPTIMIZATION CONVERGED AFTER 14 ITERATIONS ***

 final structure:
================
43
 xtb: 6.5.1 (579679a)
C            6.52458985172104        1.13407930571343       -1.70369318965459
O            5.33095037698941        1.37007779179297       -0.94685744301555
C            4.46499565481423        0.34173532544509       -0.88075046780781
O            4.67746432129018       -0.71846612310217       -1.42465702096698
C            3.24843103536347        0.64112818646089       -0.08590407191760
N            2.36295762634007       -0.40944195929376       -0.05726922206846
C            1.25529525558681       -0.29254684265100        0.59346125755937
C            0.28976383825704       -1.45525833218799        0.69780738011107
C            0.48269887984368       -2.40454947125357       -0.49265396360851
C            0.60609772941957       -2.16721906329912        2.02500989972242
N           -1.05423056057918       -0.88554308468353        0.72645789444203
C           -2.17788767817070       -1.75174567359475        0.74935779769091
O           -2.10218801710874       -2.92002781927344        1.17467422874300
C           -3.36012086963025       -1.13127647435203        0.29644282313040
N           -4.57461214454148       -1.66526819141926        0.23040462458435
N           -5.42786305514199       -0.82567523459133       -0.26178572081503
C           -4.71007188985442        0.42256628438536       -0.56359770332504
C           -5.29986682056296        1.57234180989924        0.26805771349520
C           -4.80343512663925        0.72460298255349       -2.06688024650294
O           -3.35791749642742        0.18801994155504       -0.19062821023354
N            0.93369465816619        0.84378935598560        1.27347658512388
C            1.73622259824211        1.96281420254421        1.33451745650018
O            1.39605899051179        2.94925415518515        1.97152688815573
C            2.98283937302257        1.81557390488649        0.58012008273440
O            3.78234862006834        2.89432172803121        0.62298217567130
H            7.09446335083563        2.05944022248314       -1.68581667076965
H            6.26828432734803        0.86535079243042       -2.73119122412540
H            7.10066428172722        0.32468544038101       -1.24934548243721
H            1.52015031519948       -2.73374633906096       -0.53298277274566
H           -0.16493927849427       -3.27324388356333       -0.38473599638604
H            0.24216732083648       -1.89010857218876       -1.42221228162806
H           -0.00474000192454       -3.06151984626190        2.13147341486817
H            0.40525278477435       -1.49713690437704        2.86004208346941
H            1.65752076899998       -2.45127646413445        2.04334090478194
H           -1.17409374017328       -0.14418022832520        0.04524313141360
H           -6.34988729346866        1.70520351163902        0.01511989434761
H           -5.21559672075230        1.33221294059466        1.32685097684038
H           -4.76039421212609        2.49655239735662        0.06899890135202
H           -4.37440414279729       -0.10419683260669       -2.62761149914747
H           -5.84644697153871        0.84668150801099       -2.35231541433248
H           -4.25521390033390        1.63487733476471       -2.30277966980737
H            0.04933773633803        0.88408286962106        1.76569941311692
H            4.60165922456385        2.77303334850357        0.11515474345268

          :  Hamiltonian                  GFN1-xTB          :
         :: total energy             -83.883648415102 Eh    ::
         :: gradient norm              0.000926498261 Eh/a0 ::
         :: HOMO-LUMO gap              0.178176902696 eV    ::
         :: SCC energy               -84.641307809556 Eh    ::
         :: -> Gsolv                  -0.114946166308 Eh    ::
         :: repulsion energy           0.783734847909 Eh    ::

    * Orbital Energies and Occupations

         #    Occupation            Energy/Eh            Energy/eV
      -------------------------------------------------------------
         1        2.0000           -0.8364084             -22.7598
       ...           ...                  ...                  ...
        56        2.0000           -0.4763769             -12.9629
        57        2.0000           -0.4734517             -12.8833
        58        2.0000           -0.4724769             -12.8567
        59        2.0000           -0.4505396             -12.2598
        60        2.0000           -0.4468999             -12.1608
        61        2.0000           -0.4399754             -11.9723
        62        2.0000           -0.4365518             -11.8792
        63        2.0000           -0.4197647             -11.4224
        64        2.0000           -0.4180960             -11.3770
        65        2.0000           -0.4126229             -11.2280
        66        2.0000           -0.3989563             -10.8562
        67        2.0000           -0.3743838             -10.1875
        68        1.9382           -0.3213525              -8.7444 (HOMO)
        69        0.0618           -0.3148046              -8.5663 (LUMO)
        70                         -0.2682838              -7.3004
        71                         -0.2436456              -6.6299
        72                         -0.2308673              -6.2822
        73                         -0.1475610              -4.0153
        74                         -0.1339224              -3.6442
        75                         -0.1316265              -3.5817
        76                         -0.1099456              -2.9918
        77                         -0.1058102              -2.8792
        78                         -0.1050066              -2.8574
        79                         -0.0990803              -2.6961
       ...                                ...                  ...
       136                          0.7311505              19.8956
      -------------------------------------------------------------
                  HL-Gap            0.0065479 Eh            0.1782 eV

Wiberg/Mayer (AO) data.
largest (>0.10) Wiberg bond orders for each atom

     #   Z sym  total        # sym  WBO       # sym  WBO       # sym  WBO
 ---------------------------------------------------------------------------
     1   6 C    3.867 --    26 H    0.986    28 H    0.980    27 H    0.980
                             2 O    0.890
     2   8 O    2.191 --     3 C    1.074     1 C    0.890     4 O    0.125
     3   6 C    3.828 --     4 O    1.657     2 O    1.074     5 C    1.020
     4   8 O    1.911 --     3 C    1.657     2 O    0.125
     5   6 C    3.945 --    24 C    1.481     6 N    1.174     3 C    1.020
     6   7 N    3.019 --     7 C    1.583     5 C    1.174
     7   6 C    3.917 --     6 N    1.583    21 N    1.170     8 C    0.979
     8   6 C    3.957 --     9 C    0.988     7 C    0.979    10 C    0.974
                            11 N    0.958
     9   6 C    3.992 --     8 C    0.988    31 H    0.986    29 H    0.985
                            30 H    0.983
    10   6 C    3.991 --    34 H    0.988    33 H    0.986    32 H    0.976
                             8 C    0.974
    11   7 N    3.161 --    12 C    1.040     8 C    0.958    35 H    0.917
    12   6 C    3.914 --    13 O    1.464    14 C    1.233    11 N    1.040
    13   8 O    1.798 --    12 C    1.464
    14   6 C    3.815 --    15 N    1.380    12 C    1.233    20 O    0.931
                            16 N    0.138
    15   7 N    3.025 --    16 N    1.489    14 C    1.380
    16   7 N    2.859 --    15 N    1.489    17 C    0.981    14 C    0.138
    17   6 C    3.896 --    16 N    0.981    19 C    0.978    18 C    0.978
                            20 O    0.919
    18   6 C    3.990 --    36 H    0.988    38 H    0.986    37 H    0.985
                            17 C    0.978
    19   6 C    3.990 --    40 H    0.988    41 H    0.986    39 H    0.985
                            17 C    0.978
    20   8 O    2.052 --    14 C    0.931    17 C    0.919
    21   7 N    3.454 --     7 C    1.170    22 C    1.125    42 H    0.881
                            23 O    0.132
    22   6 C    3.901 --    23 O    1.579    21 N    1.125    24 C    1.070
    23   8 O    1.870 --    22 C    1.579    21 N    0.132
    24   6 C    3.892 --     5 C    1.481    25 O    1.094    22 C    1.070
    25   8 O    2.070 --    24 C    1.094    43 H    0.805
    26   1 H    1.010 --     1 C    0.986
    27   1 H    1.008 --     1 C    0.980
    28   1 H    1.007 --     1 C    0.980
    29   1 H    1.013 --     9 C    0.985
    30   1 H    1.013 --     9 C    0.983
    31   1 H    1.005 --     9 C    0.986
    32   1 H    1.022 --    10 C    0.976
    33   1 H    1.006 --    10 C    0.986
    34   1 H    1.005 --    10 C    0.988
    35   1 H    0.965 --    11 N    0.917
    36   1 H    1.009 --    18 C    0.988
    37   1 H    1.013 --    18 C    0.985
    38   1 H    1.007 --    18 C    0.986
    39   1 H    1.013 --    19 C    0.985
    40   1 H    1.009 --    19 C    0.988
    41   1 H    1.007 --    19 C    0.986
    42   1 H    0.942 --    21 N    0.881
    43   1 H    0.858 --    25 O    0.805
 ---------------------------------------------------------------------------

           -------------------------------------------------
          | TOTAL ENERGY              -83.883648415102 Eh   |
          | GRADIENT NORM               0.000926498261 Eh/α |
          | HOMO-LUMO GAP               0.178176902696 eV   |
           -------------------------------------------------

 * finished run on 2023/06/20 at 15:13:28.356
