   * xtb version 6.5.1 (579679a) compiled by 'ehlert@majestix' on 2022-07-11
          program call               : /lustre/hpc/kemi/ree/PhD/git/ReactivityQM/dep/xtb-6.5.1/bin/xtb --gfn 1 /lustre/hpc/kemi/ree/PhD/git/ReactivityQM/calculations/R03/reac02prodN07/conf16/R03_reac02prodN07_conf16_gfn1.xyz --opt --vfukui --chrg 1 --uhf 0 --alpb DMSO

   ID    Z sym.   atoms
    1    6 C      1, 3, 5, 7-10, 12, 14, 17-19, 22, 23, 25
    2    8 O      2, 4, 13, 20, 24, 26
    3    7 N      6, 11, 15, 16, 21
    4    1 H      27-46

      * Solvation model:               ALPB
        Solvent                        DMSO
        Solvent mass                       7.8130E+01 g/mol
          :  Hamiltonian                  GFN1-xTB          :
 * total energy  :   -86.3384106 Eh     change       -0.2047784E-10 Eh
 * total energy  :   -86.3558353 Eh     change       -0.1742466E-01 Eh
 * total energy  :   -86.3614074 Eh     change       -0.5572157E-02 Eh
 * total energy  :   -86.3623326 Eh     change       -0.9251607E-03 Eh
 * total energy  :   -86.3628018 Eh     change       -0.4692446E-03 Eh
 * total energy  :   -86.3629660 Eh     change       -0.1641708E-03 Eh
 * total energy  :   -86.3631397 Eh     change       -0.1736900E-03 Eh
 * total energy  :   -86.3632897 Eh     change       -0.1500462E-03 Eh
 * total energy  :   -86.3634044 Eh     change       -0.1146566E-03 Eh
 * total energy  :   -86.3634798 Eh     change       -0.7539615E-04 Eh
 * total energy  :   -86.3641476 Eh     change       -0.8991737E-05 Eh
 * total energy  :   -86.3641546 Eh     change       -0.7097226E-05 Eh
 * total energy  :   -86.3641644 Eh     change       -0.9747217E-05 Eh
 * total energy  :   -86.3641715 Eh     change       -0.7078080E-05 Eh
 * total energy  :   -86.3641916 Eh     change       -0.2008542E-04 Eh
 * total energy  :   -86.3642065 Eh     change       -0.1493878E-04 Eh
 * total energy  :   -86.3642165 Eh     change       -0.1005024E-04 Eh
 * total energy  :   -86.3642235 Eh     change       -0.6982934E-05 Eh
 * total energy  :   -86.3642280 Eh     change       -0.4490075E-05 Eh
   *** GEOMETRY OPTIMIZATION CONVERGED AFTER 36 ITERATIONS ***

 final structure:
================
46
 xtb: 6.5.1 (579679a)
C            6.72706225115755        2.12837530916694        0.74936853806714
O            5.62738334971975        1.58846909837537        0.00884594429931
C            4.63155732625360        1.06609229385042        0.71937135248502
O            4.62620601244458        1.02632369023642        1.92858863897449
C            3.52160289116713        0.53473724502650       -0.12643285089443
N            2.50405204192214       -0.03604443056729        0.58938519080340
C            1.46309659960244       -0.53909995041496        0.01464868882230
C            0.43248247723728       -1.16182839867803        0.94592549252086
C            0.56404375572385       -2.69119137399408        0.90760698190096
C            0.66051663534888       -0.65246415670856        2.37590795945723
N           -0.90944837024489       -0.72232834638775        0.52104013258011
C           -2.04432458094324       -1.19853419993849        1.05205069687057
O           -2.16420575463042       -2.08473638962577        1.86977765094162
C           -3.25868946104043       -0.50770413835848        0.49267561885788
N           -4.49841654170644       -0.72295238563783        0.80713966700219
N           -5.20361236818403        0.13581169384030        0.04751190532172
C           -6.64997005208765        0.15495354451432        0.13019234647029
C           -4.39122117357069        0.84475437874424       -0.70711449082217
C           -4.70895647853743        1.89170699852772       -1.69114795429274
O           -3.15769213454504        0.45870527459277       -0.44394692797158
N            1.32785374181122       -0.55813059132148       -1.35213653320930
C            0.19263400423514       -1.11131564371184       -2.09122324956918
C            2.28430127529968        0.02087945835589       -2.16861841437732
O            2.16968351459791        0.04794594268365       -3.38853423201804
C            3.44241499816642        0.58647939887759       -1.48994862006582
O            4.36180538372788        1.13271953634516       -2.29034580818816
H            7.16461300423583        1.35716420854634        1.38815013254544
H            7.45501126501798        2.47311961723687        0.01752341395724
H            6.38690023362607        2.96173603555337        1.36860711770588
H            0.24676550188916       -3.09226729848299       -0.05143605665972
H           -0.04001787898796       -3.14185782549246        1.69210365269785
H            1.60817684329375       -2.95426185553502        1.07152354920336
H           -0.09449035839005       -1.07349351383372        3.03716273888269
H            1.64884015179425       -0.95410585973103        2.71913414831705
H            0.59348527181380        0.43355528293607        2.39821653751545
H           -0.96903278568961        0.09952014901482       -0.05517560459302
H           -7.00230561737307        1.13650104018161       -0.17475089496369
H           -7.04936145750971       -0.61011851767063       -0.53519000640254
H           -6.93440941267545       -0.05730730794386        1.15859240121020
H           -5.32318136544868        1.47494094658214       -2.49105013127434
H           -3.78583882592189        2.28969963533549       -2.10666850420581
H           -5.27637633623539        2.69276416601485       -1.21507849348150
H           -0.44599872299492       -0.29295961681097       -2.42038713980331
H           -0.37460985128877       -1.79764389419491       -1.47638553966552
H            0.58340507083364       -1.63134991369477       -2.96606485386693
H            4.05827092709915        1.05474466419305       -3.21433719109014

          :  Hamiltonian                  GFN1-xTB          :
         :: total energy             -86.364228020996 Eh    ::
         :: gradient norm              0.000883551172 Eh/a0 ::
         :: HOMO-LUMO gap              1.997628314598 eV    ::
         :: SCC energy               -87.209864053938 Eh    ::
         :: -> Gsolv                  -0.129695505292 Eh    ::
         :: repulsion energy           0.874129305785 Eh    ::

    * Orbital Energies and Occupations

         #    Occupation            Energy/Eh            Energy/eV
      -------------------------------------------------------------
         1        2.0000           -0.9411254             -25.6093
       ...           ...                  ...                  ...
        58        2.0000           -0.5256641             -14.3040
        59        2.0000           -0.5220182             -14.2048
        60        2.0000           -0.5184384             -14.1074
        61        2.0000           -0.5157236             -14.0336
        62        2.0000           -0.5123851             -13.9427
        63        2.0000           -0.4988086             -13.5733
        64        2.0000           -0.4942477             -13.4492
        65        2.0000           -0.4890179             -13.3069
        66        2.0000           -0.4827921             -13.1374
        67        2.0000           -0.4770903             -12.9823
        68        2.0000           -0.4650381             -12.6543
        69        2.0000           -0.4538619             -12.3502
        70        2.0000           -0.4355872             -11.8529 (HOMO)
        71                         -0.3621757              -9.8553 (LUMO)
        72                         -0.3460978              -9.4178
        73                         -0.3282902              -8.9332
        74                         -0.2919535              -7.9445
        75                         -0.2454039              -6.6778
        76                         -0.2445348              -6.6541
        77                         -0.1856853              -5.0528
        78                         -0.1734877              -4.7208
        79                         -0.1629077              -4.4329
        80                         -0.1491474              -4.0585
        81                         -0.1392105              -3.7881
       ...                                ...                  ...
       144                          0.7281202              19.8132
      -------------------------------------------------------------
                  HL-Gap            0.0734115 Eh            1.9976 eV

Wiberg/Mayer (AO) data.
largest (>0.10) Wiberg bond orders for each atom

     #   Z sym  total        # sym  WBO       # sym  WBO       # sym  WBO
 ---------------------------------------------------------------------------
     1   6 C    3.870 --    28 H    0.986    27 H    0.980    29 H    0.979
                             2 O    0.895
     2   8 O    2.206 --     3 C    1.119     1 C    0.895     4 O    0.136
     3   6 C    3.852 --     4 O    1.658     2 O    1.119     5 C    0.996
     4   8 O    1.920 --     3 C    1.658     2 O    0.136
     5   6 C    3.962 --    25 C    1.494     6 N    1.184     3 C    0.996
     6   7 N    3.035 --     7 C    1.582     5 C    1.184
     7   6 C    3.934 --     6 N    1.582    21 N    1.164     8 C    0.978
     8   6 C    3.918 --    10 C    0.987     9 C    0.981     7 C    0.978
                            11 N    0.906
     9   6 C    3.985 --    32 H    0.983     8 C    0.981    30 H    0.979
                            31 H    0.977
    10   6 C    3.986 --     8 C    0.987    35 H    0.984    33 H    0.983
                            34 H    0.982
    11   7 N    3.378 --    12 C    1.285     8 C    0.906    36 H    0.891
                            13 O    0.196
    12   6 C    3.925 --    13 O    1.611    11 N    1.285    14 C    0.955
    13   8 O    1.939 --    12 C    1.611    11 N    0.196
    14   6 C    3.840 --    15 N    1.622    20 O    1.051    12 C    0.955
    15   7 N    2.984 --    14 C    1.622    16 N    1.149
    16   7 N    3.632 --    18 C    1.427    15 N    1.149    17 C    0.909
    17   6 C    3.884 --    37 H    0.978    39 H    0.973    38 H    0.963
                            16 N    0.909
    18   6 C    3.839 --    16 N    1.427    20 O    1.143    19 C    1.041
    19   6 C    3.960 --    18 C    1.041    41 H    0.972    42 H    0.945
                            40 H    0.943
    20   8 O    2.372 --    18 C    1.143    14 C    1.051
    21   7 N    3.506 --     7 C    1.164    23 C    1.129    22 C    0.927
                            24 O    0.135
    22   6 C    3.920 --    44 H    0.979    43 H    0.975    45 H    0.972
                            21 N    0.927
    23   6 C    3.913 --    24 O    1.562    21 N    1.129    25 C    1.072
    24   8 O    1.905 --    23 C    1.562    21 N    0.135
    25   6 C    3.922 --     5 C    1.494    26 O    1.112    23 C    1.072
    26   8 O    2.089 --    25 C    1.112    46 H    0.803
    27   1 H    1.007 --     1 C    0.980
    28   1 H    1.010 --     1 C    0.986
    29   1 H    1.007 --     1 C    0.979
    30   1 H    1.000 --     9 C    0.979
    31   1 H    1.007 --     9 C    0.977
    32   1 H    1.000 --     9 C    0.983
    33   1 H    1.003 --    10 C    0.983
    34   1 H    1.011 --    10 C    0.982
    35   1 H    1.005 --    10 C    0.984
    36   1 H    0.932 --    11 N    0.891
    37   1 H    0.989 --    17 C    0.978
    38   1 H    0.989 --    17 C    0.963
    39   1 H    0.991 --    17 C    0.973
    40   1 H    0.985 --    19 C    0.943
    41   1 H    0.986 --    19 C    0.972
    42   1 H    0.985 --    19 C    0.945
    43   1 H    1.000 --    22 C    0.975
    44   1 H    1.008 --    22 C    0.979
    45   1 H    1.003 --    22 C    0.972
    46   1 H    0.845 --    26 O    0.803
 ---------------------------------------------------------------------------

           -------------------------------------------------
          | TOTAL ENERGY              -86.364228020996 Eh   |
          | GRADIENT NORM               0.000883551172 Eh/α |
          | HOMO-LUMO GAP               1.997628314598 eV   |
           -------------------------------------------------

 * finished run on 2023/06/20 at 15:42:20.020
