   * xtb version 6.5.1 (579679a) compiled by 'ehlert@majestix' on 2022-07-11
          program call               : /lustre/hpc/kemi/ree/PhD/git/ReactivityQM/dep/xtb-6.5.1/bin/xtb --gfn 1 /lustre/hpc/kemi/ree/PhD/git/ReactivityQM/calculations/RaltegravirCLI/reac01prodE01/conf06/RaltegravirCLI_reac01prodE01_conf06_gfn1.xyz --opt --vfukui --chrg -1 --uhf 0 --alpb DMSO

   ID    Z sym.   atoms
    1    6 C      1, 2, 5-7
    2    7 N      3, 4
    3    8 O      8, 10
    4   17 Cl     9
    5    1 H      11-16

      * Solvation model:               ALPB
        Solvent                        DMSO
        Solvent mass                       7.8130E+01 g/mol
          :  Hamiltonian                  GFN1-xTB          :
 * total energy  :   -34.1587771 Eh     change       -0.1563194E-11 Eh
 * total energy  :   -34.1702155 Eh     change       -0.1143841E-01 Eh
 * total energy  :   -34.1809447 Eh     change       -0.1072919E-01 Eh
 * total energy  :   -34.1850817 Eh     change       -0.4137027E-02 Eh
 * total energy  :   -34.1920878 Eh     change       -0.7006051E-02 Eh
 * total energy  :   -34.1982633 Eh     change       -0.6175511E-02 Eh
 * total energy  :   -34.2023536 Eh     change       -0.4090268E-02 Eh
 * total energy  :   -34.2042449 Eh     change       -0.1891391E-02 Eh
 * total energy  :   -34.2059649 Eh     change       -0.1719979E-02 Eh
 * total energy  :   -34.2067629 Eh     change       -0.7979745E-03 Eh
 * total energy  :   -34.2081794 Eh     change        0.6424136E-03 Eh
 * total energy  :   -34.2088781 Eh     change       -0.6986983E-03 Eh
 * total energy  :   -34.2089124 Eh     change       -0.3426925E-04 Eh
 * total energy  :   -34.2089307 Eh     change       -0.1837776E-04 Eh
 * total energy  :   -34.2089468 Eh     change       -0.1609413E-04 Eh
 * total energy  :   -34.2089653 Eh     change       -0.1841396E-04 Eh
 * total energy  :   -34.2089864 Eh     change       -0.2116914E-04 Eh
 * total energy  :   -34.2089943 Eh     change       -0.7922353E-05 Eh
 * total energy  :   -34.2089977 Eh     change       -0.3365172E-05 Eh
   *** GEOMETRY OPTIMIZATION CONVERGED AFTER 37 ITERATIONS ***

 final structure:
================
16
 xtb: 6.5.1 (579679a)
C            2.81297828561063        0.37038645934673        0.69520558439448
C            1.63963376468810       -0.12893853676218       -0.05313365861224
N            1.62741532478740       -1.00915911607388       -1.00973842179089
N            0.33387735462009       -1.14309594940986       -1.39961666436341
C           -0.37113419214260       -0.34094714050910       -0.65539716146297
C           -1.83330643420282       -0.11027741540936       -0.70444035483158
C           -2.36954540477356        0.74628581717630        0.40104721896311
O           -2.51086992520789       -0.58471133079094       -1.58732591234560
Cl          -1.58937070297450       -2.46810917788680        1.94619964583580
O            0.41270947800300        0.32956076699524        0.21719622542585
H            2.79398545570229        1.45847089027101        0.73121069171549
H            3.72638765998849        0.03410112894960        0.21135888809537
H            2.79114506743791       -0.00145199413940        1.72038557037332
H           -3.42374783918960        0.95523941400595        0.24059981941725
H           -2.23533217841526        0.21836809404356        1.34641700935102
H           -1.80482471392420        1.67427709022230        0.45515851982447

          :  Hamiltonian                  GFN1-xTB          :
         :: total energy             -34.208997708444 Eh    ::
         :: gradient norm              0.000623585339 Eh/a0 ::
         :: HOMO-LUMO gap              3.338404073077 eV    ::
         :: SCC energy               -34.493355018577 Eh    ::
         :: -> Gsolv                  -0.113429155309 Eh    ::
         :: repulsion energy           0.291590607966 Eh    ::

    * Orbital Energies and Occupations

         #    Occupation            Energy/Eh            Energy/eV
      -------------------------------------------------------------
         1        2.0000           -0.8585944             -23.3635
       ...           ...                  ...                  ...
        16        2.0000           -0.5431494             -14.7798
        17        2.0000           -0.5375405             -14.6272
        18        2.0000           -0.5311892             -14.4544
        19        2.0000           -0.5193678             -14.1327
        20        2.0000           -0.5149976             -14.0138
        21        2.0000           -0.4999046             -13.6031
        22        2.0000           -0.4752696             -12.9327
        23        2.0000           -0.4739003             -12.8955
        24        2.0000           -0.4738080             -12.8930
        25        2.0000           -0.4728906             -12.8680
        26        2.0000           -0.4578413             -12.4585
        27        2.0000           -0.4503728             -12.2553
        28        2.0000           -0.4427091             -12.0467 (HOMO)
        29                         -0.3200250              -8.7083 (LUMO)
        30                         -0.2526082              -6.8738
        31                         -0.2067732              -5.6266
        32                         -0.1404679              -3.8223
        33                         -0.1223881              -3.3303
        34                         -0.0729049              -1.9838
        35                         -0.0719344              -1.9574
        36                         -0.0611762              -1.6647
        37                         -0.0518880              -1.4119
        38                          0.0366512               0.9973
        39                          0.0366575               0.9975
       ...                                ...                  ...
        57                          0.7197799              19.5862
      -------------------------------------------------------------
                  HL-Gap            0.1226841 Eh            3.3384 eV

Wiberg/Mayer (AO) data.
largest (>0.10) Wiberg bond orders for each atom

     #   Z sym  total        # sym  WBO       # sym  WBO       # sym  WBO
 ---------------------------------------------------------------------------
     1   6 C    3.987 --     2 C    1.032    12 H    0.982    11 H    0.968
                            13 H    0.959
     2   6 C    3.873 --     3 N    1.589    10 O    1.092     1 C    1.032
     3   7 N    2.982 --     2 C    1.589     4 N    1.217
     4   7 N    3.003 --     5 C    1.599     3 N    1.217
     5   6 C    3.868 --     4 N    1.599    10 O    1.047     6 C    1.011
     6   6 C    3.862 --     8 O    1.745     7 C    1.014     5 C    1.011
     7   6 C    3.992 --     6 C    1.014    14 H    0.983    16 H    0.963
                            15 H    0.946
     8   8 O    1.966 --     6 C    1.745
     9  17 Cl   0.022
    10   8 O    2.327 --     2 C    1.092     5 C    1.047
    11   1 H    0.997 --     1 C    0.968
    12   1 H    0.999 --     1 C    0.982
    13   1 H    0.997 --     1 C    0.959
    14   1 H    1.002 --     7 C    0.983
    15   1 H    1.009 --     7 C    0.946
    16   1 H    1.002 --     7 C    0.963
 ---------------------------------------------------------------------------

           -------------------------------------------------
          | TOTAL ENERGY              -34.208997708444 Eh   |
          | GRADIENT NORM               0.000623585339 Eh/α |
          | HOMO-LUMO GAP               3.338404073077 eV   |
           -------------------------------------------------

 * finished run on 2023/06/20 at 14:52:09.639
