   * xtb version 6.5.1 (579679a) compiled by 'ehlert@majestix' on 2022-07-11
          program call               : /lustre/hpc/kemi/ree/PhD/git/ReactivityQM/dep/xtb-6.5.1/bin/xtb --gfn 1 /lustre/hpc/kemi/ree/PhD/git/ReactivityQM/calculations/R03/reac02prodN09/conf02/R03_reac02prodN09_conf02_gfn1.xyz --opt --vfukui --chrg 1 --uhf 0 --alpb DMSO

   ID    Z sym.   atoms
    1    6 C      1, 3, 5, 6, 8-11, 13, 15, 18, 19, 22, 23, 25
    2    8 O      2, 4, 14, 20, 24, 26
    3    7 N      7, 12, 16, 17, 21
    4    1 H      27-46

      * Solvation model:               ALPB
        Solvent                        DMSO
        Solvent mass                       7.8130E+01 g/mol
          :  Hamiltonian                  GFN1-xTB          :
 * total energy  :   -86.2797381 Eh     change       -0.1708145E-10 Eh
 * total energy  :   -86.2997613 Eh     change       -0.2002316E-01 Eh
 * total energy  :   -86.3080178 Eh     change       -0.8256553E-02 Eh
 * total energy  :   -86.3100565 Eh     change       -0.2038643E-02 Eh
 * total energy  :   -86.3115771 Eh     change       -0.1520607E-02 Eh
 * total energy  :   -86.3122564 Eh     change       -0.6793387E-03 Eh
 * total energy  :   -86.3127983 Eh     change       -0.5418432E-03 Eh
 * total energy  :   -86.3131331 Eh     change       -0.3348765E-03 Eh
 * total energy  :   -86.3133071 Eh     change       -0.1739567E-03 Eh
 * total energy  :   -86.3134455 Eh     change       -0.1383755E-03 Eh
 * total energy  :   -86.3146750 Eh     change       -0.1815376E-04 Eh
 * total energy  :   -86.3146876 Eh     change       -0.1252560E-04 Eh
 * total energy  :   -86.3147043 Eh     change       -0.1675023E-04 Eh
 * total energy  :   -86.3147135 Eh     change       -0.9230794E-05 Eh
 * total energy  :   -86.3147220 Eh     change       -0.8442915E-05 Eh
 * total energy  :   -86.3147292 Eh     change       -0.7173662E-05 Eh
 * total energy  :   -86.3147357 Eh     change       -0.6547924E-05 Eh
 * total energy  :   -86.3147411 Eh     change       -0.5386881E-05 Eh
 * total energy  :   -86.3147432 Eh     change       -0.2100142E-05 Eh
   *** GEOMETRY OPTIMIZATION CONVERGED AFTER 44 ITERATIONS ***

 final structure:
================
46
 xtb: 6.5.1 (579679a)
C           -1.87766417768187        3.39510023239487        0.03447810493036
O           -2.06716051393540        1.95857508178726        0.00990092878891
C           -3.07759070398434        1.46262949934939        0.64471718029408
O           -3.93966271323822        2.00897247003126        1.25078761220062
C           -3.07618190438343       -0.15744625599612        0.52632031285958
C           -4.22223234066998       -0.67074675868075        1.40197506977208
N           -1.81107406050325       -0.54684487915493        1.03986694796685
C           -0.80999492452255       -0.85623976776693        0.30534830666052
C            0.42600758591317       -1.33112379207081        1.05846314329446
C            0.45693082157952       -2.86674125066293        0.97805644320530
C            0.33890979195685       -0.88421543012157        2.52460471465464
N            1.61810183441853       -0.73093825219816        0.46181169941453
C            2.88001782400460       -1.06481250173114        0.84522914799955
O            3.17197012409916       -1.97812182129650        1.59237561853134
C            3.89788693506206       -0.19597418157609        0.21156043108813
N            5.18257603237254       -0.22633557908242        0.37791718599756
N            5.70386738440478        0.75925664568363       -0.40262859681947
C            4.70612077206886        1.33283340925646       -0.99937037733934
C            4.74923230749304        2.45994764199214       -1.95490763710721
O            3.53183981385138        0.77599456943213       -0.65451990689721
N           -0.86681159945206       -0.87079309310162       -1.08945845880170
C            0.28340075367450       -1.12256049925411       -1.96480183644768
C           -2.03205025648226       -0.61771269625142       -1.75386950420707
O           -2.17097483150739       -0.62828872829092       -2.96201255413075
C           -3.21802123104007       -0.36845272047878       -0.89795981389319
O           -4.34450441106224       -0.27415416845981       -1.49028513247205
H           -1.29812977520755        3.65442677621507        0.92011569421839
H           -1.32619281063080        3.63722260686757       -0.87039087973301
H           -2.84736439546805        3.89296660228325        0.05133364393211
H           -4.21623594158908       -1.75791061404863        1.39087689698757
H           -4.07462431552755       -0.31610250489267        2.41954793130409
H           -5.17031164120858       -0.30189387556434        1.01696143270144
H            0.67563819877289       -3.20433765847967       -0.03208907756856
H           -0.51563027944221       -3.25457711666781        1.27645674947360
H            1.21571530433413       -3.25825670761338        1.65303711558538
H           -0.52804825637656       -1.33638120731562        3.00164304856968
H            1.24072215625912       -1.19766510991226        3.04839881099981
H            0.24948021060229        0.19894579062139        2.57697719970141
H            1.50069954435800        0.16084021028926        0.01147578101246
H            4.13494023038816        3.28107425018714       -1.58771015780343
H            5.77595805239476        2.79644853908808       -2.08030424819196
H            4.34679286323800        2.14549199939878       -2.91744962389001
H            0.78808477725958       -0.17729221196972       -2.15987571941471
H           -0.09615335069496       -1.53261154565827       -2.89971298400657
H            0.96980290173604       -1.82034488903907       -1.50005322732209
H           -4.25807978562285       -0.37185250753702       -2.46845041609511

          :  Hamiltonian                  GFN1-xTB          :
         :: total energy             -86.314743185295 Eh    ::
         :: gradient norm              0.000365343861 Eh/a0 ::
         :: HOMO-LUMO gap              0.918105254524 eV    ::
         :: SCC energy               -87.149571551688 Eh    ::
         :: -> Gsolv                  -0.117478794220 Eh    ::
         :: repulsion energy           0.865478636513 Eh    ::

    * Orbital Energies and Occupations

         #    Occupation            Energy/Eh            Energy/eV
      -------------------------------------------------------------
         1        2.0000           -0.9145960             -24.8874
       ...           ...                  ...                  ...
        58        2.0000           -0.5308991             -14.4465
        59        2.0000           -0.5272942             -14.3484
        60        2.0000           -0.5229154             -14.2293
        61        2.0000           -0.5137451             -13.9797
        62        2.0000           -0.5111752             -13.9098
        63        2.0000           -0.5091251             -13.8540
        64        2.0000           -0.4925687             -13.4035
        65        2.0000           -0.4873884             -13.2625
        66        2.0000           -0.4856809             -13.2161
        67        2.0000           -0.4753251             -12.9343
        68        2.0000           -0.4687845             -12.7563
        69        2.0000           -0.4585230             -12.4770
        70        2.0000           -0.4568128             -12.4305 (HOMO)
        71                         -0.4230731             -11.5124 (LUMO)
        72                         -0.3361819              -9.1480
        73                         -0.3205796              -8.7234
        74                         -0.3081501              -8.3852
        75                         -0.2682479              -7.2994
        76                         -0.2618156              -7.1244
        77                         -0.2077351              -5.6528
        78                         -0.1633838              -4.4459
        79                         -0.1569517              -4.2709
        80                         -0.1509339              -4.1071
        81                         -0.1496294              -4.0716
       ...                                ...                  ...
       144                          0.7478036              20.3488
      -------------------------------------------------------------
                  HL-Gap            0.0337397 Eh            0.9181 eV

Wiberg/Mayer (AO) data.
largest (>0.10) Wiberg bond orders for each atom

     #   Z sym  total        # sym  WBO       # sym  WBO       # sym  WBO
 ---------------------------------------------------------------------------
     1   6 C    3.817 --    29 H    0.980    28 H    0.979    27 H    0.976
                             2 O    0.838
     2   8 O    2.250 --     3 C    1.216     1 C    0.838     4 O    0.148
     3   6 C    3.856 --     4 O    1.749     2 O    1.216     5 C    0.716
     4   8 O    2.090 --     3 C    1.749     2 O    0.148
     5   6 C    3.956 --    25 C    1.101     7 N    1.018     6 C    0.949
                             3 C    0.716
     6   6 C    3.965 --    32 H    0.981    31 H    0.980    30 H    0.978
                             5 C    0.949
     7   7 N    3.036 --     8 C    1.686     5 C    1.018
     8   6 C    3.912 --     7 N    1.686    21 N    1.091     9 C    0.975
     9   6 C    3.932 --    11 C    0.987     8 C    0.975    10 C    0.972
                            12 N    0.933
    10   6 C    3.983 --    34 H    0.984    33 H    0.979    35 H    0.973
                             9 C    0.972
    11   6 C    3.985 --     9 C    0.987    38 H    0.984    36 H    0.983
                            37 H    0.981
    12   7 N    3.319 --    13 C    1.215     9 C    0.933    39 H    0.895
                            14 O    0.166
    13   6 C    3.911 --    14 O    1.610    12 N    1.215    15 C    0.998
    14   8 O    1.923 --    13 C    1.610    12 N    0.166
    15   6 C    3.874 --    16 N    1.621    20 O    1.044    13 C    0.998
    16   7 N    3.003 --    15 C    1.621    17 N    1.202
    17   7 N    2.983 --    18 C    1.608    16 N    1.202
    18   6 C    3.866 --    17 N    1.608    20 O    1.070    19 C    1.033
    19   6 C    3.985 --    18 C    1.033    41 H    0.982    40 H    0.963
                            42 H    0.961
    20   8 O    2.313 --    18 C    1.070    15 C    1.044
    21   7 N    3.531 --    23 C    1.195     8 C    1.091    22 C    0.913
                            24 O    0.170
    22   6 C    3.894 --    45 H    0.974    44 H    0.969    43 H    0.964
                            21 N    0.913
    23   6 C    3.926 --    24 O    1.606    21 N    1.195    25 C    0.993
    24   8 O    1.969 --    23 C    1.606    21 N    0.170
    25   6 C    3.813 --    26 O    1.358     5 C    1.101    23 C    0.993
    26   8 O    2.279 --    25 C    1.358    46 H    0.741
    27   1 H    0.998 --     1 C    0.976
    28   1 H    1.002 --     1 C    0.979
    29   1 H    0.998 --     1 C    0.980
    30   1 H    0.994 --     6 C    0.978
    31   1 H    0.998 --     6 C    0.980
    32   1 H    0.997 --     6 C    0.981
    33   1 H    0.999 --    10 C    0.979
    34   1 H    1.000 --    10 C    0.984
    35   1 H    1.009 --    10 C    0.973
    36   1 H    1.008 --    11 C    0.983
    37   1 H    1.003 --    11 C    0.981
    38   1 H    1.003 --    11 C    0.984
    39   1 H    0.938 --    12 N    0.895
    40   1 H    0.996 --    19 C    0.963
    41   1 H    0.997 --    19 C    0.982
    42   1 H    0.996 --    19 C    0.961
    43   1 H    0.995 --    22 C    0.964
    44   1 H    0.997 --    22 C    0.969
    45   1 H    1.007 --    22 C    0.974
    46   1 H    0.790 --    26 O    0.741
 ---------------------------------------------------------------------------

           -------------------------------------------------
          | TOTAL ENERGY              -86.314743185295 Eh   |
          | GRADIENT NORM               0.000365343861 Eh/α |
          | HOMO-LUMO GAP               0.918105254524 eV   |
           -------------------------------------------------

 * finished run on 2023/06/20 at 15:44:21.401
