   * xtb version 6.5.1 (579679a) compiled by 'ehlert@majestix' on 2022-07-11
          program call               : /lustre/hpc/kemi/ree/PhD/git/ReactivityQM/dep/xtb-6.5.1/bin/xtb --gfn 1 /lustre/hpc/kemi/ree/PhD/git/ReactivityQM/calculations/R03/reac02/conf14/R03_reac02_conf14_gfn1.xyz --opt --vfukui --chrg 0 --uhf 0 --alpb DMSO

   ID    Z sym.   atoms
    1    6 C      1, 3, 5, 7-10, 12, 14, 17, 18, 21, 22, 24
    2    8 O      2, 4, 13, 19, 23, 25
    3    7 N      6, 11, 15, 16, 20
    4    1 H      26-42

      * Solvation model:               ALPB
        Solvent                        DMSO
        Solvent mass                       7.8130E+01 g/mol
          :  Hamiltonian                  GFN1-xTB          :
 * total energy  :   -82.9957491 Eh     change       -0.1226397E-10 Eh
 * total energy  :   -83.0059413 Eh     change       -0.1019221E-01 Eh
 * total energy  :   -83.0095858 Eh     change       -0.3644545E-02 Eh
 * total energy  :   -83.0103156 Eh     change       -0.7297261E-03 Eh
 * total energy  :   -83.0108587 Eh     change       -0.5430958E-03 Eh
 * total energy  :   -83.0111499 Eh     change       -0.2912730E-03 Eh
 * total energy  :   -83.0114187 Eh     change       -0.2687245E-03 Eh
 * total energy  :   -83.0116309 Eh     change       -0.2122494E-03 Eh
 * total energy  :   -83.0117567 Eh     change       -0.1258075E-03 Eh
 * total energy  :   -83.0118237 Eh     change       -0.6698647E-04 Eh
 * total energy  :   -83.0122337 Eh     change       -0.9159914E-05 Eh
 * total energy  :   -83.0122482 Eh     change       -0.1451981E-04 Eh
 * total energy  :   -83.0122548 Eh     change       -0.6535793E-05 Eh
 * total energy  :   -83.0122760 Eh     change       -0.2120523E-04 Eh
 * total energy  :   -83.0122826 Eh     change       -0.6569956E-05 Eh
 * total energy  :   -83.0122927 Eh     change       -0.1011712E-04 Eh
 * total energy  :   -83.0122979 Eh     change       -0.5221898E-05 Eh
 * total energy  :   -83.0123030 Eh     change       -0.5059105E-05 Eh
 * total energy  :   -83.0123066 Eh     change       -0.3655618E-05 Eh
   *** GEOMETRY OPTIMIZATION CONVERGED AFTER 30 ITERATIONS ***

 final structure:
================
42
 xtb: 6.5.1 (579679a)
C           -5.79071054236226       -2.00096647074753       -1.79065571268192
O           -4.84488501369400       -1.48163033887174       -0.85214199184903
C           -3.74868071913605       -0.92171273257831       -1.35903704260534
O           -3.53534181446112       -0.83644779568262       -2.54718927306406
C           -2.81298551560705       -0.40996285168400       -0.31463073588179
N           -1.67277671367232        0.15226578772968       -0.81834877620310
C           -0.75526728946745        0.64501809503508       -0.05265517679206
C            0.43760893365276        1.27540157515922       -0.76146204228937
C            0.40799496333318        2.79750966987103       -0.55960095889360
C            0.36988001111303        0.95035294855762       -2.26079451455681
N            1.66616827367140        0.68168492241945       -0.21714306657737
C            2.90485056840524        1.08313467666750       -0.58532470010157
O            3.16083397025425        2.04694532213430       -1.28534211308112
C            3.96974360664901        0.22156881242008       -0.01397825636887
N            5.25043453320729        0.32580345304052       -0.18761887978014
N            5.82762629930821       -0.68269568506591        0.52327070445290
C            4.86423641880111       -1.34179780386155        1.08764953048667
C            4.97008731257748       -2.52896192957344        1.96283203893018
O            3.66174028922678       -0.82221221151052        0.78753112807559
N           -0.87830638874003        0.64319786119736        1.31552867587670
C            0.08595307099872        1.21259528752258        2.25963518335688
C           -1.99797045120937        0.11105976732986        1.92698747878679
O           -2.14261404431262        0.11413640431613        3.14559926064828
C           -3.00334645947453       -0.45325193286980        1.03803716139508
O           -4.07500090970180       -0.97286461902669        1.64620816116448
H           -6.11278992030964       -1.21331690787301       -2.47632785473138
H           -5.34192496222597       -2.81694794178853       -2.36244769972890
H           -6.63556637292876       -2.36685277024530       -1.21072447451722
H            1.13521244429040        3.27709466202532       -1.21190874512392
H           -0.58558866334527        3.16690735000458       -0.80940917899998
H            0.63414546452378        3.06479897328399        0.46912959640853
H            0.37348355769027       -0.12799253745291       -2.40923530046423
H           -0.54278844464564        1.36261376328528       -2.68725340747578
H            1.23011558171578        1.38556943944499       -2.76634073539717
H            1.58332312018382       -0.21751682388409        0.22821979082307
H            6.01738481515610       -2.77254281995021        2.12471926890543
H            4.48703197124396       -2.33130340111364        2.91908800064527
H            4.46516163498382       -3.37699995897293        1.50034365416891
H            0.16623726513606        0.53035255743577        3.10556842284534
H           -0.28980435628027        2.17288539193945        2.61321634761540
H            1.05711695118085        1.33536405571169        1.79590333454872
H           -3.96002247569358       -0.88028424377340        2.61088289803872

          :  Hamiltonian                  GFN1-xTB          :
         :: total energy             -83.012306611005 Eh    ::
         :: gradient norm              0.000321857529 Eh/a0 ::
         :: HOMO-LUMO gap              2.895840756035 eV    ::
         :: SCC energy               -83.795901611199 Eh    ::
         :: -> Gsolv                  -0.057761801566 Eh    ::
         :: repulsion energy           0.809834810383 Eh    ::

    * Orbital Energies and Occupations

         #    Occupation            Energy/Eh            Energy/eV
      -------------------------------------------------------------
         1        2.0000           -0.8666258             -23.5821
       ...           ...                  ...                  ...
        55        2.0000           -0.5059925             -13.7688
        56        2.0000           -0.5004972             -13.6192
        57        2.0000           -0.4962215             -13.5029
        58        2.0000           -0.4847822             -13.1916
        59        2.0000           -0.4811078             -13.0916
        60        2.0000           -0.4754365             -12.9373
        61        2.0000           -0.4683779             -12.7452
        62        2.0000           -0.4623256             -12.5805
        63        2.0000           -0.4589614             -12.4890
        64        2.0000           -0.4527358             -12.3196
        65        2.0000           -0.4497587             -12.2386
        66        2.0000           -0.4461781             -12.1411
        67        2.0000           -0.4295556             -11.6888 (HOMO)
        68                         -0.3231354              -8.7930 (LUMO)
        69                         -0.3127796              -8.5112
        70                         -0.2851712              -7.7599
        71                         -0.2576498              -7.0110
        72                         -0.2400766              -6.5328
        73                         -0.2005914              -5.4584
        74                         -0.1574203              -4.2836
        75                         -0.1425130              -3.8780
        76                         -0.1412712              -3.8442
        77                         -0.1375909              -3.7440
        78                         -0.1244308              -3.3859
       ...                                ...                  ...
       134                          0.7307297              19.8842
      -------------------------------------------------------------
                  HL-Gap            0.1064202 Eh            2.8958 eV

Wiberg/Mayer (AO) data.
largest (>0.10) Wiberg bond orders for each atom

     #   Z sym  total        # sym  WBO       # sym  WBO       # sym  WBO
 ---------------------------------------------------------------------------
     1   6 C    3.872 --    28 H    0.986    26 H    0.980    27 H    0.979
                             2 O    0.897
     2   8 O    2.204 --     3 C    1.116     1 C    0.897     4 O    0.135
     3   6 C    3.851 --     4 O    1.657     2 O    1.116     5 C    0.998
     4   8 O    1.919 --     3 C    1.657     2 O    0.135
     5   6 C    3.963 --    24 C    1.494     6 N    1.187     3 C    0.998
     6   7 N    3.034 --     7 C    1.578     5 C    1.187
     7   6 C    3.930 --     6 N    1.578    20 N    1.166     8 C    0.976
     8   6 C    3.932 --    10 C    0.990     9 C    0.983     7 C    0.976
                            11 N    0.920
     9   6 C    3.988 --    30 H    0.985     8 C    0.983    31 H    0.981
                            29 H    0.977
    10   6 C    3.988 --     8 C    0.990    32 H    0.985    33 H    0.984
                            34 H    0.982
    11   7 N    3.343 --    12 C    1.241     8 C    0.920    35 H    0.895
                            13 O    0.172
    12   6 C    3.915 --    13 O    1.594    11 N    1.241    14 C    0.993
    13   8 O    1.910 --    12 C    1.594    11 N    0.172
    14   6 C    3.872 --    15 N    1.623    19 O    1.046    12 C    0.993
    15   7 N    3.000 --    14 C    1.623    16 N    1.199
    16   7 N    2.982 --    17 C    1.611    15 N    1.199
    17   6 C    3.868 --    16 N    1.611    19 O    1.071    18 C    1.032
    18   6 C    3.986 --    17 C    1.032    36 H    0.982    37 H    0.964
                            38 H    0.962
    19   8 O    2.315 --    17 C    1.071    14 C    1.046
    20   7 N    3.511 --     7 C    1.166    22 C    1.135    21 C    0.926
                            23 O    0.135
    21   6 C    3.918 --    41 H    0.977    40 H    0.975    39 H    0.974
                            20 N    0.926
    22   6 C    3.915 --    23 O    1.555    20 N    1.135    24 C    1.075
    23   8 O    1.899 --    22 C    1.555    20 N    0.135
    24   6 C    3.921 --     5 C    1.494    25 O    1.108    22 C    1.075
    25   8 O    2.085 --    24 C    1.108    42 H    0.805
    26   1 H    1.008 --     1 C    0.980
    27   1 H    1.007 --     1 C    0.979
    28   1 H    1.011 --     1 C    0.986
    29   1 H    1.011 --     9 C    0.977
    30   1 H    1.002 --     9 C    0.985
    31   1 H    1.001 --     9 C    0.981
    32   1 H    1.008 --    10 C    0.985
    33   1 H    1.011 --    10 C    0.984
    34   1 H    1.006 --    10 C    0.982
    35   1 H    0.939 --    11 N    0.895
    36   1 H    0.998 --    18 C    0.982
    37   1 H    0.996 --    18 C    0.964
    38   1 H    0.997 --    18 C    0.962
    39   1 H    1.005 --    21 C    0.974
    40   1 H    1.001 --    21 C    0.975
    41   1 H    1.009 --    21 C    0.977
    42   1 H    0.847 --    25 O    0.805
 ---------------------------------------------------------------------------

           -------------------------------------------------
          | TOTAL ENERGY              -83.012306611005 Eh   |
          | GRADIENT NORM               0.000321857529 Eh/α |
          | HOMO-LUMO GAP               2.895840756035 eV   |
           -------------------------------------------------

 * finished run on 2023/06/20 at 15:12:25.137
