   * xtb version 6.5.1 (579679a) compiled by 'ehlert@majestix' on 2022-07-11
          program call               : /lustre/hpc/kemi/ree/PhD/git/ReactivityQM/dep/xtb-6.5.1/bin/xtb --gfn 1 /lustre/hpc/kemi/ree/PhD/git/ReactivityQM/calculations/R02/reac01prodE04/conf10/R02_reac01prodE04_conf10_gfn1.xyz --opt --vfukui --chrg -1 --uhf 0 --alpb DMSO

   ID    Z sym.   atoms
    1    6 C      1, 3, 5, 6, 8-11, 13, 15, 18, 19, 22, 24
    2    8 O      2, 4, 14, 20, 23, 25
    3    7 N      7, 12, 16, 17, 21
    4    1 H      26-43

      * Solvation model:               ALPB
        Solvent                        DMSO
        Solvent mass                       7.8130E+01 g/mol
          :  Hamiltonian                  GFN1-xTB          :
 * total energy  :   -83.8499362 Eh     change       -0.2837908E-10 Eh
 * total energy  :   -83.8643076 Eh     change       -0.1437139E-01 Eh
 * total energy  :   -83.8703997 Eh     change       -0.6092192E-02 Eh
 * total energy  :   -83.8715206 Eh     change       -0.1120873E-02 Eh
 * total energy  :   -83.8722752 Eh     change       -0.7545923E-03 Eh
 * total energy  :   -83.8726265 Eh     change       -0.3513319E-03 Eh
 * total energy  :   -83.8729779 Eh     change       -0.3513948E-03 Eh
 * total energy  :   -83.8733365 Eh     change       -0.3585268E-03 Eh
 * total energy  :   -83.8736621 Eh     change       -0.3256001E-03 Eh
 * total energy  :   -83.8739636 Eh     change       -0.3015741E-03 Eh
 * total energy  :   -83.8759693 Eh     change       -0.1364725E-04 Eh
 * total energy  :   -83.8759801 Eh     change       -0.1083353E-04 Eh
 * total energy  :   -83.8759920 Eh     change       -0.1185035E-04 Eh
 * total energy  :   -83.8760013 Eh     change       -0.9294687E-05 Eh
 * total energy  :   -83.8760078 Eh     change       -0.6564408E-05 Eh
 * total energy  :   -83.8760089 Eh     change       -0.1046243E-05 Eh
 * total energy  :   -83.8760134 Eh     change       -0.4562933E-05 Eh
 * total energy  :   -83.8760196 Eh     change       -0.6148005E-05 Eh
 * total energy  :   -83.8760231 Eh     change       -0.3551247E-05 Eh
   *** GEOMETRY OPTIMIZATION CONVERGED AFTER 44 ITERATIONS ***

 final structure:
================
43
 xtb: 6.5.1 (579679a)
C           -2.63541659274920        2.41367526201213       -2.02103702013103
O           -2.14798953715498        1.45379812149910       -1.08586085884160
C           -2.26669697568396        1.77865818179772        0.21465484482045
O           -2.76047779102152        2.83160429702261        0.57178203573695
C           -1.85102073391204        0.64568433468565        1.16412591328207
C           -1.45024499051095        1.24464072498993        2.51846348787255
N           -0.70971648500126       -0.07893618701851        0.60838321745309
C           -0.91992281369929       -1.13709846409916       -0.08335951824038
C            0.28176706558520       -1.84555218849514       -0.70366391505967
C            0.46022897125078       -3.22918269713110       -0.06432511723467
C            0.10320311802977       -1.95442778299227       -2.22375778864439
N            1.45095305201936       -1.01504344723026       -0.41210336770414
C            2.69732940428800       -1.29588663339765       -0.80337020426655
O            3.04765975761753       -2.29016554676570       -1.42873803506606
C            3.68609998097754       -0.25109280118082       -0.41499508205977
N            4.96527620102950       -0.26952981258547       -0.63431272828759
N            5.46747144319862        0.89827282363792       -0.13798951291757
C            4.46388201504294        1.55689722594455        0.35090303385837
C            4.48979493743344        2.88930320949293        0.99378383666606
O            3.30809741696289        0.88608635125754        0.20985740182117
N           -2.13602599449852       -1.67716880785171       -0.33141903803002
C           -3.26872768278133       -1.34928315106270        0.52949067546645
O           -4.24423204147659       -2.15121895930210        0.52455186349590
C           -3.07975992047505       -0.22076472428326        1.26090337449935
O           -4.07022741742713        0.22078406536083        2.17488745326835
H           -2.52532123132065        1.97761808435597       -3.01245260094784
H           -2.05363084064716        3.33731196909696       -1.95441296470792
H           -3.68756571456148        2.64130921910857       -1.82649605412433
H           -1.24642329690071        0.44339374532856        3.22710789666567
H           -0.55407212650658        1.85264046894839        2.40433629784985
H           -2.25752259332466        1.86605860049951        2.90466278323606
H           -0.43734220352764       -3.82525460136417       -0.21760934640185
H            1.30451086768337       -3.74761448000237       -0.51561260746078
H            0.63773600734589       -3.12435877200818        1.00521770834227
H           -0.78961036912842       -2.53236660844370       -2.45330885010151
H            0.00316257345993       -0.96005058777743       -2.65743681289262
H            0.96303260499351       -2.45178618406668       -2.66910051309572
H            1.25874562054798       -0.17379663333634        0.12720024802852
H            3.84117743409359        3.57798389364939        0.45300181050234
H            4.12881171654317        2.81879618058942        2.01942745627030
H            5.50702356150692        3.27250021649718        0.99333954316956
H           -2.19537080446638       -2.58872125258422       -0.75513272024225
H           -4.77864459284680       -0.43771465278957        2.15041377416819

          :  Hamiltonian                  GFN1-xTB          :
         :: total energy             -83.876023124780 Eh    ::
         :: gradient norm              0.000566879218 Eh/a0 ::
         :: HOMO-LUMO gap              0.286364337294 eV    ::
         :: SCC energy               -84.640666530123 Eh    ::
         :: -> Gsolv                  -0.112397289073 Eh    ::
         :: repulsion energy           0.791950513270 Eh    ::

    * Orbital Energies and Occupations

         #    Occupation            Energy/Eh            Energy/eV
      -------------------------------------------------------------
         1        2.0000           -0.8582435             -23.3540
       ...           ...                  ...                  ...
        56        2.0000           -0.4736741             -12.8893
        57        2.0000           -0.4678183             -12.7300
        58        2.0000           -0.4651319             -12.6569
        59        2.0000           -0.4578058             -12.4575
        60        2.0000           -0.4531656             -12.3313
        61        2.0000           -0.4510872             -12.2747
        62        2.0000           -0.4423974             -12.0382
        63        2.0000           -0.4387892             -11.9401
        64        2.0000           -0.4316400             -11.7455
        65        2.0000           -0.4005190             -10.8987
        66        2.0000           -0.3891914             -10.5904
        67        2.0000           -0.3776091             -10.2753
        68        1.9922           -0.3098295              -8.4309 (HOMO)
        69        0.0078           -0.2993058              -8.1445 (LUMO)
        70                         -0.2512650              -6.8373
        71                         -0.2374046              -6.4601
        72                         -0.2199406              -5.9849
        73                         -0.1874791              -5.1016
        74                         -0.1407979              -3.8313
        75                         -0.1294749              -3.5232
        76                         -0.1282750              -3.4905
        77                         -0.1163283              -3.1655
        78                         -0.1108938              -3.0176
        79                         -0.0960027              -2.6124
       ...                                ...                  ...
       136                          0.7279642              19.8089
      -------------------------------------------------------------
                  HL-Gap            0.0105237 Eh            0.2864 eV

Wiberg/Mayer (AO) data.
largest (>0.10) Wiberg bond orders for each atom

     #   Z sym  total        # sym  WBO       # sym  WBO       # sym  WBO
 ---------------------------------------------------------------------------
     1   6 C    3.890 --    26 H    0.987    27 H    0.981    28 H    0.981
                             2 O    0.912
     2   8 O    2.175 --     3 C    1.082     1 C    0.912     4 O    0.118
     3   6 C    3.810 --     4 O    1.639     2 O    1.082     5 C    0.920
     4   8 O    1.904 --     3 C    1.639     2 O    0.118
     5   6 C    3.963 --     6 C    0.988     7 N    0.966    24 C    0.957
                             3 C    0.920
     6   6 C    3.996 --    30 H    0.988     5 C    0.988    29 H    0.987
                            31 H    0.985
     7   7 N    3.000 --     8 C    1.661     5 C    0.966    21 N    0.167
     8   6 C    3.952 --     7 N    1.661    21 N    1.206     9 C    0.967
     9   6 C    3.933 --    11 C    0.986    10 C    0.984     8 C    0.967
                            12 N    0.925
    10   6 C    3.992 --    34 H    0.986     9 C    0.984    32 H    0.984
                            33 H    0.981
    11   6 C    3.992 --    36 H    0.986     9 C    0.986    35 H    0.984
                            37 H    0.981
    12   7 N    3.385 --    13 C    1.302     9 C    0.925    38 H    0.872
                            14 O    0.185
    13   6 C    3.921 --    14 O    1.554    12 N    1.302    15 C    0.986
    14   8 O    1.876 --    13 C    1.554    12 N    0.185
    15   6 C    3.865 --    16 N    1.623    20 O    1.048    13 C    0.986
    16   7 N    2.991 --    15 C    1.623    17 N    1.192
    17   7 N    2.980 --    18 C    1.617    16 N    1.192
    18   6 C    3.871 --    17 N    1.617    20 O    1.073    19 C    1.030
    19   6 C    3.988 --    18 C    1.030    41 H    0.983    39 H    0.965
                            40 H    0.964
    20   8 O    2.313 --    18 C    1.073    15 C    1.048
    21   7 N    3.318 --     8 C    1.206    42 H    0.911    22 C    0.896
                             7 N    0.167
    22   6 C    3.914 --    24 C    1.522    23 O    1.363    21 N    0.896
    23   8 O    1.707 --    22 C    1.363    24 C    0.173
    24   6 C    3.788 --    22 C    1.522     5 C    0.957    25 O    0.945
                            23 O    0.173
    25   8 O    1.916 --    24 C    0.945    43 H    0.858
    26   1 H    1.014 --     1 C    0.987
    27   1 H    1.011 --     1 C    0.981
    28   1 H    1.012 --     1 C    0.981
    29   1 H    1.011 --     6 C    0.987
    30   1 H    1.010 --     6 C    0.988
    31   1 H    1.016 --     6 C    0.985
    32   1 H    1.003 --    10 C    0.984
    33   1 H    1.011 --    10 C    0.981
    34   1 H    1.004 --    10 C    0.986
    35   1 H    1.004 --    11 C    0.984
    36   1 H    1.005 --    11 C    0.986
    37   1 H    1.011 --    11 C    0.981
    38   1 H    0.972 --    12 N    0.872
    39   1 H    0.998 --    19 C    0.965
    40   1 H    0.998 --    19 C    0.964
    41   1 H    0.999 --    19 C    0.983
    42   1 H    0.962 --    21 N    0.911
    43   1 H    0.890 --    25 O    0.858
 ---------------------------------------------------------------------------

           -------------------------------------------------
          | TOTAL ENERGY              -83.876023124780 Eh   |
          | GRADIENT NORM               0.000566879218 Eh/α |
          | HOMO-LUMO GAP               0.286364337294 eV   |
           -------------------------------------------------

 * finished run on 2023/06/20 at 14:57:25.890
