   * xtb version 6.5.1 (579679a) compiled by 'ehlert@majestix' on 2022-07-11
          program call               : /lustre/hpc/kemi/ree/PhD/git/ReactivityQM/dep/xtb-6.5.1/bin/xtb --gfn 1 /lustre/hpc/kemi/ree/PhD/git/ReactivityQM/calculations/R02/reac01prodE04/conf01/R02_reac01prodE04_conf01_gfn1.xyz --opt --vfukui --chrg -1 --uhf 0 --alpb DMSO

   ID    Z sym.   atoms
    1    6 C      1, 3, 5, 6, 8-11, 13, 15, 18, 19, 22, 24
    2    8 O      2, 4, 14, 20, 23, 25
    3    7 N      7, 12, 16, 17, 21
    4    1 H      26-43

      * Solvation model:               ALPB
        Solvent                        DMSO
        Solvent mass                       7.8130E+01 g/mol
          :  Hamiltonian                  GFN1-xTB          :
 * total energy  :   -83.8471622 Eh     change       -0.4065299E-09 Eh
 * total energy  :   -83.8626155 Eh     change       -0.1545326E-01 Eh
 * total energy  :   -83.8688784 Eh     change       -0.6262938E-02 Eh
 * total energy  :   -83.8700889 Eh     change       -0.1210452E-02 Eh
 * total energy  :   -83.8707359 Eh     change       -0.6470252E-03 Eh
 * total energy  :   -83.8710141 Eh     change       -0.2781665E-03 Eh
 * total energy  :   -83.8712192 Eh     change       -0.2051579E-03 Eh
 * total energy  :   -83.8713550 Eh     change       -0.1357724E-03 Eh
 * total energy  :   -83.8714662 Eh     change       -0.1111619E-03 Eh
 * total energy  :   -83.8715863 Eh     change       -0.1201785E-03 Eh
 * total energy  :   -83.8735511 Eh     change       -0.6681955E-05 Eh
 * total energy  :   -83.8735583 Eh     change       -0.7247680E-05 Eh
 * total energy  :   -83.8735665 Eh     change       -0.8183330E-05 Eh
 * total energy  :   -83.8735754 Eh     change       -0.8946922E-05 Eh
 * total energy  :   -83.8735845 Eh     change       -0.9060598E-05 Eh
 * total energy  :   -83.8735929 Eh     change       -0.8433902E-05 Eh
 * total energy  :   -83.8735999 Eh     change       -0.6934784E-05 Eh
 * total energy  :   -83.8736053 Eh     change       -0.5452127E-05 Eh
 * total energy  :   -83.8736099 Eh     change       -0.4589670E-05 Eh
   *** GEOMETRY OPTIMIZATION CONVERGED AFTER 65 ITERATIONS ***

 final structure:
================
43
 xtb: 6.5.1 (579679a)
C           -4.79490732958093        1.90968118414996        0.43824016905981
O           -3.70031726360331        1.03778652139833        0.16626487010905
C           -4.01929308207160       -0.22778691660331       -0.16512565419552
O           -5.17612144578787       -0.59945455919615       -0.24262328106845
C           -2.80045562800627       -1.15229091044363       -0.28292846602375
C           -3.14058040618697       -2.32496227043065       -1.21162584620479
N           -1.66173469470220       -0.42420915098291       -0.83823350925763
C           -0.83331481786483        0.12903773957356       -0.03539760488276
C            0.30852948706420        0.95050833077671       -0.62234654431942
C            0.13020324746331        2.42086342150688       -0.22267725195198
C            0.34319494376240        0.79991555059381       -2.14580116243486
N            1.55437906277999        0.42282087221935       -0.04600283550383
C            2.77857839021224        0.89776491834838       -0.33190070886832
O            3.02910301292392        1.86482130055902       -1.03421054701935
C            3.82984837430469        0.07360215147861        0.32570250154397
N            3.62647709324997       -0.97086333787464        1.07119361522677
N            4.85407536764539       -1.43826824307064        1.43774171123300
C            5.72717655126790       -0.65009740097500        0.89066852983237
C            7.20148480258182       -0.73522819472901        0.98148681924196
O            5.14453207120342        0.32460001783524        0.17550294229047
N           -0.90353275596067        0.07897107955135        1.31974411406620
C           -1.65740739650764       -0.99036483882879        1.96497019474925
O           -1.36721775903244       -1.25782983674426        3.16447441803469
C           -2.55363539158419       -1.59012348432593        1.13774906270630
O           -3.34347740860194       -2.67510511145524        1.59461464070869
H           -4.37407105259829        2.88346918773959        0.68249284647683
H           -5.44212053389457        1.99396111402457       -0.43949884629414
H           -5.38482894172397        1.53517861584786        1.27996009237867
H           -4.04498456405510       -2.82517213541423       -0.86684082772749
H           -3.29748078551210       -1.96031872114730       -2.22641498332875
H           -2.31780828410887       -3.03846687129857       -1.21617999917047
H           -0.83951740719464        2.77265138891567       -0.57290535746211
H            0.91073875915483        3.03422149975505       -0.66887619382049
H            0.17470319725129        2.52564122715911        0.86012536932690
H            1.13966880051208        1.40727202777254       -2.57105704389378
H           -0.61166075063521        1.12158956524328       -2.55951975998124
H            0.50435248186273       -0.24380369996539       -2.41248126117798
H            1.49846860404607       -0.41013439128682        0.52420624475676
H            7.63242507564693       -0.81384084011804       -0.01623000259000
H            7.48125710611230       -1.60574245179296        1.56937692988058
H            7.59978999882222        0.16412130064909        1.45059771714676
H           -0.13127305644663        0.42983967692346        1.86175488898309
H           -3.07324767220135       -2.84425532534103        2.50807000943847

          :  Hamiltonian                  GFN1-xTB          :
         :: total energy             -83.873609913426 Eh    ::
         :: gradient norm              0.000264559204 Eh/a0 ::
         :: HOMO-LUMO gap              0.266942802862 eV    ::
         :: SCC energy               -84.638991900263 Eh    ::
         :: -> Gsolv                  -0.116280824108 Eh    ::
         :: repulsion energy           0.792524779131 Eh    ::

    * Orbital Energies and Occupations

         #    Occupation            Energy/Eh            Energy/eV
      -------------------------------------------------------------
         1        2.0000           -0.8571224             -23.3235
       ...           ...                  ...                  ...
        56        2.0000           -0.4764559             -12.9650
        57        2.0000           -0.4704515             -12.8016
        58        2.0000           -0.4668462             -12.7035
        59        2.0000           -0.4609230             -12.5424
        60        2.0000           -0.4537729             -12.3478
        61        2.0000           -0.4526793             -12.3180
        62        2.0000           -0.4430669             -12.0565
        63        2.0000           -0.4396267             -11.9629
        64        2.0000           -0.4342475             -11.8165
        65        2.0000           -0.3993327             -10.8664
        66        2.0000           -0.3901967             -10.6178
        67        2.0000           -0.3787251             -10.3056
        68        1.9886           -0.3112913              -8.4707 (HOMO)
        69        0.0114           -0.3014813              -8.2037 (LUMO)
        70                         -0.2511643              -6.8345
        71                         -0.2380592              -6.4779
        72                         -0.2211911              -6.0189
        73                         -0.1895566              -5.1581
        74                         -0.1398417              -3.8053
        75                         -0.1309013              -3.5620
        76                         -0.1292290              -3.5165
        77                         -0.1120559              -3.0492
        78                         -0.1086483              -2.9565
        79                         -0.0983736              -2.6769
       ...                                ...                  ...
       136                          0.7305183              19.8784
      -------------------------------------------------------------
                  HL-Gap            0.0098100 Eh            0.2669 eV

Wiberg/Mayer (AO) data.
largest (>0.10) Wiberg bond orders for each atom

     #   Z sym  total        # sym  WBO       # sym  WBO       # sym  WBO
 ---------------------------------------------------------------------------
     1   6 C    3.890 --    26 H    0.987    27 H    0.981    28 H    0.981
                             2 O    0.912
     2   8 O    2.174 --     3 C    1.079     1 C    0.912     4 O    0.117
     3   6 C    3.811 --     4 O    1.634     2 O    1.079     5 C    0.921
     4   8 O    1.901 --     3 C    1.634     2 O    0.117
     5   6 C    3.964 --     6 C    0.988     7 N    0.969    24 C    0.955
                             3 C    0.921
     6   6 C    3.996 --     5 C    0.988    30 H    0.988    31 H    0.987
                            29 H    0.985
     7   7 N    2.976 --     8 C    1.677     5 C    0.969    21 N    0.168
     8   6 C    3.952 --     7 N    1.677    21 N    1.192     9 C    0.966
     9   6 C    3.927 --    11 C    0.995    10 C    0.986     8 C    0.966
                            12 N    0.910
    10   6 C    3.993 --    32 H    0.986     9 C    0.986    34 H    0.985
                            33 H    0.981
    11   6 C    3.993 --     9 C    0.995    37 H    0.985    36 H    0.984
                            35 H    0.984
    12   7 N    3.359 --    13 C    1.273     9 C    0.910    38 H    0.897
                            14 O    0.181
    13   6 C    3.917 --    14 O    1.577    12 N    1.273    15 C    0.985
    14   8 O    1.894 --    13 C    1.577    12 N    0.181
    15   6 C    3.867 --    16 N    1.611    20 O    1.061    13 C    0.985
    16   7 N    3.010 --    15 C    1.611    17 N    1.194
    17   7 N    2.981 --    18 C    1.611    16 N    1.194
    18   6 C    3.872 --    17 N    1.611    20 O    1.080    19 C    1.030
    19   6 C    3.987 --    18 C    1.030    40 H    0.983    39 H    0.965
                            41 H    0.964
    20   8 O    2.324 --    18 C    1.080    15 C    1.061
    21   7 N    3.313 --     8 C    1.192    42 H    0.912    22 C    0.900
                             7 N    0.168
    22   6 C    3.914 --    24 C    1.517    23 O    1.364    21 N    0.900
    23   8 O    1.706 --    22 C    1.364    24 C    0.171
    24   6 C    3.786 --    22 C    1.517     5 C    0.955    25 O    0.945
                            23 O    0.171
    25   8 O    1.916 --    24 C    0.945    43 H    0.858
    26   1 H    1.014 --     1 C    0.987
    27   1 H    1.012 --     1 C    0.981
    28   1 H    1.011 --     1 C    0.981
    29   1 H    1.016 --     6 C    0.985
    30   1 H    1.010 --     6 C    0.988
    31   1 H    1.011 --     6 C    0.987
    32   1 H    1.004 --    10 C    0.986
    33   1 H    1.012 --    10 C    0.981
    34   1 H    1.005 --    10 C    0.985
    35   1 H    1.011 --    11 C    0.984
    36   1 H    1.016 --    11 C    0.984
    37   1 H    1.012 --    11 C    0.985
    38   1 H    0.958 --    12 N    0.897
    39   1 H    0.997 --    19 C    0.965
    40   1 H    0.999 --    19 C    0.983
    41   1 H    0.997 --    19 C    0.964
    42   1 H    0.961 --    21 N    0.912
    43   1 H    0.890 --    25 O    0.858
 ---------------------------------------------------------------------------

           -------------------------------------------------
          | TOTAL ENERGY              -83.873609913426 Eh   |
          | GRADIENT NORM               0.000264559204 Eh/α |
          | HOMO-LUMO GAP               0.266942802862 eV   |
           -------------------------------------------------

 * finished run on 2023/06/20 at 14:57:43.780
