   * xtb version 6.5.1 (579679a) compiled by 'ehlert@majestix' on 2022-07-11
          program call               : /lustre/hpc/kemi/ree/PhD/git/ReactivityQM/dep/xtb-6.5.1/bin/xtb --gfn 1 /lustre/hpc/kemi/ree/PhD/git/ReactivityQM/calculations/R02methylcation/reac01prodN15/conf20/R02methylcation_reac01prodN15_conf20_gfn1.xyz --opt --vfukui --chrg 0 --uhf 0 --alpb DMSO

   ID    Z sym.   atoms
    1    6 C      1, 3, 5, 7-10, 12, 14, 17, 18, 21, 23, 24
    2    8 O      2, 4, 13, 19, 22, 25
    3    7 N      6, 11, 15, 16, 20
    4    1 H      26-42

      * Solvation model:               ALPB
        Solvent                        DMSO
        Solvent mass                       7.8130E+01 g/mol
          :  Hamiltonian                  GFN1-xTB          :
 * total energy  :   -82.8944308 Eh     change       -0.3626610E-10 Eh
 * total energy  :   -82.9152948 Eh     change       -0.2086401E-01 Eh
 * total energy  :   -82.9354361 Eh     change       -0.2014127E-01 Eh
 * total energy  :   -82.9569719 Eh     change       -0.2153576E-01 Eh
 * total energy  :   -82.9814086 Eh     change       -0.2443670E-01 Eh
 * total energy  :   -82.9649141 Eh     change        0.1649442E-01 Eh
 * total energy  :   -82.9924857 Eh     change       -0.2757152E-01 Eh
 * total energy  :   -82.9923458 Eh     change        0.1398532E-03 Eh
 * total energy  :   -83.0007130 Eh     change       -0.8367176E-02 Eh
 * total energy  :   -83.0018029 Eh     change       -0.1089862E-02 Eh
 * total energy  :   -83.0060545 Eh     change       -0.1269184E-04 Eh
 * total energy  :   -83.0060749 Eh     change       -0.2033731E-04 Eh
 * total energy  :   -83.0060908 Eh     change       -0.1588902E-04 Eh
 * total energy  :   -83.0061078 Eh     change       -0.1700736E-04 Eh
 * total energy  :   -83.0061157 Eh     change       -0.7918984E-05 Eh
 * total energy  :   -83.0061263 Eh     change       -0.1062744E-04 Eh
 * total energy  :   -83.0061339 Eh     change       -0.7589886E-05 Eh
 * total energy  :   -83.0061418 Eh     change       -0.7912168E-05 Eh
 * total energy  :   -83.0061460 Eh     change       -0.4177599E-05 Eh
   *** GEOMETRY OPTIMIZATION CONVERGED AFTER 44 ITERATIONS ***

 final structure:
================
42
 xtb: 6.5.1 (579679a)
C           -5.51513679895089        2.35312270454563        1.37890944804211
O           -4.67688538894473        1.38077254909916        0.73868797479428
C           -3.40040600806410        1.37712578209905        1.08235224900797
O           -2.90311994739585        2.13447744039212        1.87657441316242
C           -2.59034477026043        0.31533421319691        0.35334295411805
N           -1.43824470836694       -0.06229496200340        1.08157315224917
C           -0.51682651660311       -0.71699119530134        0.49549600878879
C            0.64378386955791       -1.26919170464887        1.29676828524614
C            0.66347805343500       -0.65371575577898        2.69880734944190
C            0.47925281282197       -2.79534667907084        1.36078504004872
N            1.87729585311047       -0.92332010618593        0.58087393944973
C            3.10309874483613       -1.31685844956506        0.99536545084436
O            3.32841183479281       -2.06578529280118        1.92980225875158
C            4.19008644256024       -0.74466422607590        0.16252183838734
N            5.46718959832152       -0.93282814330798        0.28424876264026
N            6.06773951332662       -0.20639057257413       -0.69954154582027
C            5.12049405248912        0.38117217518278       -1.36207719256496
C            5.25061343969574        1.27627534359398       -2.53198581063512
O            3.90753905519177        0.08390025590455       -0.86679369140662
N           -0.50139915824813       -0.97423016772881       -0.86105427658539
C           -1.35594991299988       -0.37173429321211       -1.75399082794074
O           -1.09440466465767       -0.29614101028098       -2.93470787370310
C           -2.60672669491000        0.18817173632453       -1.14289541128173
C           -3.43426897786147        1.06220288466752       -2.05414052743022
O           -3.28344186958526       -0.70695315422042       -0.29503107090570
H           -6.49076635968284        2.28068164528392        0.90417511047352
H           -5.59117539622421        2.13034045629405        2.44498550091541
H           -5.09583852919025        3.35173736474859        1.24336300888625
H           -0.27864747322304       -0.86656052159837        3.20151945688306
H            1.48227063669839       -1.07651070265002        3.27781645216404
H            0.79025029733608        0.42529695179010        2.62882779852865
H            1.26193794541346       -3.23250982798140        1.97722035712226
H           -0.49021040134906       -3.03466857066431        1.79543550734011
H            0.53479740491789       -3.21876616746270        0.35978315723200
H            1.82914920081027       -0.21364065188596       -0.13091782928646
H            4.76626915050801        2.23047875951840       -2.32662047452910
H            4.75869009892649        0.82922343627574       -3.39604403577396
H            6.30255342689797        1.43809026396186       -2.75520823339948
H            0.33140167965854       -1.37425303238261       -1.26650534720148
H           -4.42639415640621        1.21341940344123       -1.63805692837883
H           -2.94421678467054        2.02461848869852       -2.19107247627322
H           -3.52189559371276        0.57691133236075       -3.02607392140029

          :  Hamiltonian                  GFN1-xTB          :
         :: total energy             -83.006146006551 Eh    ::
         :: gradient norm              0.000420981516 Eh/a0 ::
         :: HOMO-LUMO gap              3.668256571896 eV    ::
         :: SCC energy               -83.778455491781 Eh    ::
         :: -> Gsolv                  -0.054898205922 Eh    ::
         :: repulsion energy           0.797773313916 Eh    ::

    * Orbital Energies and Occupations

         #    Occupation            Energy/Eh            Energy/eV
      -------------------------------------------------------------
         1        2.0000           -0.8662442             -23.5717
       ...           ...                  ...                  ...
        55        2.0000           -0.5059345             -13.7672
        56        2.0000           -0.5052713             -13.7491
        57        2.0000           -0.5041054             -13.7174
        58        2.0000           -0.5014396             -13.6449
        59        2.0000           -0.4813556             -13.0984
        60        2.0000           -0.4776443             -12.9974
        61        2.0000           -0.4690009             -12.7622
        62        2.0000           -0.4660016             -12.6805
        63        2.0000           -0.4636382             -12.6162
        64        2.0000           -0.4621149             -12.5748
        65        2.0000           -0.4530933             -12.3293
        66        2.0000           -0.4519077             -12.2970
        67        2.0000           -0.4472856             -12.1713 (HOMO)
        68                         -0.3124797              -8.5030 (LUMO)
        69                         -0.3029929              -8.2449
        70                         -0.2884399              -7.8488
        71                         -0.2590183              -7.0482
        72                         -0.2571890              -6.9985
        73                         -0.2001731              -5.4470
        74                         -0.1424942              -3.8775
        75                         -0.1418477              -3.8599
        76                         -0.1321015              -3.5947
        77                         -0.1283360              -3.4922
        78                         -0.1248601              -3.3976
       ...                                ...                  ...
       134                          0.7293672              19.8471
      -------------------------------------------------------------
                  HL-Gap            0.1348059 Eh            3.6683 eV

Wiberg/Mayer (AO) data.
largest (>0.10) Wiberg bond orders for each atom

     #   Z sym  total        # sym  WBO       # sym  WBO       # sym  WBO
 ---------------------------------------------------------------------------
     1   6 C    3.859 --    26 H    0.985    28 H    0.980    27 H    0.979
                             2 O    0.883
     2   8 O    2.227 --     3 C    1.142     1 C    0.883     4 O    0.142
     3   6 C    3.851 --     4 O    1.688     2 O    1.142     5 C    0.936
     4   8 O    1.940 --     3 C    1.688     2 O    0.142
     5   6 C    3.870 --     6 N    1.025     3 C    0.936    25 O    0.908
                            23 C    0.835
     6   7 N    3.025 --     7 C    1.712     5 C    1.025
     7   6 C    3.928 --     6 N    1.712    20 N    1.108     8 C    0.979
     8   6 C    3.934 --     9 C    0.991     7 C    0.979    10 C    0.976
                            11 N    0.923
     9   6 C    3.988 --     8 C    0.991    31 H    0.985    29 H    0.984
                            30 H    0.982
    10   6 C    3.988 --    33 H    0.985    34 H    0.984    32 H    0.977
                             8 C    0.976
    11   7 N    3.336 --    12 C    1.244     8 C    0.923    35 H    0.893
                            13 O    0.173
    12   6 C    3.915 --    13 O    1.593    11 N    1.244    14 C    0.993
    13   8 O    1.909 --    12 C    1.593    11 N    0.173
    14   6 C    3.872 --    15 N    1.622    19 O    1.046    12 C    0.993
    15   7 N    3.000 --    14 C    1.622    16 N    1.199
    16   7 N    2.982 --    17 C    1.610    15 N    1.199
    17   6 C    3.868 --    16 N    1.610    19 O    1.072    18 C    1.032
    18   6 C    3.986 --    17 C    1.032    38 H    0.982    36 H    0.964
                            37 H    0.961
    19   8 O    2.316 --    17 C    1.072    14 C    1.046
    20   7 N    3.417 --    21 C    1.142     7 C    1.108    39 H    0.884
                            22 O    0.126
    21   6 C    3.893 --    22 O    1.658    20 N    1.142    23 C    0.978
    22   8 O    1.937 --    21 C    1.658    20 N    0.126
    23   6 C    3.861 --    24 C    1.002    21 C    0.978    25 O    0.894
                             5 C    0.835
    24   6 C    3.985 --    23 C    1.002    40 H    0.981    41 H    0.980
                            42 H    0.974
    25   8 O    1.967 --     5 C    0.908    23 C    0.894
    26   1 H    1.008 --     1 C    0.985
    27   1 H    1.004 --     1 C    0.979
    28   1 H    1.005 --     1 C    0.980
    29   1 H    1.008 --     9 C    0.984
    30   1 H    1.007 --     9 C    0.982
    31   1 H    1.004 --     9 C    0.985
    32   1 H    1.009 --    10 C    0.977
    33   1 H    1.001 --    10 C    0.985
    34   1 H    1.001 --    10 C    0.984
    35   1 H    0.937 --    11 N    0.893
    36   1 H    0.996 --    18 C    0.964
    37   1 H    0.996 --    18 C    0.961
    38   1 H    0.998 --    18 C    0.982
    39   1 H    0.929 --    20 N    0.884
    40   1 H    1.008 --    24 C    0.981
    41   1 H    0.999 --    24 C    0.980
    42   1 H    1.002 --    24 C    0.974
 ---------------------------------------------------------------------------

           -------------------------------------------------
          | TOTAL ENERGY              -83.006146006551 Eh   |
          | GRADIENT NORM               0.000420981516 Eh/α |
          | HOMO-LUMO GAP               3.668256571896 eV   |
           -------------------------------------------------

 * finished run on 2023/06/21 at 17:57:01.627
