   * xtb version 6.5.1 (579679a) compiled by 'ehlert@majestix' on 2022-07-11
          program call               : /lustre/hpc/kemi/ree/PhD/git/ReactivityQM/dep/xtb-6.5.1/bin/xtb --gfn 1 /lustre/hpc/kemi/ree/PhD/git/ReactivityQM/calculations/R03/reac02prodN12/conf11/R03_reac02prodN12_conf11_gfn1.xyz --opt --vfukui --chrg 1 --uhf 0 --alpb DMSO

   ID    Z sym.   atoms
    1    6 C      1, 3, 5, 7-10, 12, 14, 15, 18, 19, 22, 23, 25
    2    8 O      2, 4, 13, 20, 24, 26
    3    7 N      6, 11, 16, 17, 21
    4    1 H      27-46

      * Solvation model:               ALPB
        Solvent                        DMSO
        Solvent mass                       7.8130E+01 g/mol
          :  Hamiltonian                  GFN1-xTB          :
 * total energy  :   -86.2879301 Eh     change       -0.1217018E-08 Eh
 * total energy  :   -86.3032886 Eh     change       -0.1535857E-01 Eh
 * total energy  :   -86.3097622 Eh     change       -0.6473547E-02 Eh
 * total energy  :   -86.3107555 Eh     change       -0.9932903E-03 Eh
 * total energy  :   -86.3112490 Eh     change       -0.4934846E-03 Eh
 * total energy  :   -86.3114317 Eh     change       -0.1827661E-03 Eh
 * total energy  :   -86.3116218 Eh     change       -0.1900674E-03 Eh
 * total energy  :   -86.3117762 Eh     change       -0.1543829E-03 Eh
 * total energy  :   -86.3119019 Eh     change       -0.1257100E-03 Eh
 * total energy  :   -86.3119815 Eh     change       -0.7964766E-04 Eh
 * total energy  :   -86.3121332 Eh     change       -0.2550679E-04 Eh
 * total energy  :   -86.3121476 Eh     change       -0.1435816E-04 Eh
 * total energy  :   -86.3121599 Eh     change       -0.1235100E-04 Eh
 * total energy  :   -86.3121524 Eh     change        0.7568143E-05 Eh
 * total energy  :   -86.3121677 Eh     change       -0.1531065E-04 Eh
 * total energy  :   -86.3121766 Eh     change       -0.8917524E-05 Eh
 * total energy  :   -86.3121819 Eh     change       -0.5334653E-05 Eh
 * total energy  :   -86.3121903 Eh     change       -0.8349373E-05 Eh
 * total energy  :   -86.3121928 Eh     change       -0.2502078E-05 Eh
   *** GEOMETRY OPTIMIZATION CONVERGED AFTER 22 ITERATIONS ***

 final structure:
================
46
 xtb: 6.5.1 (579679a)
C            5.84722539602579        0.51414092488767        3.10385147560814
O            5.06797000799845        0.63936098965148        1.90231599785289
C            3.90445846697401       -0.02131194439828        1.89025909592492
O            3.51549295649360       -0.68935417655112        2.81676178948061
C            3.14225301384016        0.15915855173198        0.62171494679051
N            1.95116471331717       -0.51190712444520        0.61366191320241
C            1.15341536465386       -0.46405291147154       -0.40032034207258
C           -0.10399825313202       -1.31524310909974       -0.28309847357530
C           -0.05929645703102       -2.47474366578920       -1.28388377487908
C           -0.22878735119779       -1.85507405073939        1.14607663442649
N           -1.27166711498042       -0.42951337440012       -0.52466249793006
C           -2.49959724064676       -0.89919823235508       -0.64935702690576
O           -2.88996534841456       -2.03048155463352       -0.70012362545610
C           -3.60366256735318        0.27917814130999       -0.79488101764857
C           -4.48909897617743       -0.08122385875001       -1.98410694831591
N           -2.98825218228489        1.53878611709493       -0.87086811495101
N           -3.25799022694133        2.21658682170068        0.16650572524645
C           -4.08489870414231        1.45819937838373        0.95587747241387
C           -4.64337991514763        1.87564894102526        2.23760028938379
O           -4.31770770799799        0.31704400322871        0.41952076578401
N            1.45450188990715        0.26248325004162       -1.51963093457539
C            0.60962413669004        0.37730548867582       -2.70991720605315
C            2.64997443746291        0.97581139635069       -1.63543546027594
O            2.89667569838723        1.60149490586100       -2.65271081191721
C            3.52678455941345        0.90100582368703       -0.46521141444544
O            4.66085707164112        1.59328233744072       -0.58485991392121
H            6.13290189267856       -0.52967657775599        3.25077134190012
H            5.26249515408048        0.85788055226921        3.95959335608696
H            6.72873952419006        1.13597852122638        2.97026573765064
H           -0.84458202078892       -3.19474897337298       -1.06187377155902
H           -0.18528426932194       -2.12705052059631       -2.30572296266672
H            0.90607418881785       -2.97211000860624       -1.19640431797270
H           -0.24311526353513       -1.03073342731849        1.85632097309744
H           -1.14971761902005       -2.42705977753145        1.24025102875093
H            0.61988099648128       -2.49921495052632        1.36940339633451
H           -1.14175533961448        0.56264247822831       -0.40055474564269
H           -3.89582346117973       -0.03416842814169       -2.89414236465207
H           -5.31399849158265        0.62557509483095       -2.03914019459359
H           -4.86838304635059       -1.09134251766581       -1.83788553920593
H           -4.93210294606396        1.01182139131404        2.83358981297121
H           -5.53974217982581        2.47214592181974        2.03795854706832
H           -3.93801075872689        2.51342277428772        2.76885799276299
H           -0.38379898453824       -0.00422264840431       -2.51730417178061
H            0.54958107558148        1.43192516607685       -2.98007343344061
H            1.07440670545206       -0.17344825984635       -3.52824678393537
H            5.22014017589110        1.53500412124330        0.20984155563187

          :  Hamiltonian                  GFN1-xTB          :
         :: total energy             -86.312192779946 Eh    ::
         :: gradient norm              0.000386031327 Eh/a0 ::
         :: HOMO-LUMO gap              0.278135805554 eV    ::
         :: SCC energy               -87.141832586391 Eh    ::
         :: -> Gsolv                  -0.115893331614 Eh    ::
         :: repulsion energy           0.859546575938 Eh    ::

    * Orbital Energies and Occupations

         #    Occupation            Energy/Eh            Energy/eV
      -------------------------------------------------------------
         1        2.0000           -0.9352001             -25.4481
       ...           ...                  ...                  ...
        58        2.0000           -0.5319406             -14.4748
        59        2.0000           -0.5263394             -14.3224
        60        2.0000           -0.5206983             -14.1689
        61        2.0000           -0.5203491             -14.1594
        62        2.0000           -0.5157723             -14.0349
        63        2.0000           -0.5050007             -13.7418
        64        2.0000           -0.5043818             -13.7249
        65        2.0000           -0.4952390             -13.4761
        66        2.0000           -0.4929687             -13.4144
        67        2.0000           -0.4862449             -13.2314
        68        2.0000           -0.4701372             -12.7931
        69        2.0000           -0.4582076             -12.4685
        70        1.9908           -0.4396776             -11.9642 (HOMO)
        71        0.0092           -0.4294563             -11.6861 (LUMO)
        72                         -0.3336906              -9.0802
        73                         -0.3327411              -9.0543
        74                         -0.3063919              -8.3373
        75                         -0.2971501              -8.0859
        76                         -0.2502583              -6.8099
        77                         -0.1773436              -4.8258
        78                         -0.1693852              -4.6092
        79                         -0.1594250              -4.3382
        80                         -0.1532290              -4.1696
        81                         -0.1407667              -3.8305
       ...                                ...                  ...
       144                          0.7283967              19.8207
      -------------------------------------------------------------
                  HL-Gap            0.0102213 Eh            0.2781 eV

Wiberg/Mayer (AO) data.
largest (>0.10) Wiberg bond orders for each atom

     #   Z sym  total        # sym  WBO       # sym  WBO       # sym  WBO
 ---------------------------------------------------------------------------
     1   6 C    3.857 --    29 H    0.986    28 H    0.980    27 H    0.980
                             2 O    0.881
     2   8 O    2.206 --     3 C    1.095     1 C    0.881     4 O    0.132
     3   6 C    3.849 --     4 O    1.675     2 O    1.095     5 C    1.001
     4   8 O    1.936 --     3 C    1.675     2 O    0.132
     5   6 C    3.955 --    25 C    1.484     6 N    1.185     3 C    1.001
     6   7 N    3.029 --     7 C    1.573     5 C    1.185
     7   6 C    3.932 --     6 N    1.573    21 N    1.177     8 C    0.972
     8   6 C    3.906 --    10 C    0.991     9 C    0.987     7 C    0.972
                            11 N    0.879
     9   6 C    3.983 --     8 C    0.987    32 H    0.981    31 H    0.980
                            30 H    0.976
    10   6 C    3.986 --     8 C    0.991    33 H    0.983    34 H    0.983
                            35 H    0.981
    11   7 N    3.384 --    12 C    1.347    36 H    0.881     8 C    0.879
                            13 O    0.180
    12   6 C    3.907 --    13 O    1.678    11 N    1.347    14 C    0.734
    13   8 O    2.082 --    12 C    1.678    11 N    0.180
    14   6 C    3.836 --    16 N    1.112    15 C    0.922    20 O    0.902
                            12 C    0.734
    15   6 C    3.949 --    37 H    0.978    38 H    0.975    39 H    0.973
                            14 C    0.922
    16   7 N    3.008 --    17 N    1.629    14 C    1.112
    17   7 N    3.011 --    16 N    1.629    18 C    1.204
    18   6 C    3.801 --    20 O    1.293    17 N    1.204    19 C    1.077
    19   6 C    3.965 --    18 C    1.077    40 H    0.963    42 H    0.953
                            41 H    0.903
    20   8 O    2.382 --    18 C    1.293    14 C    0.902
    21   7 N    3.499 --     7 C    1.177    23 C    1.102    22 C    0.929
                            24 O    0.135
    22   6 C    3.920 --    43 H    0.979    44 H    0.974    45 H    0.973
                            21 N    0.929
    23   6 C    3.909 --    24 O    1.598    21 N    1.102    25 C    1.064
    24   8 O    1.905 --    23 C    1.598    21 N    0.135
    25   6 C    3.912 --     5 C    1.484    26 O    1.119    23 C    1.064
    26   8 O    2.094 --    25 C    1.119    46 H    0.797
    27   1 H    1.005 --     1 C    0.980
    28   1 H    1.006 --     1 C    0.980
    29   1 H    1.008 --     1 C    0.986
    30   1 H    1.003 --     9 C    0.976
    31   1 H    0.999 --     9 C    0.980
    32   1 H    0.998 --     9 C    0.981
    33   1 H    1.007 --    10 C    0.983
    34   1 H    1.000 --    10 C    0.983
    35   1 H    1.007 --    10 C    0.981
    36   1 H    0.937 --    11 N    0.881
    37   1 H    0.991 --    15 C    0.978
    38   1 H    0.990 --    15 C    0.975
    39   1 H    0.996 --    15 C    0.973
    40   1 H    0.985 --    19 C    0.963
    41   1 H    0.975 --    19 C    0.903
    42   1 H    0.985 --    19 C    0.953
    43   1 H    1.007 --    22 C    0.979
    44   1 H    1.004 --    22 C    0.974
    45   1 H    1.000 --    22 C    0.973
    46   1 H    0.848 --    26 O    0.797
 ---------------------------------------------------------------------------

           -------------------------------------------------
          | TOTAL ENERGY              -86.312192779946 Eh   |
          | GRADIENT NORM               0.000386031327 Eh/α |
          | HOMO-LUMO GAP               0.278135805554 eV   |
           -------------------------------------------------

 * finished run on 2023/06/20 at 15:47:35.600
