   * xtb version 6.5.1 (579679a) compiled by 'ehlert@majestix' on 2022-07-11
          program call               : /lustre/hpc/kemi/ree/PhD/git/ReactivityQM/dep/xtb-6.5.1/bin/xtb --gfn 1 /lustre/hpc/kemi/ree/PhD/git/ReactivityQM/calculations/RaltegravirCLI/reac01prodN04/conf07/RaltegravirCLI_reac01prodN04_conf07_gfn1.xyz --opt --vfukui --chrg 1 --uhf 0 --alpb DMSO

   ID    Z sym.   atoms
    1    6 C      1-3, 6, 7
    2    7 N      4, 5
    3    8 O      8, 10
    4   17 Cl     9
    5    1 H      11-16

      * Solvation model:               ALPB
        Solvent                        DMSO
        Solvent mass                       7.8130E+01 g/mol
          :  Hamiltonian                  GFN1-xTB          :
 * total energy  :   -33.3590303 Eh     change       -0.4973799E-12 Eh
 * total energy  :   -33.3656202 Eh     change       -0.6589959E-02 Eh
 * total energy  :   -33.3675125 Eh     change       -0.1892268E-02 Eh
 * total energy  :   -33.3676987 Eh     change       -0.1861702E-03 Eh
 * total energy  :   -33.3677786 Eh     change       -0.7994179E-04 Eh
 * total energy  :   -33.3677857 Eh     change       -0.7140132E-05 Eh
 * total energy  :   -33.3677903 Eh     change       -0.4520805E-05 Eh
 * total energy  :   -33.3677988 Eh     change       -0.8576577E-05 Eh
 * total energy  :   -33.3678117 Eh     change       -0.1289812E-04 Eh
 * total energy  :   -33.3678188 Eh     change       -0.7065917E-05 Eh
 * total energy  :   -33.3678302 Eh     change       -0.1135203E-04 Eh
 * total energy  :   -33.3678598 Eh     change       -0.2965601E-04 Eh
 * total energy  :   -33.3678741 Eh     change       -0.1426396E-04 Eh
 * total energy  :   -33.3678791 Eh     change       -0.5009655E-05 Eh
 * total energy  :   -33.3678882 Eh     change       -0.9094131E-05 Eh
 * total energy  :   -33.3678910 Eh     change       -0.2843175E-05 Eh
   *** GEOMETRY OPTIMIZATION CONVERGED AFTER 16 ITERATIONS ***

 final structure:
================
16
 xtb: 6.5.1 (579679a)
C           -1.39378803813548       -0.88649292843322       -1.12723337303944
C           -0.57181085830644        0.16819845707626       -0.36612879201502
C           -1.46948712937832        1.12700507570310        0.43480462136215
N            0.27879382804853        0.88297246145947       -1.24466216485091
N            1.48695062666548        0.69225432415530       -0.93999622762543
C            1.50560613567926       -0.15309879373144        0.14446002099311
C            2.75224166932358       -0.65401118867123        0.86635834210886
O            2.68762819825577       -1.53810279734877        1.65751946468005
Cl           4.15005216049576        0.18680301300626        0.42563821819070
O            0.33981267638995       -0.47970413483138        0.51122295068147
H           -2.05123378455391       -0.37410163462996       -1.82520045538791
H           -0.71535661247535       -1.54537953032995       -1.66479136638321
H           -1.97704815096477       -1.45615437794048       -0.40770811862314
H           -2.03974634125075        0.54472322418542        1.15478454460605
H           -2.13890777266984        1.63352603949491       -0.25598226709689
H           -0.84370860712206        1.85156379083594        0.95123060239930

          :  Hamiltonian                  GFN1-xTB          :
         :: total energy             -33.367891017362 Eh    ::
         :: gradient norm              0.000647166091 Eh/a0 ::
         :: HOMO-LUMO gap              1.525292402059 eV    ::
         :: SCC energy               -33.642724295420 Eh    ::
         :: -> Gsolv                  -0.084573665508 Eh    ::
         :: repulsion energy           0.282383292396 Eh    ::

    * Orbital Energies and Occupations

         #    Occupation            Energy/Eh            Energy/eV
      -------------------------------------------------------------
         1        2.0000           -1.0042044             -27.3258
       ...           ...                  ...                  ...
        15        2.0000           -0.6382359             -17.3673
        16        2.0000           -0.6238521             -16.9759
        17        2.0000           -0.6146980             -16.7268
        18        2.0000           -0.5898517             -16.0507
        19        2.0000           -0.5886045             -16.0167
        20        2.0000           -0.5800952             -15.7852
        21        2.0000           -0.5762888             -15.6816
        22        2.0000           -0.5693412             -15.4926
        23        2.0000           -0.5567162             -15.1490
        24        2.0000           -0.5429388             -14.7741
        25        2.0000           -0.5343644             -14.5408
        26        2.0000           -0.5290468             -14.3961
        27        2.0000           -0.5200829             -14.1522 (HOMO)
        28                         -0.4640294             -12.6269 (LUMO)
        29                         -0.3896480             -10.6029
        30                         -0.3100418              -8.4367
        31                         -0.2554808              -6.9520
        32                         -0.1705225              -4.6402
        33                         -0.1647251              -4.4824
        34                         -0.1351231              -3.6769
        35                         -0.1293503              -3.5198
        36                         -0.1288098              -3.5051
        37                         -0.1206000              -3.2817
        38                         -0.1124659              -3.0604
       ...                                ...                  ...
        57                          0.7115530              19.3623
      -------------------------------------------------------------
                  HL-Gap            0.0560535 Eh            1.5253 eV

Wiberg/Mayer (AO) data.
largest (>0.10) Wiberg bond orders for each atom

     #   Z sym  total        # sym  WBO       # sym  WBO       # sym  WBO
 ---------------------------------------------------------------------------
     1   6 C    3.938 --    12 H    0.977    11 H    0.975    13 H    0.974
                             2 C    0.879
     2   6 C    3.814 --     4 N    1.078     3 C    0.880     1 C    0.879
                            10 O    0.871
     3   6 C    3.938 --    16 H    0.977    15 H    0.975    14 H    0.974
                             2 C    0.880
     4   7 N    2.996 --     5 N    1.669     2 C    1.078
     5   7 N    3.021 --     4 N    1.669     6 C    1.204
     6   6 C    3.802 --    10 O    1.384     5 N    1.204     7 C    0.928
     7   6 C    3.905 --     8 O    1.807     9 Cl   1.130     6 C    0.928
     8   8 O    2.092 --     7 C    1.807     9 Cl   0.199
     9  17 Cl   1.406 --     7 C    1.130     8 O    0.199
    10   8 O    2.444 --     6 C    1.384     2 C    0.871
    11   1 H    0.989 --     1 C    0.975
    12   1 H    0.988 --     1 C    0.977
    13   1 H    0.989 --     1 C    0.974
    14   1 H    0.989 --     3 C    0.974
    15   1 H    0.989 --     3 C    0.975
    16   1 H    0.989 --     3 C    0.977
 ---------------------------------------------------------------------------

           -------------------------------------------------
          | TOTAL ENERGY              -33.367891017362 Eh   |
          | GRADIENT NORM               0.000647166091 Eh/α |
          | HOMO-LUMO GAP               1.525292402059 eV   |
           -------------------------------------------------

 * finished run on 2023/06/20 at 14:54:56.388
