   * xtb version 6.5.1 (579679a) compiled by 'ehlert@majestix' on 2022-07-11
          program call               : /lustre/hpc/kemi/ree/PhD/git/ReactivityQM/dep/xtb-6.5.1/bin/xtb --gfn 1 /lustre/hpc/kemi/ree/PhD/git/ReactivityQM/calculations/R02methylcation/reac01prodN08/conf13/R02methylcation_reac01prodN08_conf13_gfn1.xyz --opt --vfukui --chrg 0 --uhf 0 --alpb DMSO

   ID    Z sym.   atoms
    1    6 C      1, 3, 5, 7-10, 12, 14, 17, 18, 21, 23, 25
    2    8 O      2, 4, 13, 19, 22, 24
    3    7 N      6, 11, 15, 16, 20
    4    1 H      26-42

      * Solvation model:               ALPB
        Solvent                        DMSO
        Solvent mass                       7.8130E+01 g/mol
          :  Hamiltonian                  GFN1-xTB          :
 * total energy  :   -82.9946143 Eh     change       -0.1283240E-10 Eh
 * total energy  :   -83.0100539 Eh     change       -0.1543969E-01 Eh
 * total energy  :   -83.0156416 Eh     change       -0.5587638E-02 Eh
 * total energy  :   -83.0169674 Eh     change       -0.1325838E-02 Eh
 * total energy  :   -83.0175974 Eh     change       -0.6300085E-03 Eh
 * total energy  :   -83.0178211 Eh     change       -0.2236767E-03 Eh
 * total energy  :   -83.0179451 Eh     change       -0.1240123E-03 Eh
 * total energy  :   -83.0180296 Eh     change       -0.8445262E-04 Eh
 * total energy  :   -83.0180995 Eh     change       -0.6995763E-04 Eh
 * total energy  :   -83.0181675 Eh     change       -0.6794303E-04 Eh
 * total energy  :   -83.0189745 Eh     change       -0.2649930E-04 Eh
 * total energy  :   -83.0189875 Eh     change       -0.1295857E-04 Eh
 * total energy  :   -83.0190062 Eh     change       -0.1873161E-04 Eh
 * total energy  :   -83.0190102 Eh     change       -0.4028820E-05 Eh
 * total energy  :   -83.0190216 Eh     change       -0.1132913E-04 Eh
 * total energy  :   -83.0190294 Eh     change       -0.7816998E-05 Eh
 * total energy  :   -83.0190367 Eh     change       -0.7262778E-05 Eh
 * total energy  :   -83.0190428 Eh     change       -0.6189490E-05 Eh
 * total energy  :   -83.0190466 Eh     change       -0.3746811E-05 Eh
   *** GEOMETRY OPTIMIZATION CONVERGED AFTER 45 ITERATIONS ***

 final structure:
================
42
 xtb: 6.5.1 (579679a)
C           -6.03427326478096        0.07433689000822        1.71761996510712
O           -4.90351894330386       -0.24406305315788        0.90192870853847
C           -3.82344382153617        0.51711428872769        1.06555709921517
O           -3.77996526384339        1.43480066776252        1.85524623561288
C           -2.66838869287570        0.14550137660686        0.19261657671027
N           -1.58996032850963        0.96879165986813        0.38797317418736
C           -0.50856765894686        0.78265755883605       -0.28886900369872
C            0.66597669696209        1.72943834016422       -0.09500703274467
C            0.32933508636045        2.73212585566370        1.01023506896723
C            0.96833392821985        2.47114005936602       -1.40378566930686
N            1.84567849676049        0.97896452241770        0.35819679066598
C            2.61842987685246        0.18337524481595       -0.40520768614808
O            2.39744619444900       -0.12819659504928       -1.56567004091815
C            3.79227055533244       -0.30612925361932        0.35749856492768
N            4.04843148366970       -0.06271276443824        1.60811647173996
N            5.21182916368387       -0.70493244644498        1.90256099824751
C            5.59325317199640       -1.29905926005941        0.81140269090904
C            6.80808207492597       -2.11798184564143        0.60650712424445
O            4.73683434936864       -1.08586020528748       -0.19774472860245
N           -0.40500763720223       -0.21821094851355       -1.20170990078310
C           -1.40526552559904       -1.11973058467964       -1.48650139357652
O           -1.21802955921649       -2.00344981719505       -2.31192058269603
C           -2.63369607955711       -0.88879095193789       -0.71739278154868
O           -3.71572613790566       -1.66332400022627       -0.87672468451354
C           -3.77076795781271       -2.74791794656890       -1.80335250851674
H           -6.34899428165576        1.10528323642952        1.53940066437608
H           -5.78175013790634       -0.04830485737507        2.77361894051283
H           -6.82595861963876       -0.61660648483366        1.43629434752740
H           -0.55222787287224        3.30512864068320        0.72767279866704
H            0.11920810123663        2.21056050375350        1.94302615148473
H            1.16462879787339        3.41349145844207        1.15849010303792
H            1.85013475138662        3.09557943507453       -1.27190513321374
H            1.14735771186648        1.77640434654688       -2.22128562048238
H            0.11952444570674        3.10333759431122       -1.66012792693596
H            2.16055358499943        1.16072095807093        1.30035255445918
H            7.25348200610984       -2.36065464924929        1.56789371865158
H            6.55611181674896       -3.03247883587850        0.07212310373910
H            7.53090367762382       -1.56407381341201        0.00715830381311
H            0.47203836610655       -0.34404288166458       -1.70426137235014
H           -4.77702713855503       -3.15823366314493       -1.70921504555586
H           -3.61062764679756       -2.40163794209652       -2.82667981267939
H           -3.03664676973834       -3.51735183708043       -1.55413423107409

          :  Hamiltonian                  GFN1-xTB          :
         :: total energy             -83.019046590115 Eh    ::
         :: gradient norm              0.000600045394 Eh/a0 ::
         :: HOMO-LUMO gap              2.784103587369 eV    ::
         :: SCC energy               -83.800450087993 Eh    ::
         :: -> Gsolv                  -0.048488987929 Eh    ::
         :: repulsion energy           0.806523521821 Eh    ::

    * Orbital Energies and Occupations

         #    Occupation            Energy/Eh            Energy/eV
      -------------------------------------------------------------
         1        2.0000           -0.8665238             -23.5793
       ...           ...                  ...                  ...
        55        2.0000           -0.5088280             -13.8459
        56        2.0000           -0.5033197             -13.6960
        57        2.0000           -0.4961762             -13.5016
        58        2.0000           -0.4860433             -13.2259
        59        2.0000           -0.4822753             -13.1234
        60        2.0000           -0.4807163             -13.0810
        61        2.0000           -0.4707518             -12.8098
        62        2.0000           -0.4676514             -12.7254
        63        2.0000           -0.4579485             -12.4614
        64        2.0000           -0.4561552             -12.4126
        65        2.0000           -0.4482789             -12.1983
        66        2.0000           -0.4469917             -12.1633
        67        2.0000           -0.4259830             -11.5916 (HOMO)
        68                         -0.3236691              -8.8075 (LUMO)
        69                         -0.3157688              -8.5925
        70                         -0.2836102              -7.7174
        71                         -0.2594179              -7.0591
        72                         -0.2392095              -6.5092
        73                         -0.2037860              -5.5453
        74                         -0.1601481              -4.3579
        75                         -0.1431638              -3.8957
        76                         -0.1379619              -3.7541
        77                         -0.1318972              -3.5891
        78                         -0.1304718              -3.5503
       ...                                ...                  ...
       134                          0.7184280              19.5494
      -------------------------------------------------------------
                  HL-Gap            0.1023139 Eh            2.7841 eV

Wiberg/Mayer (AO) data.
largest (>0.10) Wiberg bond orders for each atom

     #   Z sym  total        # sym  WBO       # sym  WBO       # sym  WBO
 ---------------------------------------------------------------------------
     1   6 C    3.873 --    28 H    0.986    27 H    0.980    26 H    0.979
                             2 O    0.897
     2   8 O    2.204 --     3 C    1.115     1 C    0.897     4 O    0.134
     3   6 C    3.851 --     4 O    1.652     2 O    1.115     5 C    1.002
     4   8 O    1.914 --     3 C    1.652     2 O    0.134
     5   6 C    3.962 --    23 C    1.483     6 N    1.186     3 C    1.002
     6   7 N    3.027 --     7 C    1.581     5 C    1.186
     7   6 C    3.932 --     6 N    1.581    20 N    1.186     8 C    0.969
     8   6 C    3.933 --     9 C    1.001    10 C    0.983     7 C    0.969
                            11 N    0.917
     9   6 C    3.991 --     8 C    1.001    31 H    0.985    30 H    0.983
                            29 H    0.982
    10   6 C    3.988 --    34 H    0.985    32 H    0.983     8 C    0.983
                            33 H    0.979
    11   7 N    3.348 --    12 C    1.265     8 C    0.917    35 H    0.892
                            13 O    0.175
    12   6 C    3.916 --    13 O    1.570    11 N    1.265    14 C    0.994
    13   8 O    1.923 --    12 C    1.570    11 N    0.175
    14   6 C    3.877 --    15 N    1.606    19 O    1.065    12 C    0.994
    15   7 N    3.018 --    14 C    1.606    16 N    1.204
    16   7 N    2.981 --    17 C    1.600    15 N    1.204
    17   6 C    3.870 --    16 N    1.600    19 O    1.085    18 C    1.032
    18   6 C    3.986 --    17 C    1.032    36 H    0.981    37 H    0.969
                            38 H    0.958
    19   8 O    2.333 --    17 C    1.085    14 C    1.065
    20   7 N    3.476 --     7 C    1.186    21 C    1.140    39 H    0.851
                            22 O    0.133
    21   6 C    3.912 --    22 O    1.570    20 N    1.140    23 C    1.065
    22   8 O    1.898 --    21 C    1.570    20 N    0.133
    23   6 C    3.917 --     5 C    1.483    24 O    1.096    21 C    1.065
    24   8 O    2.193 --    23 C    1.096    25 C    0.896
    25   6 C    3.872 --    40 H    0.984    41 H    0.979    42 H    0.979
                            24 O    0.896
    26   1 H    1.008 --     1 C    0.979
    27   1 H    1.007 --     1 C    0.980
    28   1 H    1.011 --     1 C    0.986
    29   1 H    1.008 --     9 C    0.982
    30   1 H    1.005 --     9 C    0.983
    31   1 H    0.999 --     9 C    0.985
    32   1 H    0.999 --    10 C    0.983
    33   1 H    1.008 --    10 C    0.979
    34   1 H    1.000 --    10 C    0.985
    35   1 H    0.949 --    11 N    0.892
    36   1 H    0.998 --    18 C    0.981
    37   1 H    0.996 --    18 C    0.969
    38   1 H    0.996 --    18 C    0.958
    39   1 H    0.933 --    20 N    0.851
    40   1 H    1.012 --    25 C    0.984
    41   1 H    1.015 --    25 C    0.979
    42   1 H    1.015 --    25 C    0.979
 ---------------------------------------------------------------------------

           -------------------------------------------------
          | TOTAL ENERGY              -83.019046590115 Eh   |
          | GRADIENT NORM               0.000600045394 Eh/α |
          | HOMO-LUMO GAP               2.784103587369 eV   |
           -------------------------------------------------

 * finished run on 2023/06/21 at 17:39:08.053
