   * xtb version 6.5.1 (579679a) compiled by 'ehlert@majestix' on 2022-07-11
          program call               : /lustre/hpc/kemi/ree/PhD/git/ReactivityQM/dep/xtb-6.5.1/bin/xtb --gfn 1 /lustre/hpc/kemi/ree/PhD/git/ReactivityQM/calculations/R02methylcation/reac01prodN05/conf19/R02methylcation_reac01prodN05_conf19_gfn1.xyz --opt --vfukui --chrg 0 --uhf 0 --alpb DMSO

   ID    Z sym.   atoms
    1    6 C      1, 3, 5, 6, 8, 11-14, 16, 18, 21, 22, 25
    2    8 O      2, 4, 7, 9, 17, 23
    3    7 N      10, 15, 19, 20, 24
    4    1 H      26-42

      * Solvation model:               ALPB
        Solvent                        DMSO
        Solvent mass                       7.8130E+01 g/mol
          :  Hamiltonian                  GFN1-xTB          :
 * total energy  :   -82.9808187 Eh     change       -0.4037304E-10 Eh
 * total energy  :   -82.9926283 Eh     change       -0.1180957E-01 Eh
 * total energy  :   -82.9978790 Eh     change       -0.5250764E-02 Eh
 * total energy  :   -82.9995353 Eh     change       -0.1656243E-02 Eh
 * total energy  :   -83.0008006 Eh     change       -0.1265294E-02 Eh
 * total energy  :   -83.0015078 Eh     change       -0.7072593E-03 Eh
 * total energy  :   -83.0019206 Eh     change       -0.4127403E-03 Eh
 * total energy  :   -83.0021682 Eh     change       -0.2476566E-03 Eh
 * total energy  :   -83.0023155 Eh     change       -0.1472894E-03 Eh
 * total energy  :   -83.0024078 Eh     change       -0.9228268E-04 Eh
 * total energy  :   -83.0027379 Eh     change       -0.1903889E-04 Eh
 * total energy  :   -83.0027482 Eh     change       -0.1026656E-04 Eh
 * total energy  :   -83.0027574 Eh     change       -0.9243365E-05 Eh
 * total energy  :   -83.0027637 Eh     change       -0.6255922E-05 Eh
 * total energy  :   -83.0027693 Eh     change       -0.5565370E-05 Eh
 * total energy  :   -83.0027777 Eh     change       -0.8451284E-05 Eh
 * total energy  :   -83.0027851 Eh     change       -0.7372269E-05 Eh
 * total energy  :   -83.0027913 Eh     change       -0.6210021E-05 Eh
 * total energy  :   -83.0027959 Eh     change       -0.4606455E-05 Eh
   *** GEOMETRY OPTIMIZATION CONVERGED AFTER 27 ITERATIONS ***

 final structure:
================
42
 xtb: 6.5.1 (579679a)
C            4.55943505992164        2.98714204351224       -1.45612930245748
O            4.22191286811077        1.75864705192330       -0.81309617065145
C            2.92023777385679        1.45504976986661       -0.76822378868630
O            2.07989273265028        2.19394835380216       -1.25730371534380
C            2.63972852654848        0.20482765785808       -0.04953973474890
C            3.56814830307382       -0.31443021450246        0.89494123936865
O            4.70855212626188        0.10505765032344        1.09969420681373
C            3.07053143642678       -1.46731854330557        1.73010159788695
O            3.73051380266121       -2.08379743509737        2.54138601244669
N            1.73521080587846       -1.79245049163799        1.55077714624395
C            0.89882419672938       -1.29265779591515        0.61388735524516
C           -0.50759919415545       -1.88127401940715        0.59254841803226
C           -0.90683932150793       -2.43969186052002        1.96926602098678
C           -0.61450165388136       -3.00523849325755       -0.44509221087153
N           -1.46061851649698       -0.82418705576535        0.26347949177743
C           -1.49888719253139        0.31613729645219        0.99774328313074
O           -0.67754280980109        0.60465853631598        1.85095773409684
C           -2.61495522482535        1.20665082378084        0.61472806069032
N           -2.91639551374591        2.36738487945288        1.10793791968914
N           -4.00815075352026        2.81149344975266        0.42742350983691
C           -4.30713952305147        1.89540961305551       -0.44115121337188
C           -5.40575009827679        1.90222911726811       -1.43008488867154
O           -3.46354677324728        0.85245298726002       -0.37462976542007
N            1.36117931955005       -0.36691626555519       -0.19971502623496
C            0.58603002083015        0.03771134485100       -1.37837415788863
H            4.19941880188106        2.98500374560446       -2.48771154026920
H            4.11343743847410        3.83092692550214       -0.92321960151779
H            5.64523328103240        3.06187440342733       -1.43805082244382
H            1.41064856984929       -2.54645573427104        2.13519495131874
H           -0.70084842083833       -1.71547657507302        2.75581657829043
H           -1.97504651385808       -2.64640821261596        1.95279673856193
H           -0.38683358544523       -3.37191510394430        2.17912522358739
H            0.10751645961104       -3.78468153126817       -0.20826158363321
H           -1.61537510832575       -3.43031115730849       -0.40876711079901
H           -0.42607960963165       -2.64848743467220       -1.45456666125060
H           -2.24110841518953       -1.06295168687697       -0.32297407116903
H           -6.01267016898510        1.00462256724064       -1.31554503124270
H           -4.99335103521504        1.90104039522138       -2.43951690034126
H           -6.02343310333434        2.78631034573795       -1.28982637406250
H            0.04997330559143        0.96308206971745       -1.17546532557687
H            1.26925993602017        0.18283609249282       -2.21126062780495
H           -0.11901322909516       -0.73984850943064       -1.63967586354891

          :  Hamiltonian                  GFN1-xTB          :
         :: total energy             -83.002795906131 Eh    ::
         :: gradient norm              0.000605300611 Eh/a0 ::
         :: HOMO-LUMO gap              2.518701255960 eV    ::
         :: SCC energy               -83.784987320593 Eh    ::
         :: -> Gsolv                  -0.084345020429 Eh    ::
         :: repulsion energy           0.809995421541 Eh    ::

    * Orbital Energies and Occupations

         #    Occupation            Energy/Eh            Energy/eV
      -------------------------------------------------------------
         1        2.0000           -0.8698857             -23.6708
       ...           ...                  ...                  ...
        55        2.0000           -0.5100230             -13.8784
        56        2.0000           -0.5096478             -13.8682
        57        2.0000           -0.4932578             -13.4222
        58        2.0000           -0.4901071             -13.3365
        59        2.0000           -0.4885727             -13.2947
        60        2.0000           -0.4854224             -13.2090
        61        2.0000           -0.4757758             -12.9465
        62        2.0000           -0.4723251             -12.8526
        63        2.0000           -0.4666898             -12.6993
        64        2.0000           -0.4574411             -12.4476
        65        2.0000           -0.4552115             -12.3869
        66        2.0000           -0.4248972             -11.5620
        67        2.0000           -0.4133784             -11.2486 (HOMO)
        68                         -0.3208179              -8.7299 (LUMO)
        69                         -0.3192397              -8.6870
        70                         -0.3022321              -8.2242
        71                         -0.2603521              -7.0845
        72                         -0.2380363              -6.4773
        73                         -0.2060541              -5.6070
        74                         -0.1655349              -4.5044
        75                         -0.1472612              -4.0072
        76                         -0.1436567              -3.9091
        77                         -0.1428710              -3.8877
        78                         -0.1339991              -3.6463
       ...                                ...                  ...
       134                          0.7504153              20.4198
      -------------------------------------------------------------
                  HL-Gap            0.0925606 Eh            2.5187 eV

Wiberg/Mayer (AO) data.
largest (>0.10) Wiberg bond orders for each atom

     #   Z sym  total        # sym  WBO       # sym  WBO       # sym  WBO
 ---------------------------------------------------------------------------
     1   6 C    3.879 --    28 H    0.986    26 H    0.980    27 H    0.980
                             2 O    0.905
     2   8 O    2.199 --     3 C    1.101     1 C    0.905     4 O    0.120
     3   6 C    3.865 --     4 O    1.583     2 O    1.101     5 C    1.083
     4   8 O    1.895 --     3 C    1.583     2 O    0.120
     5   6 C    3.852 --     6 C    1.261     3 C    1.083    24 N    1.054
                             7 O    0.140
     6   6 C    3.945 --     7 O    1.568     5 C    1.261     8 C    0.954
     7   8 O    1.878 --     6 C    1.568     5 C    0.140
     8   6 C    3.868 --     9 O    1.656    10 N    1.093     6 C    0.954
     9   8 O    1.927 --     8 C    1.656    10 N    0.117
    10   7 N    3.456 --    11 C    1.206     8 C    1.093    29 H    0.879
                             9 O    0.117
    11   6 C    3.915 --    24 N    1.435    10 N    1.206    12 C    0.976
    12   6 C    3.938 --    13 C    0.985    14 C    0.982    11 C    0.976
                            15 N    0.937
    13   6 C    3.986 --    12 C    0.985    30 H    0.980    31 H    0.980
                            32 H    0.979
    14   6 C    3.983 --    33 H    0.982    12 C    0.982    34 H    0.980
                            35 H    0.976
    15   7 N    3.330 --    16 C    1.229    12 C    0.937    36 H    0.887
                            17 O    0.169
    16   6 C    3.913 --    17 O    1.594    15 N    1.229    18 C    1.001
    17   8 O    1.897 --    16 C    1.594    15 N    0.169
    18   6 C    3.875 --    19 N    1.617    23 O    1.047    16 C    1.001
    19   7 N    3.004 --    18 C    1.617    20 N    1.204
    20   7 N    2.982 --    21 C    1.605    19 N    1.204
    21   6 C    3.866 --    20 N    1.605    23 O    1.074    22 C    1.033
    22   6 C    3.985 --    21 C    1.033    39 H    0.982    37 H    0.964
                            38 H    0.960
    23   8 O    2.317 --    21 C    1.074    18 C    1.047
    24   7 N    3.593 --    11 C    1.435     5 C    1.054    25 C    0.921
    25   6 C    3.913 --    41 H    0.976    42 H    0.975    40 H    0.969
                            24 N    0.921
    26   1 H    1.010 --     1 C    0.980
    27   1 H    1.009 --     1 C    0.980
    28   1 H    1.012 --     1 C    0.986
    29   1 H    0.933 --    10 N    0.879
    30   1 H    1.004 --    13 C    0.980
    31   1 H    0.998 --    13 C    0.980
    32   1 H    0.997 --    13 C    0.979
    33   1 H    0.998 --    14 C    0.982
    34   1 H    0.993 --    14 C    0.980
    35   1 H    0.999 --    14 C    0.976
    36   1 H    0.928 --    15 N    0.887
    37   1 H    0.996 --    22 C    0.964
    38   1 H    0.996 --    22 C    0.960
    39   1 H    0.998 --    22 C    0.982
    40   1 H    1.014 --    25 C    0.969
    41   1 H    1.005 --    25 C    0.976
    42   1 H    1.008 --    25 C    0.975
 ---------------------------------------------------------------------------

           -------------------------------------------------
          | TOTAL ENERGY              -83.002795906131 Eh   |
          | GRADIENT NORM               0.000605300611 Eh/α |
          | HOMO-LUMO GAP               2.518701255960 eV   |
           -------------------------------------------------

 * finished run on 2023/06/21 at 17:35:06.995
