   * xtb version 6.5.1 (579679a) compiled by 'ehlert@majestix' on 2022-07-11
          program call               : /lustre/hpc/kemi/ree/PhD/git/ReactivityQM/dep/xtb-6.5.1/bin/xtb --gfn 1 /lustre/hpc/kemi/ree/PhD/git/ReactivityQM/calculations/R02deprot/reac01prodE07/conf03/R02deprot_reac01prodE07_conf03_gfn1.xyz --opt --vfukui --chrg -2 --uhf 0 --alpb DMSO

   ID    Z sym.   atoms
    1    6 C      1, 3, 5, 7-10, 12, 14, 15, 18, 19, 22, 24
    2    8 O      2, 4, 13, 20, 23, 25
    3    7 N      6, 11, 16, 17, 21
    4    1 H      26-42

      * Solvation model:               ALPB
        Solvent                        DMSO
        Solvent mass                       7.8130E+01 g/mol
          :  Hamiltonian                  GFN1-xTB          :
 * total energy  :   -83.5668671 Eh     change       -0.9208634E-11 Eh
 * total energy  :   -83.5806323 Eh     change       -0.1376525E-01 Eh
 * total energy  :   -83.5861992 Eh     change       -0.5566921E-02 Eh
 * total energy  :   -83.5871696 Eh     change       -0.9703440E-03 Eh
 * total energy  :   -83.5879339 Eh     change       -0.7643140E-03 Eh
 * total energy  :   -83.5885961 Eh     change       -0.6622218E-03 Eh
 * total energy  :   -83.5892670 Eh     change       -0.6708288E-03 Eh
 * total energy  :   -83.5900565 Eh     change       -0.7895624E-03 Eh
 * total energy  :   -83.5906948 Eh     change       -0.6383163E-03 Eh
 * total energy  :   -83.5910534 Eh     change       -0.3585473E-03 Eh
 * total energy  :   -83.5978578 Eh     change       -0.3024519E-04 Eh
 * total energy  :   -83.5978812 Eh     change       -0.2343398E-04 Eh
 * total energy  :   -83.5978890 Eh     change       -0.7758952E-05 Eh
 * total energy  :   -83.5979035 Eh     change       -0.1456523E-04 Eh
 * total energy  :   -83.5979112 Eh     change       -0.7642003E-05 Eh
 * total energy  :   -83.5979180 Eh     change       -0.6882413E-05 Eh
 * total energy  :   -83.5979233 Eh     change       -0.5245534E-05 Eh
 * total energy  :   -83.5979291 Eh     change       -0.5778657E-05 Eh
 * total energy  :   -83.5979333 Eh     change       -0.4238238E-05 Eh
   *** GEOMETRY OPTIMIZATION CONVERGED AFTER 61 ITERATIONS ***

 final structure:
================
42
 xtb: 6.5.1 (579679a)
C            7.08991066511478        0.29149788151285        0.47549863206161
O            5.80665859470866        0.91305983009487        0.49290292882567
C            4.75269885912911        0.09414075160341        0.22667762195205
O            4.92888446525351       -1.08706386984152       -0.01294173522747
C            3.44291898943910        0.76512656873686        0.25939708181152
N            2.39823132776155       -0.07817881087102       -0.00735299759932
C            1.18172491993141        0.42947850128778        0.00891571203017
C            0.01991853082128       -0.52836888971145       -0.23986560247850
C            0.51254686340032       -1.78887364225582       -0.95778121876001
C           -0.57830024705917       -0.89025124110886        1.13457611184325
N           -0.96256108591088        0.17003684979176       -1.09700931481837
C           -2.29456701906320       -0.37073052748460       -1.09904238494648
O           -2.57272873570120       -1.25528919440476       -2.17394706096635
C           -3.16933198287304       -2.47996802870506       -1.79738920129431
C           -3.27535486627041        0.23471291461175       -0.36479426186282
N           -3.07697915357710        1.17173291801480        0.59987825694766
N           -4.32373422153523        1.44322093532235        1.12481775325688
C           -5.18432341292706        0.71035373819982        0.51497272488462
C           -6.65329761048558        0.65493774257015        0.74517013132176
O           -4.62368348295449       -0.09573863377943       -0.45278118803259
N            0.85556212236200        1.69492427358864        0.25843964777884
C            1.82726179697569        2.60732582794394        0.52230531315184
O            1.56593825857420        3.80557843598297        0.74923052509307
C            3.20681660474580        2.09777591107940        0.52702328746132
O            4.16601409442272        3.02484046941145        0.80696701739555
H            7.29382586150145       -0.13431638776974       -0.51084037067613
H            7.13733736017010       -0.50330233702231        1.22500376839636
H            7.82068314024248        1.06382756940802        0.70535311621930
H            0.93212380519979       -1.52022307453077       -1.92824585048889
H            1.28485625901284       -2.28310240066812       -0.36854079889968
H           -0.31007686657228       -2.48554543717427       -1.11377820342830
H           -1.37603118026497       -1.62463941229458        1.01787165890734
H           -0.99057806702871        0.00399234018456        1.60643764391836
H            0.19457265114338       -1.31078268914286        1.77782508024021
H           -1.00949376382163        1.13830964143457       -0.75329302515347
H           -4.20907938876987       -2.33796681297067       -1.47239477898472
H           -2.61663974481927       -2.96948547037146       -0.98278648123729
H           -3.16242832195972       -3.13425753349540       -2.67372317641243
H           -6.92364164488700        1.37088954200879        1.51906775889224
H           -7.19920041529714        0.89592933317070       -0.16883133193844
H           -6.95992112192131       -0.34294255432326        1.06312031533548
H            5.05346816378878        2.63933597196965        0.81388589546564

          :  Hamiltonian                  GFN1-xTB          :
         :: total energy             -83.597933311620 Eh    ::
         :: gradient norm              0.000806846941 Eh/a0 ::
         :: HOMO-LUMO gap              0.190662647496 eV    ::
         :: SCC energy               -84.322212555826 Eh    ::
         :: -> Gsolv                  -0.280557877710 Eh    ::
         :: repulsion energy           0.750327451574 Eh    ::

    * Orbital Energies and Occupations

         #    Occupation            Energy/Eh            Energy/eV
      -------------------------------------------------------------
         1        2.0000           -0.8104643             -22.0539
       ...           ...                  ...                  ...
        56        2.0000           -0.4378309             -11.9140
        57        2.0000           -0.4180548             -11.3759
        58        2.0000           -0.4143956             -11.2763
        59        2.0000           -0.4135395             -11.2530
        60        2.0000           -0.4021619             -10.9434
        61        2.0000           -0.3904570             -10.6249
        62        2.0000           -0.3824027             -10.4057
        63        2.0000           -0.3793805             -10.3235
        64        2.0000           -0.3641126              -9.9080
        65        2.0000           -0.3592038              -9.7744
        66        2.0000           -0.3540533              -9.6343
        67        2.0000           -0.3529362              -9.6039
        68        1.9512           -0.2747793              -7.4771 (HOMO)
        69        0.0488           -0.2677726              -7.2865 (LUMO)
        70                         -0.2082495              -5.6668
        71                         -0.1794791              -4.8839
        72                         -0.1772197              -4.8224
        73                         -0.1336736              -3.6374
        74                         -0.1239646              -3.3732
        75                         -0.1129344              -3.0731
        76                         -0.1026097              -2.7922
        77                         -0.0912818              -2.4839
        78                         -0.0870246              -2.3681
        79                         -0.0841262              -2.2892
       ...                                ...                  ...
       134                          0.7365845              20.0435
      -------------------------------------------------------------
                  HL-Gap            0.0070067 Eh            0.1907 eV

Wiberg/Mayer (AO) data.
largest (>0.10) Wiberg bond orders for each atom

     #   Z sym  total        # sym  WBO       # sym  WBO       # sym  WBO
 ---------------------------------------------------------------------------
     1   6 C    3.885 --    28 H    0.987    26 H    0.981    27 H    0.981
                             2 O    0.908
     2   8 O    2.167 --     3 C    1.037     1 C    0.908     4 O    0.113
     3   6 C    3.803 --     4 O    1.623     5 C    1.051     2 O    1.037
     4   8 O    1.878 --     3 C    1.623     2 O    0.113
     5   6 C    3.954 --    24 C    1.452     6 N    1.205     3 C    1.051
     6   7 N    2.984 --     7 C    1.449     5 C    1.205
     7   6 C    3.950 --     6 N    1.449    21 N    1.369     8 C    0.973
     8   6 C    3.968 --     9 C    0.999    10 C    0.976     7 C    0.973
                            11 N    0.953
     9   6 C    3.997 --     8 C    0.999    29 H    0.986    30 H    0.986
                            31 H    0.983
    10   6 C    3.996 --    34 H    0.987    32 H    0.983    33 H    0.982
                             8 C    0.976
    11   7 N    3.011 --    12 C    0.983     8 C    0.953    35 H    0.932
    12   6 C    3.693 --    15 C    1.488    11 N    0.983    13 O    0.909
                            16 N    0.133
    13   8 O    1.997 --    14 C    0.957    12 C    0.909
    14   6 C    3.932 --    38 H    0.985    36 H    0.980    37 H    0.977
                            13 O    0.957
    15   6 C    3.864 --    12 C    1.488    16 N    1.269    20 O    0.955
    16   7 N    2.796 --    15 C    1.269    17 N    1.154    12 C    0.133
                            18 C    0.119
    17   7 N    2.988 --    18 C    1.673    16 N    1.154
    18   6 C    3.873 --    17 N    1.673    19 C    1.018    20 O    0.990
                            16 N    0.119
    19   6 C    3.996 --    18 C    1.018    39 H    0.987    40 H    0.976
                            41 H    0.975
    20   8 O    2.173 --    18 C    0.990    15 C    0.955
    21   7 N    2.985 --     7 C    1.369    22 C    1.239    23 O    0.124
    22   6 C    3.929 --    23 O    1.476    21 N    1.239    24 C    1.082
    23   8 O    1.760 --    22 C    1.476    21 N    0.124
    24   6 C    3.873 --     5 C    1.452    22 C    1.082    25 O    1.045
    25   8 O    2.028 --    24 C    1.045    42 H    0.829
    26   1 H    1.012 --     1 C    0.981
    27   1 H    1.012 --     1 C    0.981
    28   1 H    1.013 --     1 C    0.987
    29   1 H    1.018 --     9 C    0.986
    30   1 H    1.022 --     9 C    0.986
    31   1 H    1.011 --     9 C    0.983
    32   1 H    1.020 --    10 C    0.983
    33   1 H    1.030 --    10 C    0.982
    34   1 H    1.009 --    10 C    0.987
    35   1 H    1.010 --    11 N    0.932
    36   1 H    1.029 --    14 C    0.980
    37   1 H    1.028 --    14 C    0.977
    38   1 H    1.023 --    14 C    0.985
    39   1 H    1.008 --    19 C    0.987
    40   1 H    1.007 --    19 C    0.976
    41   1 H    1.007 --    19 C    0.975
    42   1 H    0.881 --    25 O    0.829
 ---------------------------------------------------------------------------

           -------------------------------------------------
          | TOTAL ENERGY              -83.597933311620 Eh   |
          | GRADIENT NORM               0.000806846941 Eh/α |
          | HOMO-LUMO GAP               0.190662647496 eV   |
           -------------------------------------------------

 * finished run on 2023/06/20 at 17:49:32.248
