   * xtb version 6.5.1 (579679a) compiled by 'ehlert@majestix' on 2022-07-11
          program call               : /lustre/hpc/kemi/ree/PhD/git/ReactivityQM/dep/xtb-6.5.1/bin/xtb --gfn 1 /lustre/hpc/kemi/ree/PhD/git/ReactivityQM/calculations/R01/reac01prodE01/conf11/R01_reac01prodE01_conf11_gfn1.xyz --opt --vfukui --chrg -1 --uhf 0 --alpb DMSO

   ID    Z sym.   atoms
    1    6 C      1, 3, 4, 6, 9, 10
    2    8 O      2, 5, 11
    3    7 N      7, 8
    4    1 H      12-20

      * Solvation model:               ALPB
        Solvent                        DMSO
        Solvent mass                       7.8130E+01 g/mol
          :  Hamiltonian                  GFN1-xTB          :
 * total energy  :   -38.3287883 Eh     change       -0.4057199E-11 Eh
 * total energy  :   -38.3375647 Eh     change       -0.8776408E-02 Eh
 * total energy  :   -38.3407703 Eh     change       -0.3205534E-02 Eh
 * total energy  :   -38.3413701 Eh     change       -0.5997912E-03 Eh
 * total energy  :   -38.3416401 Eh     change       -0.2700694E-03 Eh
 * total energy  :   -38.3417505 Eh     change       -0.1103225E-03 Eh
 * total energy  :   -38.3418461 Eh     change       -0.9568685E-04 Eh
 * total energy  :   -38.3419267 Eh     change       -0.8058957E-04 Eh
 * total energy  :   -38.3419829 Eh     change       -0.5617928E-04 Eh
 * total energy  :   -38.3420268 Eh     change       -0.4387687E-04 Eh
 * total energy  :   -38.3443641 Eh     change       -0.9406326E-05 Eh
 * total energy  :   -38.3443878 Eh     change       -0.2376963E-04 Eh
 * total energy  :   -38.3444095 Eh     change       -0.2170134E-04 Eh
 * total energy  :   -38.3444329 Eh     change       -0.2340835E-04 Eh
 * total energy  :   -38.3444466 Eh     change       -0.1362567E-04 Eh
 * total energy  :   -38.3444558 Eh     change       -0.9246792E-05 Eh
 * total energy  :   -38.3444636 Eh     change       -0.7821087E-05 Eh
 * total energy  :   -38.3444733 Eh     change       -0.9697917E-05 Eh
 * total energy  :   -38.3444780 Eh     change       -0.4674204E-05 Eh
   *** GEOMETRY OPTIMIZATION CONVERGED AFTER 71 ITERATIONS ***

 final structure:
================
20
 xtb: 6.5.1 (579679a)
C           -2.83849777263136        1.13509641572453        0.33347752557247
O           -2.25940915876223       -0.12333378968414        0.08977960962090
C           -1.16117507566953       -0.10190200489882       -0.94675126404164
C           -1.03811484718783       -1.60701278104003       -1.33401362014497
O           -1.34182528967527        0.72350421207014       -1.91664251505576
C            0.11997301500781        0.26105762926809       -0.09636162886085
N            0.27821978617801        1.26753811538644        0.70488656675687
N            1.59728008681575        1.25325924564025        1.11979782044621
C            2.14720399532071        0.24367282167823        0.53543427596629
C            3.55556134857165       -0.20906985425315        0.64233579522474
O            1.27719960938010       -0.42746184927011       -0.24694767125072
H           -3.07042541637604        1.66425848716383       -0.60403060276112
H           -3.77138810388460        0.97734882714327        0.88370920114323
H           -2.17968002999284        1.77962397099498        0.94006068416238
H           -0.19090615044534       -1.73116201747924       -2.00547677138003
H           -0.90068539201161       -2.22711887743358       -0.45030223925195
H           -1.95033344073516       -1.90245868928609       -1.84906809535716
H            4.08485792728762        0.41334542811480        1.35964846208006
H            4.04898887536029       -0.14102366909373       -0.32709370167911
H            3.59315603345033       -1.24816062074540        0.96760716881034

          :  Hamiltonian                  GFN1-xTB          :
         :: total energy             -38.344478002558 Eh    ::
         :: gradient norm              0.000850291854 Eh/a0 ::
         :: HOMO-LUMO gap              3.301545632299 eV    ::
         :: SCC energy               -38.653888291018 Eh    ::
         :: -> Gsolv                  -0.104109512370 Eh    ::
         :: repulsion energy           0.317922502876 Eh    ::

    * Orbital Energies and Occupations

         #    Occupation            Energy/Eh            Energy/eV
      -------------------------------------------------------------
         1        2.0000           -0.8215280             -22.3549
       ...           ...                  ...                  ...
        19        2.0000           -0.5105872             -13.8938
        20        2.0000           -0.5008970             -13.6301
        21        2.0000           -0.4794683             -13.0470
        22        2.0000           -0.4718134             -12.8387
        23        2.0000           -0.4630646             -12.6006
        24        2.0000           -0.4621400             -12.5755
        25        2.0000           -0.4466578             -12.1542
        26        2.0000           -0.4399309             -11.9711
        27        2.0000           -0.4172550             -11.3541
        28        2.0000           -0.4137863             -11.2597
        29        2.0000           -0.4045695             -11.0089
        30        2.0000           -0.3683542             -10.0234
        31        2.0000           -0.3498593              -9.5202 (HOMO)
        32                         -0.2285297              -6.2186 (LUMO)
        33                         -0.2127851              -5.7902
        34                         -0.1305193              -3.5516
        35                         -0.1003995              -2.7320
        36                         -0.0832947              -2.2666
        37                         -0.0633207              -1.7230
        38                         -0.0624597              -1.6996
        39                         -0.0377230              -1.0265
        40                         -0.0305021              -0.8300
        41                         -0.0284700              -0.7747
        42                         -0.0263082              -0.7159
       ...                                ...                  ...
        62                          0.6107816              16.6202
      -------------------------------------------------------------
                  HL-Gap            0.1213296 Eh            3.3015 eV

Wiberg/Mayer (AO) data.
largest (>0.10) Wiberg bond orders for each atom

     #   Z sym  total        # sym  WBO       # sym  WBO       # sym  WBO
 ---------------------------------------------------------------------------
     1   6 C    3.932 --    13 H    0.985    14 H    0.978    12 H    0.975
                             2 O    0.971
     2   8 O    1.943 --     1 C    0.971     3 C    0.789
     3   6 C    3.899 --     5 O    1.253     4 C    0.942     6 C    0.865
                             2 O    0.789
     4   6 C    3.994 --    16 H    0.990    15 H    0.987    17 H    0.987
                             3 C    0.942
     5   8 O    1.551 --     3 C    1.253
     6   6 C    3.802 --     7 N    1.659    11 O    1.045     3 C    0.865
     7   7 N    2.981 --     6 C    1.659     8 N    1.147
     8   7 N    2.976 --     9 C    1.658     7 N    1.147
     9   6 C    3.887 --     8 N    1.658    11 O    1.060    10 C    1.024
    10   6 C    3.993 --     9 C    1.024    18 H    0.985    20 H    0.971
                            19 H    0.969
    11   8 O    2.291 --     9 C    1.060     6 C    1.045
    12   1 H    1.033 --     1 C    0.975
    13   1 H    1.023 --     1 C    0.985
    14   1 H    1.034 --     1 C    0.978
    15   1 H    1.016 --     4 C    0.987
    16   1 H    1.012 --     4 C    0.990
    17   1 H    1.017 --     4 C    0.987
    18   1 H    1.002 --    10 C    0.985
    19   1 H    1.002 --    10 C    0.969
    20   1 H    1.002 --    10 C    0.971
 ---------------------------------------------------------------------------

           -------------------------------------------------
          | TOTAL ENERGY              -38.344478002558 Eh   |
          | GRADIENT NORM               0.000850291854 Eh/α |
          | HOMO-LUMO GAP               3.301545632299 eV   |
           -------------------------------------------------

 * finished run on 2023/06/20 at 14:52:34.203
