   * xtb version 6.5.1 (579679a) compiled by 'ehlert@majestix' on 2022-07-11
          program call               : /lustre/hpc/kemi/ree/PhD/git/ReactivityQM/dep/xtb-6.5.1/bin/xtb --gfn 1 /lustre/hpc/kemi/ree/PhD/git/ReactivityQM/calculations/R02deprot/reac01prodN11/conf16/R02deprot_reac01prodN11_conf16_gfn1.xyz --opt --vfukui --chrg 0 --uhf 0 --alpb DMSO

   ID    Z sym.   atoms
    1    6 C      1, 3, 5, 6, 8, 11-15, 17, 19, 22, 23
    2    8 O      2, 4, 7, 9, 18, 24
    3    7 N      10, 16, 20, 21, 25
    4    1 H      26-42

      * Solvation model:               ALPB
        Solvent                        DMSO
        Solvent mass                       7.8130E+01 g/mol
          :  Hamiltonian                  GFN1-xTB          :
 * total energy  :   -82.9164005 Eh     change       -0.7972289E-11 Eh
 * total energy  :   -82.9302415 Eh     change       -0.1384097E-01 Eh
 * total energy  :   -82.9355598 Eh     change       -0.5318281E-02 Eh
 * total energy  :   -82.9368782 Eh     change       -0.1318392E-02 Eh
 * total energy  :   -82.9377127 Eh     change       -0.8344864E-03 Eh
 * total energy  :   -82.9381816 Eh     change       -0.4689374E-03 Eh
 * total energy  :   -82.9386111 Eh     change       -0.4294508E-03 Eh
 * total energy  :   -82.9389461 Eh     change       -0.3350267E-03 Eh
 * total energy  :   -82.9391668 Eh     change       -0.2207580E-03 Eh
 * total energy  :   -82.9394063 Eh     change       -0.2394860E-03 Eh
 * total energy  :   -82.9402071 Eh     change       -0.2064848E-04 Eh
 * total energy  :   -82.9402226 Eh     change       -0.1550474E-04 Eh
 * total energy  :   -82.9402308 Eh     change       -0.8253226E-05 Eh
 * total energy  :   -82.9402376 Eh     change       -0.6761628E-05 Eh
 * total energy  :   -82.9402485 Eh     change       -0.1091896E-04 Eh
 * total energy  :   -82.9402563 Eh     change       -0.7803317E-05 Eh
 * total energy  :   -82.9402639 Eh     change       -0.7529174E-05 Eh
 * total energy  :   -82.9402693 Eh     change       -0.5424320E-05 Eh
 * total energy  :   -82.9402727 Eh     change       -0.3407405E-05 Eh
   *** GEOMETRY OPTIMIZATION CONVERGED AFTER 27 ITERATIONS ***

 final structure:
================
42
 xtb: 6.5.1 (579679a)
C           -2.91531071109582       -1.19487046829851       -3.10309979443510
O           -2.45005270730932       -0.63156777183738       -1.86906215043080
C           -3.33974582950468       -0.53858330376676       -0.89216129732303
O           -4.48860347313806       -0.88967230967058       -0.98301357090505
C           -2.73691318501626        0.06252035501856        0.35650484133275
C           -3.46348709666033        0.19038546233310        1.56402369068415
O           -4.69648580141123       -0.14863380405027        1.73719022259592
C           -2.81422129981408        0.74119245447926        2.78524735741100
O           -3.52832601981173        0.77579487703015        3.79547283658355
N           -1.55524742496124        1.14494999813053        2.66790604712626
C           -0.87413536788301        1.05449329140305        1.43911274760104
C           -0.52583486339277        2.49808767057260        0.99503566228105
C            0.46100925052151        0.23765211168249        1.67957145772796
C            0.09114395828170       -1.19263945777731        2.08417368519715
C            1.30511400760132        0.91222692140289        2.75706846931754
N            1.14971219277028        0.21156026033682        0.39584856977807
C            2.44021829679697       -0.15922672629804        0.22966522227604
O            3.24229682331654       -0.38051543773254        1.11679470185922
C            2.77578049380323       -0.23970489925743       -1.21562691526085
N            1.96590192138627       -0.01910910061525       -2.20761270710438
N            2.68552491686461       -0.20199372826980       -3.34941743091557
C            3.88907963037441       -0.52425714067723       -2.98113204117801
C            5.04994648715829       -0.82188834899129       -3.84848300683548
O            4.00802983154418       -0.56471818393802       -1.64636057879320
N           -1.49984380825526        0.46336854653571        0.31231161116557
H           -3.24646807387376       -2.22251149264712       -2.93946911761539
H           -2.07338028114064       -1.17106139897451       -3.79116432164747
H           -3.74568226595177       -0.60226895082957       -3.49298277763080
H           -4.88992194163293        0.05118554451907        2.69997437630954
H           -1.44373050720422        2.99448811050121        0.68908512754037
H            0.17060624419933        2.47150605929001        0.16137469182804
H           -0.09057349280482        3.03354810333757        1.83403610825951
H           -0.50460960819072       -1.66562260378040        1.30580702537852
H           -0.47541905320134       -1.18009142610520        3.01354737067358
H            1.00364984649127       -1.76942076095091        2.22919426804379
H            1.79349809049335        1.80396784215753        2.36966140129074
H            2.07207281111431        0.22528203500493        3.11050737359746
H            0.66728883852784        1.18609858038021        3.59611163336779
H            0.55521584638133        0.20036378827732       -0.42477428148276
H            4.74608306625391       -0.78265949541714       -4.89154759042729
H            5.84201054266855       -0.09402716742191       -3.67180217685839
H            5.44380771571437       -1.81130903508563       -3.61751674038968

          :  Hamiltonian                  GFN1-xTB          :
         :: total energy             -82.940272692982 Eh    ::
         :: gradient norm              0.000641945306 Eh/a0 ::
         :: HOMO-LUMO gap              0.956358712408 eV    ::
         :: SCC energy               -83.704191032298 Eh    ::
         :: -> Gsolv                  -0.048796365549 Eh    ::
         :: repulsion energy           0.791289639506 Eh    ::

    * Orbital Energies and Occupations

         #    Occupation            Energy/Eh            Energy/eV
      -------------------------------------------------------------
         1        2.0000           -0.8660516             -23.5665
       ...           ...                  ...                  ...
        55        2.0000           -0.5075050             -13.8099
        56        2.0000           -0.5054596             -13.7543
        57        2.0000           -0.4998281             -13.6010
        58        2.0000           -0.4960689             -13.4987
        59        2.0000           -0.4905176             -13.3477
        60        2.0000           -0.4847072             -13.1896
        61        2.0000           -0.4690173             -12.7626
        62        2.0000           -0.4651521             -12.6574
        63        2.0000           -0.4627844             -12.5930
        64        2.0000           -0.4548082             -12.3760
        65        2.0000           -0.4506861             -12.2638
        66        2.0000           -0.4333919             -11.7932
        67        2.0000           -0.4281968             -11.6518 (HOMO)
        68                         -0.3930512             -10.6955 (LUMO)
        69                         -0.3239992              -8.8165
        70                         -0.3138529              -8.5404
        71                         -0.2590762              -7.0498
        72                         -0.2379642              -6.4753
        73                         -0.2022266              -5.5029
        74                         -0.1847567              -5.0275
        75                         -0.1445179              -3.9325
        76                         -0.1434748              -3.9041
        77                         -0.1372937              -3.7360
        78                         -0.1245252              -3.3885
       ...                                ...                  ...
       134                          0.7345607              19.9884
      -------------------------------------------------------------
                  HL-Gap            0.0351455 Eh            0.9564 eV

Wiberg/Mayer (AO) data.
largest (>0.10) Wiberg bond orders for each atom

     #   Z sym  total        # sym  WBO       # sym  WBO       # sym  WBO
 ---------------------------------------------------------------------------
     1   6 C    3.861 --    27 H    0.986    28 H    0.979    26 H    0.979
                             2 O    0.887
     2   8 O    2.217 --     3 C    1.137     1 C    0.887     4 O    0.143
     3   6 C    3.854 --     4 O    1.683     2 O    1.137     5 C    0.957
     4   8 O    1.941 --     3 C    1.683     2 O    0.143
     5   6 C    3.963 --    25 N    1.576     6 C    1.203     3 C    0.957
     6   6 C    3.831 --     7 O    1.294     5 C    1.203     8 C    1.001
                            10 N    0.149
     7   8 O    2.233 --     6 C    1.294    29 H    0.746
     8   6 C    3.936 --     9 O    1.487    10 N    1.346     6 C    1.001
     9   8 O    1.860 --     8 C    1.487    10 N    0.165
    10   7 N    3.022 --     8 C    1.346    11 C    1.061     9 O    0.165
                             6 C    0.149    25 N    0.144
    11   6 C    3.940 --    10 N    1.061    25 N    1.035    12 C    0.893
                            13 C    0.852
    12   6 C    3.976 --    30 H    0.983    31 H    0.983    32 H    0.980
                            11 C    0.893
    13   6 C    3.924 --    15 C    1.002    14 C    0.987    16 N    0.939
                            11 C    0.852
    14   6 C    3.990 --    13 C    0.987    33 H    0.984    34 H    0.983
                            35 H    0.979
    15   6 C    3.988 --    13 C    1.002    36 H    0.983    38 H    0.981
                            37 H    0.971
    16   7 N    3.344 --    17 C    1.235    13 C    0.939    39 H    0.887
                            18 O    0.171
    17   6 C    3.914 --    18 O    1.605    16 N    1.235    19 C    0.989
    18   8 O    1.917 --    17 C    1.605    16 N    0.171
    19   6 C    3.875 --    20 N    1.609    24 O    1.064    17 C    0.989
    20   7 N    3.017 --    19 C    1.609    21 N    1.201
    21   7 N    2.980 --    22 C    1.603    20 N    1.201
    22   6 C    3.870 --    21 N    1.603    24 O    1.084    23 C    1.032
    23   6 C    3.986 --    22 C    1.032    40 H    0.982    42 H    0.964
                            41 H    0.962
    24   8 O    2.331 --    22 C    1.084    19 C    1.064
    25   7 N    3.042 --     5 C    1.576    11 C    1.035    10 N    0.144
    26   1 H    1.005 --     1 C    0.979
    27   1 H    1.009 --     1 C    0.986
    28   1 H    1.005 --     1 C    0.979
    29   1 H    0.834 --     7 O    0.746
    30   1 H    1.000 --    12 C    0.983
    31   1 H    1.004 --    12 C    0.983
    32   1 H    1.005 --    12 C    0.980
    33   1 H    1.004 --    14 C    0.984
    34   1 H    1.003 --    14 C    0.983
    35   1 H    1.001 --    14 C    0.979
    36   1 H    1.002 --    15 C    0.983
    37   1 H    1.010 --    15 C    0.971
    38   1 H    1.013 --    15 C    0.981
    39   1 H    0.969 --    16 N    0.887
    40   1 H    0.998 --    23 C    0.982
    41   1 H    0.996 --    23 C    0.962
    42   1 H    0.996 --    23 C    0.964
 ---------------------------------------------------------------------------

           -------------------------------------------------
          | TOTAL ENERGY              -82.940272692982 Eh   |
          | GRADIENT NORM               0.000641945306 Eh/α |
          | HOMO-LUMO GAP               0.956358712408 eV   |
           -------------------------------------------------

 * finished run on 2023/06/20 at 18:18:07.027
