   * xtb version 6.5.1 (579679a) compiled by 'ehlert@majestix' on 2022-07-11
          program call               : /lustre/hpc/kemi/ree/PhD/git/ReactivityQM/dep/xtb-6.5.1/bin/xtb --gfn 1 /lustre/hpc/kemi/ree/PhD/git/ReactivityQM/calculations/R01/reac02prodN11/conf18/R01_reac02prodN11_conf18_gfn1.xyz --opt --vfukui --chrg 1 --uhf 0 --alpb DMSO

   ID    Z sym.   atoms
    1    6 C      1, 3, 5, 6, 8, 11-15
    2    8 O      2, 4, 7, 9
    3    7 N      10, 16, 17
    4    1 H      18-33

      * Solvation model:               ALPB
        Solvent                        DMSO
        Solvent mass                       7.8130E+01 g/mol
          :  Hamiltonian                  GFN1-xTB          :
 * total energy  :   -57.7939850 Eh     change       -0.2110312E-10 Eh
 * total energy  :   -57.8061303 Eh     change       -0.1214535E-01 Eh
 * total energy  :   -57.8102703 Eh     change       -0.4139986E-02 Eh
 * total energy  :   -57.8108837 Eh     change       -0.6133942E-03 Eh
 * total energy  :   -57.8111912 Eh     change       -0.3074747E-03 Eh
 * total energy  :   -57.8113123 Eh     change       -0.1210607E-03 Eh
 * total energy  :   -57.8114461 Eh     change       -0.1338238E-03 Eh
 * total energy  :   -57.8115511 Eh     change       -0.1050308E-03 Eh
 * total energy  :   -57.8116294 Eh     change       -0.7828284E-04 Eh
 * total energy  :   -57.8116955 Eh     change       -0.6612716E-04 Eh
 * total energy  :   -57.8672913 Eh     change       -0.2017079E-04 Eh
 * total energy  :   -57.8673079 Eh     change       -0.1653639E-04 Eh
 * total energy  :   -57.8673197 Eh     change       -0.1179660E-04 Eh
 * total energy  :   -57.8673190 Eh     change        0.6211651E-06 Eh
 * total energy  :   -57.8673285 Eh     change       -0.9450864E-05 Eh
 * total energy  :   -57.8673415 Eh     change       -0.1304584E-04 Eh
 * total energy  :   -57.8673480 Eh     change       -0.6500704E-05 Eh
 * total energy  :   -57.8673556 Eh     change       -0.7603939E-05 Eh
 * total energy  :   -57.8673603 Eh     change       -0.4637075E-05 Eh
   *** GEOMETRY OPTIMIZATION CONVERGED AFTER 85 ITERATIONS ***

 final structure:
================
33
 xtb: 6.5.1 (579679a)
C            4.94805699264285        1.78653157180674       -0.24748875612308
O            3.91380394644703        0.79568195891080       -0.20591051137156
C            2.66473167452428        1.24439645948022       -0.17985717905192
O            2.37311741754415        2.41762362843568       -0.18865597850575
C            1.64576938771889        0.15100494575940       -0.14052081521360
C            1.88141561906942       -1.19414255476921       -0.10928138834427
O            3.08824301294910       -1.75699992620052       -0.11692539468533
C            0.76058612584555       -2.12736836733202       -0.05299433466006
O            0.94009660805178       -3.33552657304932       -0.00197820237455
N           -0.50814516120850       -1.55789555010686       -0.06467906199868
C           -1.60953707886696       -2.51650588562147        0.01082326283588
C           -0.65816423575789       -0.19097976218831       -0.08694333927505
C           -2.00567755373402        0.51916406927732       -0.14565084148739
C           -1.80860603987402        2.00519163708713        0.16650660600605
C           -2.68463022314408        0.35763877241401       -1.50658073197543
N           -2.94499228590733        0.00014182129645        0.92185476871269
N            0.35496564530232        0.60574890258123       -0.12676166664182
H            4.86762042861451        2.44671693091708        0.61930695209486
H            4.86153279933960        2.37720488555141       -1.16254515236231
H            5.89429999714623        1.24956526073671       -0.23013235821469
H            2.98625176583986       -2.72739305007078       -0.07808041059547
H           -2.47209770883234       -0.09289499464558        1.81536090564981
H           -2.40212216261799       -2.23958756613821       -0.67479637825419
H           -1.98411132532357       -2.56256356167326        1.03116325553230
H           -1.21775810418029       -3.49430670938414       -0.26969539003497
H           -2.77129737596060        2.51267971710260        0.16417420309265
H           -1.16917836906020        2.45281732452536       -0.59313201633252
H           -1.33509204116021        2.12849186318518        1.13892495727114
H           -3.59564808310890        0.95284828882751       -1.53431819027474
H           -2.00619487389123        0.71269023604457       -2.28199697862950
H           -2.94012638745132       -0.67832888063611       -1.71337898565810
H           -3.71407650883453        0.65240913354895        1.04114806652081
H           -3.35303790212768       -0.89405302567141        0.67372808435195

          :  Hamiltonian                  GFN1-xTB          :
         :: total energy             -57.867360270568 Eh    ::
         :: gradient norm              0.000997061908 Eh/a0 ::
         :: HOMO-LUMO gap              2.958543156284 eV    ::
         :: SCC energy               -58.446602253932 Eh    ::
         :: -> Gsolv                  -0.134287779537 Eh    ::
         :: repulsion energy           0.598498347553 Eh    ::

    * Orbital Energies and Occupations

         #    Occupation            Energy/Eh            Energy/eV
      -------------------------------------------------------------
         1        2.0000           -0.8975171             -24.4227
       ...           ...                  ...                  ...
        35        2.0000           -0.5522766             -15.0282
        36        2.0000           -0.5480485             -14.9132
        37        2.0000           -0.5454057             -14.8412
        38        2.0000           -0.5444845             -14.8162
        39        2.0000           -0.5333893             -14.5143
        40        2.0000           -0.5280978             -14.3703
        41        2.0000           -0.5197596             -14.1434
        42        2.0000           -0.5030626             -13.6890
        43        2.0000           -0.4968497             -13.5200
        44        2.0000           -0.4927800             -13.4092
        45        2.0000           -0.4776634             -12.9979
        46        2.0000           -0.4642672             -12.6334
        47        2.0000           -0.4466604             -12.1542 (HOMO)
        48                         -0.3379359              -9.1957 (LUMO)
        49                         -0.3070701              -8.3558
        50                         -0.2530783              -6.8866
        51                         -0.2083567              -5.6697
        52                         -0.1751005              -4.7647
        53                         -0.1718445              -4.6761
        54                         -0.1593002              -4.3348
        55                         -0.1459754              -3.9722
        56                         -0.1417332              -3.8568
        57                         -0.1363122              -3.7092
        58                         -0.1187502              -3.2314
       ...                                ...                  ...
       100                          0.7257003              19.7473
      -------------------------------------------------------------
                  HL-Gap            0.1087245 Eh            2.9585 eV

Wiberg/Mayer (AO) data.
largest (>0.10) Wiberg bond orders for each atom

     #   Z sym  total        # sym  WBO       # sym  WBO       # sym  WBO
 ---------------------------------------------------------------------------
     1   6 C    3.867 --    20 H    0.986    18 H    0.979    19 H    0.979
                             2 O    0.892
     2   8 O    2.210 --     3 C    1.125     1 C    0.892     4 O    0.137
     3   6 C    3.855 --     4 O    1.660     2 O    1.125     5 C    0.992
     4   8 O    1.923 --     3 C    1.660     2 O    0.137
     5   6 C    3.959 --     6 C    1.494    17 N    1.181     3 C    0.992
     6   6 C    3.922 --     5 C    1.494     7 O    1.124     8 C    1.065
     7   8 O    2.100 --     6 C    1.124    21 H    0.799
     8   6 C    3.910 --     9 O    1.577    10 N    1.118     6 C    1.065
     9   8 O    1.923 --     8 C    1.577    10 N    0.136
    10   7 N    3.499 --    12 C    1.161     8 C    1.118    11 C    0.928
                             9 O    0.136
    11   6 C    3.916 --    23 H    0.973    24 H    0.973    25 H    0.966
                            10 N    0.928
    12   6 C    3.941 --    17 N    1.590    10 N    1.161    13 C    0.979
    13   6 C    3.884 --    14 C    1.000    15 C    0.991    12 C    0.979
                            16 N    0.873
    14   6 C    3.981 --    13 C    1.000    28 H    0.981    26 H    0.981
                            27 H    0.975
    15   6 C    3.981 --    13 C    0.991    29 H    0.979    30 H    0.976
                            31 H    0.974
    16   7 N    3.564 --    33 H    0.887    22 H    0.887    32 H    0.883
                            13 C    0.873
    17   7 N    3.041 --    12 C    1.590     5 C    1.181
    18   1 H    1.006 --     1 C    0.979
    19   1 H    1.006 --     1 C    0.979
    20   1 H    1.010 --     1 C    0.986
    21   1 H    0.840 --     7 O    0.799
    22   1 H    0.905 --    16 N    0.887
    23   1 H    1.001 --    11 C    0.973
    24   1 H    0.995 --    11 C    0.973
    25   1 H    1.000 --    11 C    0.966
    26   1 H    0.995 --    14 C    0.981
    27   1 H    1.008 --    14 C    0.975
    28   1 H    1.001 --    14 C    0.981
    29   1 H    0.993 --    15 C    0.979
    30   1 H    0.995 --    15 C    0.976
    31   1 H    0.998 --    15 C    0.974
    32   1 H    0.903 --    16 N    0.883
    33   1 H    0.919 --    16 N    0.887
 ---------------------------------------------------------------------------

           -------------------------------------------------
          | TOTAL ENERGY              -57.867360270568 Eh   |
          | GRADIENT NORM               0.000997061908 Eh/α |
          | HOMO-LUMO GAP               2.958543156284 eV   |
           -------------------------------------------------

 * finished run on 2023/06/20 at 15:11:44.136
