   * xtb version 6.5.1 (579679a) compiled by 'ehlert@majestix' on 2022-07-11
          program call               : /lustre/hpc/kemi/ree/PhD/git/ReactivityQM/dep/xtb-6.5.1/bin/xtb --gfn 1 /lustre/hpc/kemi/ree/PhD/git/ReactivityQM/calculations/R02oxygendeprot/reac01prodN19/conf18/R02oxygendeprot_reac01prodN19_conf18_gfn1.xyz --opt --vfukui --chrg 0 --uhf 0 --alpb DMSO

   ID    Z sym.   atoms
    1    6 C      1, 3, 5, 7-10, 12, 14, 17, 18, 21, 23, 24
    2    8 O      2, 4, 13, 19, 22, 25
    3    7 N      6, 11, 15, 16, 20
    4    1 H      26-42

      * Solvation model:               ALPB
        Solvent                        DMSO
        Solvent mass                       7.8130E+01 g/mol
          :  Hamiltonian                  GFN1-xTB          :
 * total energy  :   -82.9795348 Eh     change       -0.5783818E-10 Eh
 * total energy  :   -82.9923818 Eh     change       -0.1284700E-01 Eh
 * total energy  :   -82.9978805 Eh     change       -0.5498736E-02 Eh
 * total energy  :   -82.9988955 Eh     change       -0.1015006E-02 Eh
 * total energy  :   -82.9997355 Eh     change       -0.8399994E-03 Eh
 * total energy  :   -83.0002173 Eh     change       -0.4817882E-03 Eh
 * total energy  :   -83.0006705 Eh     change       -0.4531454E-03 Eh
 * total energy  :   -83.0010281 Eh     change       -0.3576264E-03 Eh
 * total energy  :   -83.0012375 Eh     change       -0.2094469E-03 Eh
 * total energy  :   -83.0013601 Eh     change       -0.1225556E-03 Eh
 * total energy  :   -83.0032527 Eh     change       -0.3154382E-04 Eh
 * total energy  :   -83.0032899 Eh     change       -0.3727621E-04 Eh
 * total energy  :   -83.0033370 Eh     change       -0.4710577E-04 Eh
 * total energy  :   -83.0033620 Eh     change       -0.2497593E-04 Eh
 * total energy  :   -83.0033814 Eh     change       -0.1939165E-04 Eh
 * total energy  :   -83.0033936 Eh     change       -0.1222534E-04 Eh
 * total energy  :   -83.0034026 Eh     change       -0.8961579E-05 Eh
 * total energy  :   -83.0034078 Eh     change       -0.5187978E-05 Eh
 * total energy  :   -83.0034117 Eh     change       -0.3938680E-05 Eh
   *** GEOMETRY OPTIMIZATION CONVERGED AFTER 38 ITERATIONS ***

 final structure:
================
42
 xtb: 6.5.1 (579679a)
C           -5.65763622838555       -2.90422530608631       -1.52340811934800
O           -4.84570659765466       -1.97089745385179       -0.81288997011784
C           -3.63968233451421       -1.71744633106529       -1.33517787588220
O           -3.25175638931225       -2.24695706347769       -2.35922408017511
C           -2.83560230013581       -0.74751083796375       -0.55991048086020
N           -1.61777308293615       -0.51279428592619       -1.10763414451193
C           -0.77757755169196        0.29973836332025       -0.55780872593992
C            0.56015360721235        0.60890645721281       -1.19918575451450
C            0.61928640365883        2.08438065616344       -1.61905769842257
C            0.75330957097308       -0.29987204597676       -2.41338372248702
N            1.66491780581810        0.31580193938914       -0.26508407333813
C            1.97258687903599        1.00440119138659        0.84570459294521
O            1.29145408457750        1.89545273082856        1.35086290465771
C            3.24169441331929        0.56706548779872        1.46517472631323
N            3.79079578727946        1.01268367353512        2.55274493631916
N            4.94709421716804        0.31620480883501        2.72347129333858
C            5.03591348369855       -0.51319808860905        1.72948796577442
C            6.10866390965507       -1.49335610331479        1.45648997575325
O            3.98735062842298       -0.40570419248993        0.89707884686960
N           -1.10511943917749        0.95477241901640        0.60451313645990
C           -2.26199391522617        0.77802398066415        1.22068609286123
O           -2.52126661302478        1.39343104815499        2.35698650231958
C           -1.56129715308139        2.25520336805417        2.97026763700428
C           -3.28443726293697       -0.12314540382551        0.64767789638123
O           -4.37479701594885       -0.27409592434937        1.20867840002291
H           -6.61016185206173       -2.95669422730878       -0.99946700000604
H           -5.18155198888461       -3.88780411766992       -1.53626094578543
H           -5.81144151991677       -2.56865074091534       -2.55193281268422
H            1.58919998793579        2.29786923147133       -2.06454297917585
H            0.47215902775306        2.73956629629009       -0.76311870809289
H           -0.16143520362117        2.28194009336202       -2.35205161235590
H            0.71948451172645       -1.34521185012029       -2.10964855627250
H           -0.04446068222938       -0.12068804755352       -3.13292529384713
H            1.71156577029272       -0.09283793524105       -2.88471459836223
H            2.33560343323115       -0.36809142727808       -0.58044323047123
H            6.51659406060506       -1.32748712767557        0.46015324512493
H            6.89653168735835       -1.39184903299130        2.19883898358655
H            5.70381154672814       -2.50497891776406        1.48946360058100
H           -0.37596480460012        1.55140111113504        1.00927052452584
H           -0.63870218339907        1.71081915405452        3.18526994441268
H           -2.01736089921729        2.59980913953625        3.89686043232485
H           -1.34244879852576        3.10602331121119        2.32132474507580

          :  Hamiltonian                  GFN1-xTB          :
         :: total energy             -83.003411728751 Eh    ::
         :: gradient norm              0.000708881848 Eh/a0 ::
         :: HOMO-LUMO gap              2.314860434231 eV    ::
         :: SCC energy               -83.778846395813 Eh    ::
         :: -> Gsolv                  -0.065431257586 Eh    ::
         :: repulsion energy           0.801080523914 Eh    ::

    * Orbital Energies and Occupations

         #    Occupation            Energy/Eh            Energy/eV
      -------------------------------------------------------------
         1        2.0000           -0.8697787             -23.6679
       ...           ...                  ...                  ...
        55        2.0000           -0.5060650             -13.7707
        56        2.0000           -0.5042720             -13.7219
        57        2.0000           -0.4897255             -13.3261
        58        2.0000           -0.4857485             -13.2179
        59        2.0000           -0.4844121             -13.1815
        60        2.0000           -0.4750573             -12.9270
        61        2.0000           -0.4711421             -12.8204
        62        2.0000           -0.4667710             -12.7015
        63        2.0000           -0.4632605             -12.6060
        64        2.0000           -0.4569704             -12.4348
        65        2.0000           -0.4534935             -12.3402
        66        2.0000           -0.4204221             -11.4403
        67        2.0000           -0.4095159             -11.1435 (HOMO)
        68                         -0.3244464              -8.8286 (LUMO)
        69                         -0.3197613              -8.7011
        70                         -0.2782549              -7.5717
        71                         -0.2602748              -7.0824
        72                         -0.2371608              -6.4535
        73                         -0.2074961              -5.6463
        74                         -0.1494917              -4.0679
        75                         -0.1458641              -3.9692
        76                         -0.1431569              -3.8955
        77                         -0.1320800              -3.5941
        78                         -0.1299115              -3.5351
       ...                                ...                  ...
       134                          0.7078589              19.2618
      -------------------------------------------------------------
                  HL-Gap            0.0850696 Eh            2.3149 eV

Wiberg/Mayer (AO) data.
largest (>0.10) Wiberg bond orders for each atom

     #   Z sym  total        # sym  WBO       # sym  WBO       # sym  WBO
 ---------------------------------------------------------------------------
     1   6 C    3.882 --    26 H    0.986    27 H    0.980    28 H    0.980
                             2 O    0.907
     2   8 O    2.194 --     3 C    1.096     1 C    0.907     4 O    0.126
     3   6 C    3.852 --     4 O    1.624     2 O    1.096     5 C    1.040
     4   8 O    1.893 --     3 C    1.624     2 O    0.126
     5   6 C    3.944 --     6 N    1.270    24 C    1.217     3 C    1.040
                            25 O    0.130
     6   7 N    3.045 --     7 C    1.554     5 C    1.270
     7   6 C    3.917 --     6 N    1.554    20 N    1.118     8 C    0.976
     8   6 C    3.931 --    10 C    1.002     9 C    0.982     7 C    0.976
                            11 N    0.910
     9   6 C    3.986 --    31 H    0.984    29 H    0.983     8 C    0.982
                            30 H    0.980
    10   6 C    3.990 --     8 C    1.002    34 H    0.985    32 H    0.983
                            33 H    0.982
    11   7 N    3.363 --    12 C    1.291     8 C    0.910    35 H    0.889
                            13 O    0.171
    12   6 C    3.914 --    13 O    1.526    11 N    1.291    14 C    1.005
    13   8 O    1.921 --    12 C    1.526    11 N    0.171
    14   6 C    3.875 --    15 N    1.616    19 O    1.046    12 C    1.005
    15   7 N    3.003 --    14 C    1.616    16 N    1.205
    16   7 N    2.982 --    17 C    1.605    15 N    1.205
    17   6 C    3.866 --    16 N    1.605    19 O    1.073    18 C    1.033
    18   6 C    3.985 --    17 C    1.033    37 H    0.982    36 H    0.963
                            38 H    0.961
    19   8 O    2.318 --    17 C    1.073    14 C    1.046
    20   7 N    3.523 --    21 C    1.350     7 C    1.118    39 H    0.815
    21   6 C    3.861 --    20 N    1.350    22 O    1.147    24 C    1.045
    22   8 O    2.233 --    21 C    1.147    23 C    0.890
    23   6 C    3.864 --    41 H    0.981    42 H    0.976    40 H    0.975
                            22 O    0.890
    24   6 C    3.949 --    25 O    1.533     5 C    1.217    21 C    1.045
    25   8 O    1.848 --    24 C    1.533     5 C    0.130
    26   1 H    1.012 --     1 C    0.986
    27   1 H    1.009 --     1 C    0.980
    28   1 H    1.010 --     1 C    0.980
    29   1 H    0.999 --     9 C    0.983
    30   1 H    1.006 --     9 C    0.980
    31   1 H    1.000 --     9 C    0.984
    32   1 H    1.003 --    10 C    0.983
    33   1 H    1.007 --    10 C    0.982
    34   1 H    0.998 --    10 C    0.985
    35   1 H    0.934 --    11 N    0.889
    36   1 H    0.996 --    18 C    0.963
    37   1 H    0.998 --    18 C    0.982
    38   1 H    0.996 --    18 C    0.961
    39   1 H    0.923 --    20 N    0.815
    40   1 H    1.006 --    23 C    0.975
    41   1 H    1.008 --    23 C    0.981
    42   1 H    1.000 --    23 C    0.976
 ---------------------------------------------------------------------------

           -------------------------------------------------
          | TOTAL ENERGY              -83.003411728751 Eh   |
          | GRADIENT NORM               0.000708881848 Eh/α |
          | HOMO-LUMO GAP               2.314860434231 eV   |
           -------------------------------------------------

 * finished run on 2023/06/21 at 17:40:10.262
