   * xtb version 6.5.1 (579679a) compiled by 'ehlert@majestix' on 2022-07-11
          program call               : /lustre/hpc/kemi/ree/PhD/git/ReactivityQM/dep/xtb-6.5.1/bin/xtb --gfn 1 /lustre/hpc/kemi/ree/PhD/git/ReactivityQM/calculations/RaltegravirCLI/reac02prodE07/conf03/RaltegravirCLI_reac02prodE07_conf03_gfn1.xyz --opt --vfukui --chrg -1 --uhf 0 --alpb DMSO

   ID    Z sym.   atoms
    1    6 C      1-4, 6-9, 11, 13, 15-18, 21, 22, 24
    2    9 F      5
    3    7 N      10, 14, 19, 20
    4    8 O      12, 23, 25
    5    1 H      26-47

      * Solvation model:               ALPB
        Solvent                        DMSO
        Solvent mass                       7.8130E+01 g/mol
          :  Hamiltonian                  GFN1-xTB          :
 * total energy  :   -80.1829405 Eh     change       -0.1005958E-08 Eh
 * total energy  :   -80.1912088 Eh     change       -0.8268290E-02 Eh
 * total energy  :   -80.1934780 Eh     change       -0.2269264E-02 Eh
 * total energy  :   -80.1939049 Eh     change       -0.4268917E-03 Eh
 * total energy  :   -80.1943739 Eh     change       -0.4689764E-03 Eh
 * total energy  :   -80.1946265 Eh     change       -0.2525531E-03 Eh
 * total energy  :   -80.1948580 Eh     change       -0.2315432E-03 Eh
 * total energy  :   -80.1949451 Eh     change       -0.8705803E-04 Eh
 * total energy  :   -80.1949896 Eh     change       -0.4451072E-04 Eh
 * total energy  :   -80.1950173 Eh     change       -0.2771694E-04 Eh
 * total energy  :   -80.1950937 Eh     change       -0.1694336E-04 Eh
 * total energy  :   -80.1951068 Eh     change       -0.1305734E-04 Eh
 * total energy  :   -80.1951258 Eh     change       -0.1898262E-04 Eh
 * total energy  :   -80.1951421 Eh     change       -0.1635997E-04 Eh
 * total energy  :   -80.1951540 Eh     change       -0.1186197E-04 Eh
 * total energy  :   -80.1951637 Eh     change       -0.9760384E-05 Eh
 * total energy  :   -80.1951726 Eh     change       -0.8847278E-05 Eh
 * total energy  :   -80.1951811 Eh     change       -0.8530042E-05 Eh
 * total energy  :   -80.1951857 Eh     change       -0.4620032E-05 Eh
   *** GEOMETRY OPTIMIZATION CONVERGED AFTER 22 ITERATIONS ***

 final structure:
================
47
 xtb: 6.5.1 (579679a)
C            4.68975066729470        0.98990342726420       -1.02376546397864
C            4.70247581055356       -0.47723433016368       -0.50699828347037
C            5.61539892788351       -0.59089581003517        0.69612966025681
C            5.09951511826934       -0.76523754549619        1.93532323995612
F            5.97171936755329       -0.76542967701216        2.99173716795648
C            3.75151278937490       -1.00422315269544        2.23254062729500
C            2.88806517111337       -1.13272777413988        1.12411833066521
C            3.29955246350569       -0.95050029051627       -0.16328207922048
C            2.35165659191773       -1.17631262307300       -1.32395039211475
N            1.02372717730519       -0.61548485645275       -1.07177113786826
C            0.74726487711481        0.69592280041091       -1.15369025074833
O            1.57222187256452        1.54613280285915       -1.53816781854775
C           -0.62607482705616        1.06399518833039       -0.77521028946850
N           -1.48445869534697        0.05704712952262       -0.42161716741345
C           -2.71013766308766        0.31856561858313       -0.09239959416627
C           -3.57852480697308       -0.88825932306940        0.24926483987199
C           -3.60230902709783       -1.09308856049132        1.77104416414548
C           -2.97683608548821       -2.13962685025193       -0.41306438778131
N           -4.94312365864746       -0.69532406192892       -0.23703506973769
N           -3.18400526761724        1.60631026675464       -0.03392906236298
C           -4.54105614902218        1.93564133920371        0.39892134136307
C           -2.40632127859364        2.71109522958176       -0.43764903011805
O           -2.89074759393323        3.84633913538768       -0.43146246408779
C           -1.05876429340766        2.37663137307152       -0.81704576130999
O           -0.24938891639319        3.38609471914909       -1.20650509559934
H            4.10756092608469        1.06727038088590       -1.94182879339499
H            4.24615561796105        1.64474656630339       -0.27315036449448
H            5.70921957858860        1.32125358721078       -1.22574366121947
H            5.10643165831871       -1.09195405216618       -1.33361713723671
H            6.67771498052998       -0.44485167890955        0.54329352510049
H            3.41576726020405       -1.16578285335973        3.24660527515252
H            1.85530586269682       -1.42221204307898        1.31017741982480
H            2.74543386598210       -0.71916081301303       -2.23944241220796
H            2.20574605819410       -2.24645851594086       -1.52089779002860
H            0.30166600640009       -1.22732214460704       -0.72294957061568
H           -2.58493027717413       -1.20674538502453        2.14412325321309
H           -4.06990396665045       -0.25067436845482        2.27790328825802
H           -4.16548711179989       -1.99441436930210        2.00886363029768
H           -2.89079394722981       -1.99077213334707       -1.48856797500018
H           -1.98724095961260       -2.34686972041082       -0.00813291326604
H           -3.62411200322105       -2.99450420992916       -0.22559521114038
H           -4.96098137574645       -0.81174249046441       -1.24217211947773
H           -5.53578974960301       -1.41151618622721        0.15709727804621
H           -5.23978967580932        1.81434470318577       -0.42876407640909
H           -4.55368268019385        2.97429569886371        0.73297220609201
H           -4.84557283931371        1.29180836051165        1.21738309240660
H            0.62617119960653        2.97192849248179       -1.44967196741788

          :  Hamiltonian                  GFN1-xTB          :
         :: total energy             -80.195185743169 Eh    ::
         :: gradient norm              0.000360046876 Eh/a0 ::
         :: HOMO-LUMO gap              0.123205203759 eV    ::
         :: SCC energy               -81.048819362820 Eh    ::
         :: -> Gsolv                  -0.102690595561 Eh    ::
         :: repulsion energy           0.884417584097 Eh    ::

    * Orbital Energies and Occupations

         #    Occupation            Energy/Eh            Energy/eV
      -------------------------------------------------------------
         1        2.0000           -0.8057108             -21.9245
       ...           ...                  ...                  ...
        56        2.0000           -0.4537895             -12.3482
        57        2.0000           -0.4466288             -12.1534
        58        2.0000           -0.4439205             -12.0797
        59        2.0000           -0.4386847             -11.9372
        60        2.0000           -0.4309631             -11.7271
        61        2.0000           -0.4227189             -11.5028
        62        2.0000           -0.4173100             -11.3556
        63        2.0000           -0.4104918             -11.1701
        64        2.0000           -0.4081428             -11.1061
        65        2.0000           -0.4053347             -11.0297
        66        2.0000           -0.3941917             -10.7265
        67        2.0000           -0.3804503             -10.3526
        68        1.8310           -0.2960464              -8.0558 (HOMO)
        69        0.1690           -0.2915187              -7.9326 (LUMO)
        70                         -0.2541334              -6.9153
        71                         -0.2043762              -5.5614
        72                         -0.1980956              -5.3905
        73                         -0.1270486              -3.4572
        74                         -0.1225529              -3.3348
        75                         -0.1216728              -3.3109
        76                         -0.1170783              -3.1859
        77                         -0.1120420              -3.0488
        78                         -0.0981557              -2.6710
        79                         -0.0952291              -2.5913
       ...                                ...                  ...
       144                          0.7089539              19.2916
      -------------------------------------------------------------
                  HL-Gap            0.0045277 Eh            0.1232 eV

Wiberg/Mayer (AO) data.
largest (>0.10) Wiberg bond orders for each atom

     #   Z sym  total        # sym  WBO       # sym  WBO       # sym  WBO
 ---------------------------------------------------------------------------
     1   6 C    3.974 --    27 H    0.989    28 H    0.987    26 H    0.982
                             2 C    0.968
     2   6 C    3.992 --     3 C    1.006     8 C    1.000     1 C    0.968
                            29 H    0.965
     3   6 C    3.827 --     4 C    1.597     2 C    1.006    30 H    0.974
     4   6 C    3.834 --     3 C    1.597     6 C    1.286     5 F    0.868
     5   9 F    0.980 --     4 C    0.868
     6   6 C    3.780 --     7 C    1.300     4 C    1.286    31 H    0.977
     7   6 C    3.994 --     8 C    1.614     6 C    1.300    32 H    0.971
     8   6 C    3.842 --     7 C    1.614     2 C    1.000     9 C    0.991
     9   6 C    3.935 --     8 C    0.991    33 H    0.974    34 H    0.973
                            10 N    0.927
    10   7 N    3.347 --    11 C    1.276     9 C    0.927    35 H    0.905
                            12 O    0.152
    11   6 C    3.882 --    12 O    1.467    10 N    1.276    13 C    1.050
    12   8 O    1.870 --    11 C    1.467    10 N    0.152
    13   6 C    3.890 --    24 C    1.410    14 N    1.180    11 C    1.050
    14   7 N    3.041 --    15 C    1.563    13 C    1.180
    15   6 C    3.908 --    14 N    1.563    20 N    1.168    16 C    0.975
    16   6 C    3.966 --    18 C    0.989    17 C    0.985    19 N    0.982
                            15 C    0.975
    17   6 C    3.993 --    36 H    0.985    16 C    0.985    38 H    0.984
                            37 H    0.979
    18   6 C    3.995 --    16 C    0.989    41 H    0.986    39 H    0.985
                            40 H    0.982
    19   7 N    2.977 --    16 C    0.982    42 H    0.943    43 H    0.942
    20   7 N    3.431 --    15 C    1.168    22 C    1.068    21 C    0.940
                            23 O    0.118
    21   6 C    3.936 --    46 H    0.979    44 H    0.978    45 H    0.976
                            20 N    0.940
    22   6 C    3.866 --    23 O    1.522    24 C    1.137    20 N    1.068
    23   8 O    1.819 --    22 C    1.522    20 N    0.118
    24   6 C    3.844 --    13 C    1.410    22 C    1.137    25 O    1.082
    25   8 O    2.023 --    24 C    1.082    47 H    0.767
    26   1 H    1.021 --     1 C    0.982
    27   1 H    1.021 --     1 C    0.989
    28   1 H    1.012 --     1 C    0.987
    29   1 H    1.009 --     2 C    0.965
    30   1 H    1.003 --     3 C    0.974
    31   1 H    1.004 --     6 C    0.977
    32   1 H    1.007 --     7 C    0.971
    33   1 H    1.012 --     9 C    0.974
    34   1 H    1.009 --     9 C    0.973
    35   1 H    0.972 --    10 N    0.905
    36   1 H    1.005 --    17 C    0.985
    37   1 H    1.006 --    17 C    0.979
    38   1 H    1.001 --    17 C    0.984
    39   1 H    1.008 --    18 C    0.985
    40   1 H    1.016 --    18 C    0.982
    41   1 H    1.004 --    18 C    0.986
    42   1 H    0.959 --    19 N    0.943
    43   1 H    0.957 --    19 N    0.942
    44   1 H    1.019 --    21 C    0.978
    45   1 H    1.014 --    21 C    0.976
    46   1 H    1.023 --    21 C    0.979
    47   1 H    0.872 --    25 O    0.767
 ---------------------------------------------------------------------------

           -------------------------------------------------
          | TOTAL ENERGY              -80.195185743169 Eh   |
          | GRADIENT NORM               0.000360046876 Eh/α |
          | HOMO-LUMO GAP               0.123205203759 eV   |
           -------------------------------------------------

 * finished run on 2023/06/20 at 15:05:47.771
