                         Program Version 5.0.1 -  RELEASE  -
|  1> # ORCA input file
|  2> ! SP r2SCAN-3c CPCM
|  3>
|  4> %maxcore 1875.0
|  5> %pal nprocs 4 end
|  6> %cpcm smd true SMDsolvent "DMSO" end
|  7>
|  8> *xyz 1 1
|  9> C      -2.776792    3.266570    0.738575
| 10> O      -1.782941    2.258712    0.473128
| 11> C      -2.141777    1.047814    0.256956
| 12> O      -3.403826    0.775409    0.289153
| 13> C      -1.109447    0.071629   -0.006435
| 14> N       0.166877    0.575892    0.009047
| 15> C       1.150130   -0.230682   -0.223348
| 16> C       2.582021    0.251905   -0.189269
| 17> C       2.680624    1.631986   -0.853083
| 18> C       3.015534    0.324166    1.282053
| 19> N       3.398807   -0.740508   -0.875777
| 20> N       0.957515   -1.553436   -0.462120
| 21> C      -0.255770   -2.188754   -0.509222
| 22> O      -0.343766   -3.380643   -0.735531
| 23> C      -1.380118   -1.266600   -0.255948
| 24> O      -2.645712   -1.672372   -0.259458
| 25> C      -3.031377   -3.037310   -0.520123
| 26> H      -3.477736    3.313162   -0.095413
| 27> H      -3.308910    3.014924    1.656697
| 28> H      -2.231829    4.201670    0.845826
| 29> H       3.709214    1.985264   -0.813663
| 30> H       2.366636    1.569357   -1.893791
| 31> H       2.035837    2.339163   -0.332451
| 32> H       4.031360    0.711155    1.345072
| 33> H       2.985758   -0.669088    1.727703
| 34> H       2.348122    0.983773    1.835114
| 35> H       4.365395   -0.641013   -0.598498
| 36> H       3.346712   -0.593665   -1.874498
| 37> H       1.797464   -2.101608   -0.645089
| 38> H      -3.620312   -0.167033    0.112724
| 39> H      -2.613060   -3.697748    0.240036
| 40> H      -2.696073   -3.340867   -1.512051
| 41> H      -4.118560   -3.041221   -0.470010
| 42> **                         ****END OF INPUT****

CARTESIAN COORDINATES (ANGSTROEM)
---------------------------------
  C     -2.776792    3.266570    0.738575
  O     -1.782941    2.258712    0.473128
  C     -2.141777    1.047814    0.256956
  O     -3.403826    0.775409    0.289153
  C     -1.109447    0.071629   -0.006435
  N      0.166877    0.575892    0.009047
  C      1.150130   -0.230682   -0.223348
  C      2.582021    0.251905   -0.189269
  C      2.680624    1.631986   -0.853083
  C      3.015534    0.324166    1.282053
  N      3.398807   -0.740508   -0.875777
  N      0.957515   -1.553436   -0.462120
  C     -0.255770   -2.188754   -0.509222
  O     -0.343766   -3.380643   -0.735531
  C     -1.380118   -1.266600   -0.255948
  O     -2.645712   -1.672372   -0.259458
  C     -3.031377   -3.037310   -0.520123
  H     -3.477736    3.313162   -0.095413
  H     -3.308910    3.014924    1.656697
  H     -2.231829    4.201670    0.845826
  H      3.709214    1.985264   -0.813663
  H      2.366636    1.569357   -1.893791
  H      2.035837    2.339163   -0.332451
  H      4.031360    0.711155    1.345072
  H      2.985758   -0.669088    1.727703
  H      2.348122    0.983773    1.835114
  H      4.365395   -0.641013   -0.598498
  H      3.346712   -0.593665   -1.874498
  H      1.797464   -2.101608   -0.645089
  H     -3.620312   -0.167033    0.112724
  H     -2.613060   -3.697748    0.240036
  H     -2.696073   -3.340867   -1.512051
  H     -4.118560   -3.041221   -0.470010

 Total Charge           Charge          ....    1
 Multiplicity           Mult            ....    1
 Number of Electrons    NEL             ....  128
 Basis Dimension        Dim             ....  438

ORBITAL ENERGIES
----------------

  NO   OCC          E(Eh)            E(eV)
   0   2.0000     -19.069210      -518.8996
   1   2.0000     -19.068092      -518.8692
   2   2.0000     -19.050771      -518.3978
   3   2.0000     -18.949439      -515.6404
   4   2.0000     -14.235112      -387.3571
   5   2.0000     -14.180359      -385.8672
   6   2.0000     -14.147544      -384.9742
   7   2.0000     -10.244211      -278.7592
   8   2.0000     -10.173118      -276.8246
   9   2.0000     -10.163043      -276.5505
  10   2.0000     -10.135085      -275.7897
  11   2.0000     -10.126774      -275.5635
  12   2.0000     -10.105782      -274.9923
  13   2.0000     -10.094595      -274.6879
  14   2.0000     -10.089795      -274.5573
  15   2.0000     -10.024887      -272.7910
  16   2.0000     -10.018615      -272.6204
  17   2.0000      -1.167014       -31.7561
  18   2.0000      -1.100196       -29.9378
  19   2.0000      -1.085396       -29.5351
  20   2.0000      -1.042398       -28.3651
  21   2.0000      -0.984542       -26.7907
  22   2.0000      -0.901185       -24.5225
  23   2.0000      -0.874473       -23.7956
  24   2.0000      -0.808701       -22.0059
  25   2.0000      -0.764031       -20.7903
  26   2.0000      -0.735070       -20.0023
  27   2.0000      -0.698943       -19.0192
  28   2.0000      -0.687478       -18.7072
  29   2.0000      -0.665732       -18.1155
  30   2.0000      -0.661036       -17.9877
  31   2.0000      -0.640191       -17.4205
  32   2.0000      -0.573425       -15.6037
  33   2.0000      -0.565782       -15.3957
  34   2.0000      -0.555149       -15.1064
  35   2.0000      -0.542539       -14.7632
  36   2.0000      -0.535643       -14.5756
  37   2.0000      -0.514775       -14.0077
  38   2.0000      -0.495761       -13.4904
  39   2.0000      -0.479018       -13.0347
  40   2.0000      -0.465520       -12.6675
  41   2.0000      -0.447662       -12.1815
  42   2.0000      -0.443865       -12.0782
  43   2.0000      -0.439331       -11.9548
  44   2.0000      -0.430411       -11.7121
  45   2.0000      -0.423306       -11.5187
  46   2.0000      -0.422780       -11.5044
  47   2.0000      -0.417046       -11.3484
  48   2.0000      -0.398817       -10.8524
  49   2.0000      -0.385863       -10.4999
  50   2.0000      -0.369059       -10.0426
  51   2.0000      -0.363619        -9.8946
  52   2.0000      -0.361343        -9.8326
  53   2.0000      -0.355882        -9.6841
  54   2.0000      -0.348993        -9.4966
  55   2.0000      -0.347272        -9.4497
  56   2.0000      -0.342175        -9.3110
  57   2.0000      -0.337075        -9.1723
  58   2.0000      -0.317618        -8.6428
  59   2.0000      -0.300843        -8.1863
  60   2.0000      -0.276694        -7.5292
  61   2.0000      -0.257001        -6.9934
  62   2.0000      -0.232501        -6.3267
  63   2.0000      -0.227453        -6.1893
  64   0.0000      -0.143592        -3.9073
  65   0.0000      -0.057121        -1.5543
  66   0.0000      -0.029309        -0.7975
  67   0.0000       0.017704         0.4817
  68   0.0000       0.036083         0.9819

MULLIKEN ATOMIC CHARGES
-----------------------
   0 C :   -0.286563
   1 O :   -0.159956
   2 C :    0.240260
   3 O :   -0.315642
   4 C :    0.131782
   5 N :   -0.205477
   6 C :    0.285107
   7 C :    0.164848
   8 C :   -0.545147
   9 C :   -0.574398
  10 N :   -0.688246
  11 N :   -0.011978
  12 C :    0.137239
  13 O :   -0.406159
  14 C :    0.158208
  15 O :   -0.204963
  16 C :   -0.296343
  17 H :    0.201233
  18 H :    0.203059
  19 H :    0.202309
  20 H :    0.182083
  21 H :    0.174720
  22 H :    0.176183
  23 H :    0.185521
  24 H :    0.181851
  25 H :    0.188955
  26 H :    0.302723
  27 H :    0.294949
  28 H :    0.329923
  29 H :    0.385654
  30 H :    0.191737
  31 H :    0.191811
  32 H :    0.184717
Sum of atomic charges:    1.0000000

LOEWDIN ATOMIC CHARGES
----------------------
   0 C :    0.004185
   1 O :   -0.479262
   2 C :    0.500976
   3 O :   -0.292011
   4 C :    0.207725
   5 N :   -0.543855
   6 C :    0.370929
   7 C :    0.060089
   8 C :   -0.364930
   9 C :   -0.347137
  10 N :   -0.675952
  11 N :   -0.440655
  12 C :    0.381086
  13 O :   -0.439858
  14 C :    0.327739
  15 O :   -0.652359
  16 C :   -0.001432
  17 H :    0.199415
  18 H :    0.199470
  19 H :    0.202145
  20 H :    0.168112
  21 H :    0.169852
  22 H :    0.172329
  23 H :    0.171744
  24 H :    0.172947
  25 H :    0.173782
  26 H :    0.261313
  27 H :    0.257170
  28 H :    0.320167
  29 H :    0.335965
  30 H :    0.194551
  31 H :    0.194914
  32 H :    0.190845

  Mayer bond orders larger than 0.100000
B(  0-C ,  1-O ) :   0.7940 B(  0-C , 17-H ) :   0.9402 B(  0-C , 18-H ) :   0.9390
B(  0-C , 19-H ) :   0.9504 B(  1-O ,  2-C ) :   1.3751 B(  2-C ,  3-O ) :   1.2676
B(  2-C ,  4-C ) :   1.0644 B(  2-C ,  5-N ) :   0.1133 B(  3-O , 29-H ) :   0.7688
B(  4-C ,  5-N ) :   0.9420 B(  4-C , 14-C ) :   1.4744 B(  5-N ,  6-C ) :   1.5460
B(  6-C ,  7-C ) :   0.8607 B(  6-C , 11-N ) :   1.1520 B(  6-C , 14-C ) :   0.1042
B(  7-C ,  8-C ) :   0.9641 B(  7-C ,  9-C ) :   0.9115 B(  7-C , 10-N ) :   0.9256
B(  8-C , 20-H ) :   0.9684 B(  8-C , 21-H ) :   0.9638 B(  8-C , 22-H ) :   0.9664
B(  9-C , 23-H ) :   0.9580 B(  9-C , 24-H ) :   0.9601 B(  9-C , 25-H ) :   0.9698
B( 10-N , 26-H ) :   0.9055 B( 10-N , 27-H ) :   0.9072 B( 11-N , 12-C ) :   1.0802
B( 11-N , 28-H ) :   0.8443 B( 12-C , 13-O ) :   1.9649 B( 12-C , 14-C ) :   0.9723
B( 14-C , 15-O ) :   1.1361 B( 15-O , 16-C ) :   0.8303 B( 16-C , 30-H ) :   0.9407
B( 16-C , 31-H ) :   0.9408 B( 16-C , 32-H ) :   0.9520

Dispersion correction           -0.012795815
FINAL SINGLE POINT ENERGY      -855.543059455147

DIPOLE MOMENT
-------------
                                X             Y             Z
Electronic contribution:    -11.13922      -5.46249      -1.04944
Nuclear contribution   :      9.35946       6.95203       1.17611
                        -----------------------------------------
Total Dipole Moment    :     -1.77975       1.48954       0.12668
                        -----------------------------------------
Magnitude (a.u.)       :      2.32429
Magnitude (Debye)      :      5.90787

Rotational constants in cm-1:     0.018823     0.012842     0.008058
Rotational constants in MHz :   564.308941   384.988329   241.583161

                             ****ORCA TERMINATED NORMALLY****
TOTAL RUN TIME: 0 days 0 hours 1 minutes 14 seconds 69 msec
