   * xtb version 6.5.1 (579679a) compiled by 'ehlert@majestix' on 2022-07-11
          program call               : /lustre/hpc/kemi/ree/PhD/git/ReactivityQM/dep/xtb-6.5.1/bin/xtb --gfn 1 /lustre/hpc/kemi/ree/PhD/git/ReactivityQM/calculations/R01/reac02prodN03/conf05/R01_reac02prodN03_conf05_gfn1.xyz --opt --vfukui --chrg 1 --uhf 0 --alpb DMSO

   ID    Z sym.   atoms
    1    6 C      1, 3, 5, 7-10, 13, 15, 17
    2    8 O      2, 4, 14, 16
    3    7 N      6, 11, 12
    4    1 H      18-33

      * Solvation model:               ALPB
        Solvent                        DMSO
        Solvent mass                       7.8130E+01 g/mol
          :  Hamiltonian                  GFN1-xTB          :
 * total energy  :   -57.8080005 Eh     change       -0.2771117E-11 Eh
 * total energy  :   -57.8218501 Eh     change       -0.1384952E-01 Eh
 * total energy  :   -57.8280115 Eh     change       -0.6161446E-02 Eh
 * total energy  :   -57.8302043 Eh     change       -0.2192789E-02 Eh
 * total energy  :   -57.8330541 Eh     change       -0.2849854E-02 Eh
 * total energy  :   -57.8345390 Eh     change       -0.1484862E-02 Eh
 * total energy  :   -57.8368470 Eh     change       -0.2308015E-02 Eh
 * total energy  :   -57.8405216 Eh     change       -0.3674539E-02 Eh
 * total energy  :   -57.8439443 Eh     change       -0.3422742E-02 Eh
 * total energy  :   -57.8456192 Eh     change       -0.1674883E-02 Eh
 * total energy  :   -57.8536550 Eh     change       -0.1097153E-03 Eh
 * total energy  :   -57.8537829 Eh     change       -0.1279209E-03 Eh
 * total energy  :   -57.8538338 Eh     change       -0.5093778E-04 Eh
 * total energy  :   -57.8538806 Eh     change       -0.4676325E-04 Eh
 * total energy  :   -57.8539108 Eh     change       -0.3025346E-04 Eh
 * total energy  :   -57.8539289 Eh     change       -0.1809317E-04 Eh
 * total energy  :   -57.8539435 Eh     change       -0.1460418E-04 Eh
 * total energy  :   -57.8539496 Eh     change       -0.6089445E-05 Eh
 * total energy  :   -57.8539545 Eh     change       -0.4870194E-05 Eh
   *** GEOMETRY OPTIMIZATION CONVERGED AFTER 30 ITERATIONS ***

 final structure:
================
33
 xtb: 6.5.1 (579679a)
C           -2.77679154683625        3.26656983352115        0.73857532818751
O           -1.78294148843694        2.25871169847629        0.47312759381023
C           -2.14177697052983        1.04781446475579        0.25695642226234
O           -3.40382565179515        0.77540910689913        0.28915252584311
C           -1.10944740603114        0.07162886789416       -0.00643538102396
N            0.16687660510272        0.57589170963267        0.00904679463515
C            1.15012980486220       -0.23068231021455       -0.22334823028196
C            2.58202092646152        0.25190499561112       -0.18926900423057
C            2.68062419207942        1.63198610163831       -0.85308326062466
C            3.01553369164141        0.32416590945921        1.28205254966722
N            3.39880655680000       -0.74050808340053       -0.87577739278037
N            0.95751456277116       -1.55343618125595       -0.46212023543243
C           -0.25576963631566       -2.18875366813904       -0.50922216197998
O           -0.34376595599938       -3.38064278459730       -0.73553121037400
C           -1.38011791593732       -1.26659960057443       -0.25594795220013
O           -2.64571192581139       -1.67237197504412       -0.25945785980800
C           -3.03137673065838       -3.03730993910017       -0.52012342280400
H           -3.47773647181399        3.31316157030002       -0.09541276532551
H           -3.30891021452573        3.01492380783492        1.65669710031832
H           -2.23182938222438        4.20166979924375        0.84582561763672
H            3.70921382666145        1.98526394223337       -0.81366299634390
H            2.36663584355101        1.56935650661125       -1.89379117667239
H            2.03583690455933        2.33916250969876       -0.33245074539681
H            4.03136000699666        0.71115504908441        1.34507241784244
H            2.98575796679955       -0.66908799875715        1.72770326637359
H            2.34812192898542        0.98377342450914        1.83511431508681
H            4.36539544077527       -0.64101308704148       -0.59849834127521
H            3.34671184650575       -0.59366537591606       -1.87449800664900
H            1.79746447408247       -2.10160801562897       -0.64508923901735
H           -3.62031243695520       -0.16703250330227        0.11272371995142
H           -2.61305968527562       -3.69774796184975        0.24003567149125
H           -2.69607317732007       -3.34086735993772       -1.51205088127909
H           -4.11855998216839       -3.04122145264437       -0.47001005960708

          :  Hamiltonian                  GFN1-xTB          :
         :: total energy             -57.853954484640 Eh    ::
         :: gradient norm              0.000722299150 Eh/a0 ::
         :: HOMO-LUMO gap              1.275566312920 eV    ::
         :: SCC energy               -58.426816361273 Eh    ::
         :: -> Gsolv                  -0.090958303234 Eh    ::
         :: repulsion energy           0.591011406291 Eh    ::

    * Orbital Energies and Occupations

         #    Occupation            Energy/Eh            Energy/eV
      -------------------------------------------------------------
         1        2.0000           -0.9107321             -24.7823
       ...           ...                  ...                  ...
        35        2.0000           -0.5481863             -14.9169
        36        2.0000           -0.5431010             -14.7785
        37        2.0000           -0.5404230             -14.7057
        38        2.0000           -0.5267061             -14.3324
        39        2.0000           -0.5223487             -14.2138
        40        2.0000           -0.5151697             -14.0185
        41        2.0000           -0.5125231             -13.9465
        42        2.0000           -0.5090965             -13.8532
        43        2.0000           -0.4979898             -13.5510
        44        2.0000           -0.4811603             -13.0930
        45        2.0000           -0.4788964             -13.0314
        46        2.0000           -0.4568680             -12.4320
        47        2.0000           -0.4292467             -11.6804 (HOMO)
        48                         -0.3823705             -10.4048 (LUMO)
        49                         -0.3086977              -8.4001
        50                         -0.2878008              -7.8315
        51                         -0.1965929              -5.3496
        52                         -0.1658556              -4.5132
        53                         -0.1474413              -4.0121
        54                         -0.1356820              -3.6921
        55                         -0.1331509              -3.6232
        56                         -0.1296140              -3.5270
        57                         -0.1119635              -3.0467
        58                         -0.1017838              -2.7697
       ...                                ...                  ...
       100                          0.6855549              18.6549
      -------------------------------------------------------------
                  HL-Gap            0.0468762 Eh            1.2756 eV

Wiberg/Mayer (AO) data.
largest (>0.10) Wiberg bond orders for each atom

     #   Z sym  total        # sym  WBO       # sym  WBO       # sym  WBO
 ---------------------------------------------------------------------------
     1   6 C    3.822 --    20 H    0.982    18 H    0.973    19 H    0.972
                             2 O    0.853
     2   8 O    2.317 --     3 C    1.283     1 C    0.853
     3   6 C    3.811 --     2 O    1.283     4 O    1.248     5 C    1.122
     4   8 O    2.194 --     3 C    1.248    30 H    0.744
     5   6 C    3.959 --    15 C    1.409     6 N    1.172     3 C    1.122
     6   7 N    3.014 --     7 C    1.563     5 C    1.172
     7   6 C    3.911 --     6 N    1.563    12 N    1.186     8 C    0.980
     8   6 C    3.964 --    11 N    0.991     9 C    0.982     7 C    0.980
                            10 C    0.974
     9   6 C    3.992 --    22 H    0.985    21 H    0.984    23 H    0.983
                             8 C    0.982
    10   6 C    3.990 --    26 H    0.985    25 H    0.985    24 H    0.982
                             8 C    0.974
    11   7 N    2.984 --     8 C    0.991    28 H    0.937    27 H    0.933
    12   7 N    3.489 --     7 C    1.186    13 C    1.151    29 H    0.854
                            14 O    0.141
    13   6 C    3.917 --    14 O    1.602    12 N    1.151    15 C    1.038
    14   8 O    1.931 --    13 C    1.602    12 N    0.141
    15   6 C    3.905 --     5 C    1.409    16 O    1.131    13 C    1.038
    16   8 O    2.247 --    15 C    1.131    17 C    0.856
    17   6 C    3.831 --    33 H    0.983    32 H    0.975    31 H    0.975
                            16 O    0.856
    18   1 H    0.997 --     1 C    0.973
    19   1 H    0.997 --     1 C    0.972
    20   1 H    1.002 --     1 C    0.982
    21   1 H    1.001 --     9 C    0.984
    22   1 H    1.002 --     9 C    0.985
    23   1 H    1.008 --     9 C    0.983
    24   1 H    0.998 --    10 C    0.982
    25   1 H    1.001 --    10 C    0.985
    26   1 H    1.003 --    10 C    0.985
    27   1 H    0.947 --    11 N    0.933
    28   1 H    0.950 --    11 N    0.937
    29   1 H    0.939 --    12 N    0.854
    30   1 H    0.808 --     4 O    0.744
    31   1 H    1.008 --    17 C    0.975
    32   1 H    1.008 --    17 C    0.975
    33   1 H    1.006 --    17 C    0.983
 ---------------------------------------------------------------------------

           -------------------------------------------------
          | TOTAL ENERGY              -57.853954484640 Eh   |
          | GRADIENT NORM               0.000722299150 Eh/α |
          | HOMO-LUMO GAP               1.275566312920 eV   |
           -------------------------------------------------

 * finished run on 2023/06/20 at 15:05:11.010
