   * xtb version 6.5.1 (579679a) compiled by 'ehlert@majestix' on 2022-07-11
          program call               : /lustre/hpc/kemi/ree/PhD/git/ReactivityQM/dep/xtb-6.5.1/bin/xtb --gfn 1 /lustre/hpc/kemi/ree/PhD/git/ReactivityQM/calculations/R02methylcation/reac01prodN01/conf07/R02methylcation_reac01prodN01_conf07_gfn1.xyz --opt --vfukui --chrg 0 --uhf 0 --alpb DMSO

   ID    Z sym.   atoms
    1    6 C      1, 3, 5, 7-10, 12, 14, 17, 18, 20, 22, 24
    2    8 O      2, 4, 13, 19, 23, 25
    3    7 N      6, 11, 15, 16, 21
    4    1 H      26-42

      * Solvation model:               ALPB
        Solvent                        DMSO
        Solvent mass                       7.8130E+01 g/mol
          :  Hamiltonian                  GFN1-xTB          :
 * total energy  :   -82.8808125 Eh     change       -0.1975309E-10 Eh
 * total energy  :   -82.8972981 Eh     change       -0.1648562E-01 Eh
 * total energy  :   -82.9049754 Eh     change       -0.7677293E-02 Eh
 * total energy  :   -82.9073695 Eh     change       -0.2394116E-02 Eh
 * total energy  :   -82.9092729 Eh     change       -0.1903410E-02 Eh
 * total energy  :   -82.9103090 Eh     change       -0.1036045E-02 Eh
 * total energy  :   -82.9109970 Eh     change       -0.6879941E-03 Eh
 * total energy  :   -82.9114305 Eh     change       -0.4335174E-03 Eh
 * total energy  :   -82.9117059 Eh     change       -0.2754049E-03 Eh
 * total energy  :   -82.9118918 Eh     change       -0.1859446E-03 Eh
 * total energy  :   -82.9133689 Eh     change       -0.3029439E-04 Eh
 * total energy  :   -82.9134055 Eh     change       -0.3663176E-04 Eh
 * total energy  :   -82.9134338 Eh     change       -0.2828378E-04 Eh
 * total energy  :   -82.9134580 Eh     change       -0.2418995E-04 Eh
 * total energy  :   -82.9134762 Eh     change       -0.1817212E-04 Eh
 * total energy  :   -82.9134657 Eh     change        0.1048520E-04 Eh
 * total energy  :   -82.9134813 Eh     change       -0.1556915E-04 Eh
 * total energy  :   -82.9134868 Eh     change       -0.5478252E-05 Eh
 * total energy  :   -82.9134899 Eh     change       -0.3164461E-05 Eh
   *** GEOMETRY OPTIMIZATION CONVERGED AFTER 36 ITERATIONS ***

 final structure:
================
42
 xtb: 6.5.1 (579679a)
C            6.14420861962918        1.01645902179133        1.73928578016301
O            4.97296507566325        0.62009417353769        1.03729427064981
C            5.03897599772893        0.71381495795717       -0.32503277811862
O            6.05598772243276        1.11306176854531       -0.86774179005187
C            3.80573190507721        0.29235133911989       -0.97200803340573
N            2.79423964955737       -0.09953904204607       -0.11607350496950
C            1.66888730388917       -0.49475700338385       -0.57734757346875
C            0.56221398901317       -0.93695396010369        0.35349110998794
C            0.90916050376307       -0.56443388705327        1.79565113310823
C            0.32408986167468       -2.44540420203006        0.20680753361851
N           -0.66062926600000       -0.20994949609657       -0.06116879363643
C           -1.85168083550729       -0.38312500036059        0.50714644741753
O           -2.13416242778468       -1.11641843546196        1.43766753259444
C           -2.89270148580759        0.46449286076951       -0.15906346428343
N           -2.76943944320460        1.28971103678724       -1.12810123355355
N           -3.99817863985483        1.81578489940139       -1.41955743538822
C           -4.86550419884129        1.30947517656967       -0.63044758549720
C           -6.31498330762379        1.54804390448081       -0.55961059815389
O           -4.22975903830638        0.41091199218550        0.23648113358028
C           -4.78729156169401       -0.39784030516690        1.32185361081538
N            1.41207269885534       -0.56124719344135       -1.93485404795208
C            2.32037061810962       -0.19286586519322       -2.89942261123144
O            2.01210750595312       -0.27300645332049       -4.08401088619964
C            3.66048191887306        0.29065983008855       -2.38617391894058
O            4.52068758049882        0.64152989365914       -3.21000618315108
H            6.37376317730208        2.06946555947879        1.54620046230081
H            7.00206574852317        0.40558814159387        1.43947602532517
H            5.94189075737238        0.87248726869164        2.79965956361249
H            1.02304935336727        0.51514599857077        1.88312924504510
H            1.85110578918965       -1.03974368297118        2.06719160459878
H            0.12821163683422       -0.90024922639464        2.47365193912153
H            1.25239245648603       -2.97559510347857        0.41670920438028
H           -0.44017408971264       -2.78103960170638        0.90397958697498
H            0.00263687365423       -2.67714928174166       -0.80684971686572
H           -0.58818961212153        0.45383434749539       -0.81901637332844
H           -6.86166476026118        0.62010273427867       -0.73012666507443
H           -6.59276527987509        1.93265400136775        0.42187531808175
H           -6.58530467133659        2.27494324815896       -1.32387331749452
H           -4.60511302467194       -1.44143114038392        1.07641592320425
H           -4.27450320114204       -0.11047708419743        2.23671849085201
H           -5.84705326986263       -0.17214212418286        1.36663822313399
H            0.52180337016308       -0.89724506581050       -2.25683862780268

          :  Hamiltonian                  GFN1-xTB          :
         :: total energy             -82.913489922429 Eh    ::
         :: gradient norm              0.000905531556 Eh/a0 ::
         :: HOMO-LUMO gap              0.320215732582 eV    ::
         :: SCC energy               -83.698279273123 Eh    ::
         :: -> Gsolv                  -0.135198319177 Eh    ::
         :: repulsion energy           0.810517084315 Eh    ::

    * Orbital Energies and Occupations

         #    Occupation            Energy/Eh            Energy/eV
      -------------------------------------------------------------
         1        2.0000           -0.9651360             -26.2627
       ...           ...                  ...                  ...
        55        2.0000           -0.5065151             -13.7830
        56        2.0000           -0.5037036             -13.7065
        57        2.0000           -0.4991549             -13.5827
        58        2.0000           -0.4902424             -13.3402
        59        2.0000           -0.4832347             -13.1495
        60        2.0000           -0.4699482             -12.7879
        61        2.0000           -0.4684025             -12.7459
        62        2.0000           -0.4625631             -12.5870
        63        2.0000           -0.4474227             -12.1750
        64        2.0000           -0.4418209             -12.0226
        65        2.0000           -0.4250573             -11.5664
        66        2.0000           -0.3838765             -10.4458
        67        1.9959           -0.3724334             -10.1344 (HOMO)
        68        0.0041           -0.3606657              -9.8142 (LUMO)
        69                         -0.3108958              -8.4599
        70                         -0.2759121              -7.5080
        71                         -0.2486404              -6.7658
        72                         -0.2398435              -6.5265
        73                         -0.2019823              -5.4962
        74                         -0.1878425              -5.1115
        75                         -0.1738112              -4.7296
        76                         -0.1282221              -3.4891
        77                         -0.1253501              -3.4109
        78                         -0.1240925              -3.3767
       ...                                ...                  ...
       134                          0.7643257              20.7984
      -------------------------------------------------------------
                  HL-Gap            0.0117677 Eh            0.3202 eV

Wiberg/Mayer (AO) data.
largest (>0.10) Wiberg bond orders for each atom

     #   Z sym  total        # sym  WBO       # sym  WBO       # sym  WBO
 ---------------------------------------------------------------------------
     1   6 C    3.897 --    28 H    0.987    26 H    0.981    27 H    0.980
                             2 O    0.924
     2   8 O    2.139 --     3 C    1.030     1 C    0.924     4 O    0.110
     3   6 C    3.850 --     4 O    1.598     5 C    1.112     2 O    1.030
     4   8 O    1.873 --     3 C    1.598     2 O    0.110
     5   6 C    3.912 --    24 C    1.262     6 N    1.159     3 C    1.112
                            25 O    0.129
     6   7 N    3.033 --     7 C    1.635     5 C    1.159
     7   6 C    3.933 --     6 N    1.635    21 N    1.086     8 C    0.979
     8   6 C    3.911 --     9 C    0.993    10 C    0.982     7 C    0.979
                            11 N    0.889
     9   6 C    3.990 --     8 C    0.993    29 H    0.985    31 H    0.983
                            30 H    0.982
    10   6 C    3.987 --    34 H    0.984    32 H    0.984     8 C    0.982
                            33 H    0.980
    11   7 N    3.396 --    12 C    1.318    35 H    0.890     8 C    0.889
                            13 O    0.197
    12   6 C    3.928 --    13 O    1.572    11 N    1.318    14 C    0.965
    13   8 O    1.934 --    12 C    1.572    11 N    0.197
    14   6 C    3.795 --    15 N    1.704    12 C    0.965    19 O    0.885
    15   7 N    3.041 --    14 C    1.704    16 N    1.145
    16   7 N    3.024 --    17 C    1.699    15 N    1.145
    17   6 C    3.802 --    16 N    1.699    18 C    1.043    19 O    0.875
    18   6 C    3.970 --    17 C    1.043    38 H    0.970    37 H    0.951
                            36 H    0.951
    19   8 O    2.654 --    14 C    0.885    17 C    0.875    20 C    0.747
    20   6 C    3.725 --    41 H    0.975    40 H    0.968    39 H    0.968
                            19 O    0.747
    21   7 N    3.416 --    22 C    1.150     7 C    1.086    42 H    0.898
                            23 O    0.134
    22   6 C    3.874 --    23 O    1.589    21 N    1.150    24 C    0.964
    23   8 O    1.866 --    22 C    1.589    21 N    0.134
    24   6 C    3.941 --    25 O    1.533     5 C    1.262    22 C    0.964
    25   8 O    1.836 --    24 C    1.533     5 C    0.129
    26   1 H    1.013 --     1 C    0.981
    27   1 H    1.014 --     1 C    0.980
    28   1 H    1.016 --     1 C    0.987
    29   1 H    1.007 --     9 C    0.985
    30   1 H    1.012 --     9 C    0.982
    31   1 H    1.007 --     9 C    0.983
    32   1 H    1.001 --    10 C    0.984
    33   1 H    1.006 --    10 C    0.980
    34   1 H    1.001 --    10 C    0.984
    35   1 H    0.942 --    11 N    0.890
    36   1 H    0.988 --    18 C    0.951
    37   1 H    0.988 --    18 C    0.951
    38   1 H    0.989 --    18 C    0.970
    39   1 H    0.999 --    20 C    0.968
    40   1 H    1.000 --    20 C    0.968
    41   1 H    0.991 --    20 C    0.975
    42   1 H    0.944 --    21 N    0.898
 ---------------------------------------------------------------------------

           -------------------------------------------------
          | TOTAL ENERGY              -82.913489922429 Eh   |
          | GRADIENT NORM               0.000905531556 Eh/α |
          | HOMO-LUMO GAP               0.320215732582 eV   |
           -------------------------------------------------

 * finished run on 2023/06/21 at 17:29:39.271
