   * xtb version 6.5.1 (579679a) compiled by 'ehlert@majestix' on 2022-07-11
          program call               : /lustre/hpc/kemi/ree/PhD/git/ReactivityQM/dep/xtb-6.5.1/bin/xtb --gfn 1 /lustre/hpc/kemi/ree/PhD/git/ReactivityQM/calculations/RaltegravirCLI/reac02/conf12/RaltegravirCLI_reac02_conf12_gfn1.xyz --opt --vfukui --chrg 0 --uhf 0 --alpb DMSO

   ID    Z sym.   atoms
    1    6 C      1, 3-6, 9, 10, 13-17, 19-21, 23
    2    7 N      2, 7, 8, 12
    3    8 O      11, 22, 24
    4    9 F      18
    5    1 H      25-43

      * Solvation model:               ALPB
        Solvent                        DMSO
        Solvent mass                       7.8130E+01 g/mol
          :  Hamiltonian                  GFN1-xTB          :
 * total energy  :   -76.1697396 Eh     change       -0.8171241E-11 Eh
 * total energy  :   -76.1763800 Eh     change       -0.6640434E-02 Eh
 * total energy  :   -76.1781444 Eh     change       -0.1764341E-02 Eh
 * total energy  :   -76.1784154 Eh     change       -0.2710008E-03 Eh
 * total energy  :   -76.1786810 Eh     change       -0.2656469E-03 Eh
 * total energy  :   -76.1787908 Eh     change       -0.1098035E-03 Eh
 * total energy  :   -76.1788972 Eh     change       -0.1063239E-03 Eh
 * total energy  :   -76.1789587 Eh     change       -0.6158756E-04 Eh
 * total energy  :   -76.1790029 Eh     change       -0.4419586E-04 Eh
 * total energy  :   -76.1790570 Eh     change       -0.5402168E-04 Eh
 * total energy  :   -76.1794510 Eh     change       -0.1940408E-04 Eh
 * total energy  :   -76.1794707 Eh     change       -0.1971920E-04 Eh
 * total energy  :   -76.1794763 Eh     change       -0.5587096E-05 Eh
 * total energy  :   -76.1794927 Eh     change       -0.1638520E-04 Eh
 * total energy  :   -76.1795026 Eh     change       -0.9878622E-05 Eh
 * total energy  :   -76.1795112 Eh     change       -0.8615841E-05 Eh
 * total energy  :   -76.1795252 Eh     change       -0.1403162E-04 Eh
 * total energy  :   -76.1795310 Eh     change       -0.5796743E-05 Eh
 * total energy  :   -76.1795349 Eh     change       -0.3879390E-05 Eh
   *** GEOMETRY OPTIMIZATION CONVERGED AFTER 27 ITERATIONS ***

 final structure:
================
43
 xtb: 6.5.1 (579679a)
C           -4.26326346995315       -0.66691602055884       -1.41810091887864
N           -2.84870217195911       -0.29029159492928       -1.39576242139874
C           -2.18156817391801        0.06041192063304       -0.25117014497963
C           -2.80753224179697        0.06975831318035        1.15031077850654
C           -3.69910079467344        1.30705363976725        1.33226940285052
C           -3.55194418353836       -1.22738729966922        1.49898349126594
N           -1.72324472100287        0.19552798332648        2.12118844123452
N           -0.93580531955408        0.42556439457979       -0.28545249227485
C           -0.24609223970391        0.45895722197229       -1.46168065984305
C            1.16745023669531        0.90395689565348       -1.40536874720693
O            1.88218224081360        0.94369676192125       -2.41193469955509
N            1.58401394421545        1.27073069075950       -0.18632847106177
C            2.95585920901972        1.68858886190156        0.07066437960896
C            3.80766425228138        0.50209395958476        0.46940041620123
C            4.19141237176798       -0.43174354563729       -0.49206400215046
C            4.95627937314478       -1.53354241272080       -0.13845876683042
C            5.32533205250088       -1.67800987078829        1.18738571681816
F            6.06811575272516       -2.74148511603345        1.53711895504164
C            4.96265383471293       -0.77141048305218        2.16626960413545
C            4.19514075663305        0.32479882613192        1.79472081954211
C           -0.83155928024700        0.07966907861617       -2.63935907966658
O           -0.19325122768281        0.07613148122600       -3.81734489558438
C           -2.22394790743681       -0.34625236581546       -2.64731218165591
O           -2.83715175653893       -0.71667545387548       -3.64023429797205
H           -4.65107618214627       -0.47045658411304       -2.41808852679151
H           -4.36814715499442       -1.72925569467272       -1.19903489647411
H           -4.82350678242971       -0.07838973203843       -0.70069130856051
H           -4.59285920745927        1.26164042731616        0.71402108635855
H           -4.00080858670094        1.37093892300432        2.37726084746560
H           -3.13946124574555        2.20519672422679        1.07329729260472
H           -3.02558272736887       -2.09140339011119        1.09516474647198
H           -4.57444872150098       -1.22746821829693        1.12945033177867
H           -3.58631808175473       -1.31907654266588        2.58465105762832
H           -1.06450375916401       -0.56123484756614        1.98146305400047
H           -1.22045434617544        1.05752663715433        1.94486908038488
H            0.95599723355563        1.14598772283889        0.59338399150372
H            2.93777439633981        2.43642729711717        0.86636728621407
H            3.34191595987230        2.14431129266840       -0.84698472532008
H            3.89029320419533       -0.29489732420318       -1.52445320854748
H            5.26305305993923       -2.26673880715445       -0.87339483286846
H            5.27150359677887       -0.91973497500168        3.19280742591145
H            3.89846750535120        1.04672375439271        2.54640453343491
H            0.73522030290788        0.38667747093538       -3.67423246134667

          :  Hamiltonian                  GFN1-xTB          :
         :: total energy             -76.179534889685 Eh    ::
         :: gradient norm              0.000469741715 Eh/a0 ::
         :: HOMO-LUMO gap              2.751230827108 eV    ::
         :: SCC energy               -77.021568161750 Eh    ::
         :: -> Gsolv                  -0.047354183229 Eh    ::
         :: repulsion energy           0.869765333985 Eh    ::

    * Orbital Energies and Occupations

         #    Occupation            Energy/Eh            Energy/eV
      -------------------------------------------------------------
         1        2.0000           -0.8625209             -23.4704
       ...           ...                  ...                  ...
        52        2.0000           -0.4966593             -13.5148
        53        2.0000           -0.4880784             -13.2813
        54        2.0000           -0.4844574             -13.1828
        55        2.0000           -0.4721924             -12.8490
        56        2.0000           -0.4695246             -12.7764
        57        2.0000           -0.4644457             -12.6382
        58        2.0000           -0.4498497             -12.2410
        59        2.0000           -0.4497906             -12.2394
        60        2.0000           -0.4405995             -11.9893
        61        2.0000           -0.4352683             -11.8443
        62        2.0000           -0.4305055             -11.7147
        63        2.0000           -0.4164236             -11.3315
        64        2.0000           -0.4111141             -11.1870 (HOMO)
        65                         -0.3100083              -8.4358 (LUMO)
        66                         -0.2735892              -7.4447
        67                         -0.2717241              -7.3940
        68                         -0.2654678              -7.2237
        69                         -0.2267158              -6.1693
        70                         -0.1467560              -3.9934
        71                         -0.1442229              -3.9245
        72                         -0.1438298              -3.9138
        73                         -0.1262351              -3.4350
        74                         -0.1200705              -3.2673
        75                         -0.1165584              -3.1717
       ...                                ...                  ...
       134                          0.7170799              19.5127
      -------------------------------------------------------------
                  HL-Gap            0.1011059 Eh            2.7512 eV

Wiberg/Mayer (AO) data.
largest (>0.10) Wiberg bond orders for each atom

     #   Z sym  total        # sym  WBO       # sym  WBO       # sym  WBO
 ---------------------------------------------------------------------------
     1   6 C    3.928 --    27 H    0.977    26 H    0.977    25 H    0.973
                             2 N    0.935
     2   7 N    3.499 --     3 C    1.180    23 C    1.103     1 C    0.935
                            24 O    0.134
     3   6 C    3.919 --     8 N    1.552     2 N    1.180     4 C    0.964
     4   6 C    3.968 --     7 N    0.995     6 C    0.991     5 C    0.984
                             3 C    0.964
     5   6 C    3.994 --    30 H    0.985     4 C    0.984    29 H    0.983
                            28 H    0.978
     6   6 C    3.994 --     4 C    0.991    31 H    0.986    33 H    0.983
                            32 H    0.982
     7   7 N    2.962 --     4 C    0.995    34 H    0.945    35 H    0.943
     8   7 N    3.055 --     3 C    1.552     9 C    1.192
     9   6 C    3.964 --    21 C    1.483     8 N    1.192    10 C    1.016
    10   6 C    3.906 --    11 O    1.516    12 N    1.290     9 C    1.016
    11   8 O    1.904 --    10 C    1.516    12 N    0.163
    12   7 N    3.368 --    10 C    1.290    13 C    0.938    36 H    0.893
                            11 O    0.163
    13   6 C    3.945 --    14 C    0.993    37 H    0.977    38 H    0.968
                            12 N    0.938
    14   6 C    3.987 --    20 C    1.424    15 C    1.414    13 C    0.993
    15   6 C    3.992 --    16 C    1.448    14 C    1.414    39 H    0.969
                            19 C    0.111
    16   6 C    3.992 --    15 C    1.448    17 C    1.398    40 H    0.970
                            20 C    0.110
    17   6 C    3.860 --    19 C    1.404    16 C    1.398    18 F    0.924
    18   9 F    1.052 --    17 C    0.924
    19   6 C    3.991 --    20 C    1.439    17 C    1.404    41 H    0.969
                            15 C    0.111
    20   6 C    3.994 --    19 C    1.439    14 C    1.424    42 H    0.971
                            16 C    0.110
    21   6 C    3.923 --     9 C    1.483    22 O    1.108    23 C    1.082
    22   8 O    2.071 --    21 C    1.108    43 H    0.775
    23   6 C    3.912 --    24 O    1.573     2 N    1.103    21 C    1.082
    24   8 O    1.889 --    23 C    1.573     2 N    0.134
    25   1 H    1.009 --     1 C    0.973
    26   1 H    1.003 --     1 C    0.977
    27   1 H    1.009 --     1 C    0.977
    28   1 H    1.005 --     5 C    0.978
    29   1 H    1.004 --     5 C    0.983
    30   1 H    1.002 --     5 C    0.985
    31   1 H    1.001 --     6 C    0.986
    32   1 H    1.004 --     6 C    0.982
    33   1 H    1.008 --     6 C    0.983
    34   1 H    0.968 --     7 N    0.945
    35   1 H    0.975 --     7 N    0.943
    36   1 H    0.959 --    12 N    0.893
    37   1 H    1.002 --    13 C    0.977
    38   1 H    1.008 --    13 C    0.968
    39   1 H    1.009 --    15 C    0.969
    40   1 H    0.998 --    16 C    0.970
    41   1 H    0.998 --    19 C    0.969
    42   1 H    0.999 --    20 C    0.971
    43   1 H    0.860 --    22 O    0.775
 ---------------------------------------------------------------------------

           -------------------------------------------------
          | TOTAL ENERGY              -76.179534889685 Eh   |
          | GRADIENT NORM               0.000469741715 Eh/α |
          | HOMO-LUMO GAP               2.751230827108 eV   |
           -------------------------------------------------

 * finished run on 2023/06/20 at 14:51:40.233
