   * xtb version 6.5.1 (579679a) compiled by 'ehlert@majestix' on 2022-07-11
          program call               : /lustre/hpc/kemi/ree/PhD/git/ReactivityQM/dep/xtb-6.5.1/bin/xtb --gfn 1 /lustre/hpc/kemi/ree/PhD/git/ReactivityQM/calculations/R03/reac02prodE05/conf18/R03_reac02prodE05_conf18_gfn1.xyz --opt --vfukui --chrg -1 --uhf 0 --alpb DMSO

   ID    Z sym.   atoms
    1    6 C      1, 3, 5, 6, 8, 11-15, 17, 19, 22, 23, 26
    2    8 O      2, 4, 7, 9, 18, 24
    3    7 N      10, 16, 20, 21, 25
    4    1 H      27-46

      * Solvation model:               ALPB
        Solvent                        DMSO
        Solvent mass                       7.8130E+01 g/mol
          :  Hamiltonian                  GFN1-xTB          :
 * total energy  :   -86.9697394 Eh     change       -0.2750937E-09 Eh
 * total energy  :   -86.9832680 Eh     change       -0.1352856E-01 Eh
 * total energy  :   -86.9900687 Eh     change       -0.6800718E-02 Eh
 * total energy  :   -86.9916904 Eh     change       -0.1621678E-02 Eh
 * total energy  :   -86.9929807 Eh     change       -0.1290308E-02 Eh
 * total energy  :   -86.9936356 Eh     change       -0.6549588E-03 Eh
 * total energy  :   -86.9941982 Eh     change       -0.5625757E-03 Eh
 * total energy  :   -86.9947093 Eh     change       -0.5110447E-03 Eh
 * total energy  :   -86.9951740 Eh     change       -0.4647735E-03 Eh
 * total energy  :   -86.9955760 Eh     change       -0.4019636E-03 Eh
 * total energy  :   -87.0090623 Eh     change       -0.7233487E-04 Eh
 * total energy  :   -87.0091039 Eh     change       -0.4155377E-04 Eh
 * total energy  :   -87.0091305 Eh     change       -0.2663734E-04 Eh
 * total energy  :   -87.0091404 Eh     change       -0.9942487E-05 Eh
 * total energy  :   -87.0091720 Eh     change       -0.3154474E-04 Eh
 * total energy  :   -87.0091838 Eh     change       -0.1177764E-04 Eh
 * total energy  :   -87.0091927 Eh     change       -0.8944441E-05 Eh
 * total energy  :   -87.0091969 Eh     change       -0.4150266E-05 Eh
 * total energy  :   -87.0092000 Eh     change       -0.3116389E-05 Eh
   *** GEOMETRY OPTIMIZATION CONVERGED AFTER 66 ITERATIONS ***

 final structure:
================
46
 xtb: 6.5.1 (579679a)
C           -4.15716825241276       -3.59729099800799        0.41987176856634
O           -3.59962233605325       -2.33782990908406        0.78090175641997
C           -3.04373957986159       -1.62136057615533       -0.25830394664640
O           -3.05573962035978       -2.08372352717904       -1.39689924654721
C           -2.52554260573819       -0.33989854829606        0.12568714246916
C           -2.31634108043566        0.15306758527156        1.40800402736962
O           -2.67439618227957       -0.50802771346421        2.54956350097130
C           -1.52266831050377        1.34181980178470        1.60618310302727
O           -1.43862103832291        2.01193257827898        2.66853021983201
N           -0.71831059442431        1.64708506233716        0.52758855186493
C            0.25522030315757        2.70922652419952        0.77980026913509
C           -0.90774297382754        1.15216887242559       -0.76007051280363
C            0.26922116860254        0.49569900049766       -1.48422473952757
C           -0.15996771106513       -0.80019432309446       -2.19132657411917
C            0.83898640947560        1.47149098978042       -2.53291505447627
N            1.31786994480641        0.16074646140449       -0.50101860054657
C            2.53667202225805       -0.31302505721966       -0.78687392191292
O            2.99444115007621       -0.52741075842365       -1.90046008947784
C            3.30795596267271       -0.56316565117132        0.46667737336637
N            2.87481643132078       -0.38173889469207        1.67787531412580
N            3.88553172586863       -0.75179696296859        2.51779708211259
C            4.86821217744461       -1.13570793089562        1.76424656626011
C            6.19771399827458       -1.62412701987234        2.19289972600059
O            4.56708054126608       -1.04177541882710        0.45938338526387
N           -2.19559647424725        0.54363670382603       -0.97246879622876
C           -3.24340432846862        1.56089242792764       -1.19040760635365
H           -3.38583172664723       -4.25817388834367        0.01191361691576
H           -4.57438245542020       -4.03433290641689        1.32521882395173
H           -4.94590046465751       -3.46889278849457       -0.32744484076580
H           -3.18780182873462       -1.30406576723527        2.33816842076431
H            0.85143973580656        2.46312092897334        1.66089576826462
H           -0.27404578788119        3.64697867746321        0.96826996305220
H            0.90498824187506        2.82893740871247       -0.08229653719549
H            0.65943838437881       -1.18498325259060       -2.79736010027424
H           -0.44246250553189       -1.55448097487900       -1.45828668855037
H           -1.01758733200013       -0.60281851573011       -2.83294122176283
H            0.02156545856164        1.80971680836509       -3.16800113731336
H            1.59529250059577        0.99322918696884       -3.15387788939302
H            1.28130619320909        2.33967024615155       -2.04817496158544
H            1.07090798559604        0.24372176025291        0.47783108688697
H            6.42314837912687       -2.57225475018922        1.70560657799988
H            6.20938935959822       -1.75382178033456        3.27244882931773
H            6.96768088434300       -0.90641142290712        1.90803090806961
H           -3.39133196375019        2.19644952762412       -0.30777606147919
H           -2.93959204412969        2.18239473845813       -2.03304803136312
H           -4.18108176156910        1.05740404576726       -1.42921922368319

          :  Hamiltonian                  GFN1-xTB          :
         :: total energy             -87.009199978734 Eh    ::
         :: gradient norm              0.000937263865 Eh/a0 ::
         :: HOMO-LUMO gap              0.297272496708 eV    ::
         :: SCC energy               -87.791409760390 Eh    ::
         :: -> Gsolv                  -0.110198435263 Eh    ::
         :: repulsion energy           0.813326666698 Eh    ::

    * Orbital Energies and Occupations

         #    Occupation            Energy/Eh            Energy/eV
      -------------------------------------------------------------
         1        2.0000           -0.8554186             -23.2771
       ...           ...                  ...                  ...
        59        2.0000           -0.4717703             -12.8375
        60        2.0000           -0.4661688             -12.6851
        61        2.0000           -0.4645969             -12.6423
        62        2.0000           -0.4510620             -12.2740
        63        2.0000           -0.4502614             -12.2522
        64        2.0000           -0.4390856             -11.9481
        65        2.0000           -0.4346029             -11.8261
        66        2.0000           -0.4282446             -11.6531
        67        2.0000           -0.4146520             -11.2833
        68        2.0000           -0.3979792             -10.8296
        69        2.0000           -0.3858263             -10.4989
        70        2.0000           -0.3680227             -10.0144
        71        1.9937           -0.3080136              -8.3815 (HOMO)
        72        0.0063           -0.2970890              -8.0842 (LUMO)
        73                         -0.2717301              -7.3942
        74                         -0.2499267              -6.8009
        75                         -0.1908500              -5.1933
        76                         -0.1855171              -5.0482
        77                         -0.1400064              -3.8098
        78                         -0.1343368              -3.6555
        79                         -0.1210429              -3.2937
        80                         -0.1181723              -3.2156
        81                         -0.1060407              -2.8855
        82                         -0.1007546              -2.7417
       ...                                ...                  ...
       144                          0.7354289              20.0120
      -------------------------------------------------------------
                  HL-Gap            0.0109246 Eh            0.2973 eV

Wiberg/Mayer (AO) data.
largest (>0.10) Wiberg bond orders for each atom

     #   Z sym  total        # sym  WBO       # sym  WBO       # sym  WBO
 ---------------------------------------------------------------------------
     1   6 C    3.893 --    28 H    0.987    27 H    0.981    29 H    0.981
                             2 O    0.918
     2   8 O    2.139 --     3 C    0.992     1 C    0.918
     3   6 C    3.854 --     4 O    1.547     5 C    1.168     2 O    0.992
     4   8 O    1.859 --     3 C    1.547
     5   6 C    3.924 --     6 C    1.417     3 C    1.168    25 N    0.969
     6   6 C    3.899 --     5 C    1.417     8 C    1.141     7 O    1.036
                            12 C    0.131
     7   8 O    2.022 --     6 C    1.036    30 H    0.828
     8   6 C    3.926 --     9 O    1.402    10 N    1.151     6 C    1.141
                            12 C    0.120
     9   8 O    1.734 --     8 C    1.402    10 N    0.140
    10   7 N    3.469 --     8 C    1.151    12 C    1.093    11 C    0.949
                             9 O    0.140
    11   6 C    3.958 --    33 H    0.984    31 H    0.983    32 H    0.977
                            10 N    0.949
    12   6 C    3.696 --    10 N    1.093    25 N    0.976    13 C    0.974
                             6 C    0.131     8 C    0.120
    13   6 C    3.916 --    14 C    0.987    15 C    0.983    12 C    0.974
                            16 N    0.897
    14   6 C    3.993 --    13 C    0.987    34 H    0.985    35 H    0.985
                            36 H    0.983
    15   6 C    3.991 --    37 H    0.986    13 C    0.983    38 H    0.982
                            39 H    0.980
    16   7 N    3.378 --    17 C    1.294    40 H    0.898    13 C    0.897
                            18 O    0.187
    17   6 C    3.922 --    18 O    1.565    16 N    1.294    19 C    0.980
    18   8 O    1.885 --    17 C    1.565    16 N    0.187
    19   6 C    3.865 --    20 N    1.614    24 O    1.061    17 C    0.980
    20   7 N    3.010 --    19 C    1.614    21 N    1.190
    21   7 N    2.980 --    22 C    1.616    20 N    1.190
    22   6 C    3.873 --    21 N    1.616    24 O    1.079    23 C    1.030
    23   6 C    3.988 --    22 C    1.030    42 H    0.983    41 H    0.968
                            43 H    0.962
    24   8 O    2.322 --    22 C    1.079    19 C    1.061
    25   7 N    3.054 --    12 C    0.976     5 C    0.969    26 C    0.962
    26   6 C    3.983 --    45 H    0.988    46 H    0.988    44 H    0.983
                            25 N    0.962
    27   1 H    1.014 --     1 C    0.981
    28   1 H    1.014 --     1 C    0.987
    29   1 H    1.014 --     1 C    0.981
    30   1 H    0.882 --     7 O    0.828
    31   1 H    1.016 --    11 C    0.983
    32   1 H    1.013 --    11 C    0.977
    33   1 H    1.016 --    11 C    0.984
    34   1 H    1.010 --    14 C    0.985
    35   1 H    1.016 --    14 C    0.985
    36   1 H    1.025 --    14 C    0.983
    37   1 H    1.015 --    15 C    0.986
    38   1 H    1.014 --    15 C    0.982
    39   1 H    1.013 --    15 C    0.980
    40   1 H    0.968 --    16 N    0.898
    41   1 H    0.998 --    23 C    0.968
    42   1 H    0.999 --    23 C    0.983
    43   1 H    0.998 --    23 C    0.962
    44   1 H    1.008 --    26 C    0.983
    45   1 H    1.027 --    26 C    0.988
    46   1 H    1.017 --    26 C    0.988
 ---------------------------------------------------------------------------

           -------------------------------------------------
          | TOTAL ENERGY              -87.009199978734 Eh   |
          | GRADIENT NORM               0.000937263865 Eh/α |
          | HOMO-LUMO GAP               0.297272496708 eV   |
           -------------------------------------------------

 * finished run on 2023/06/20 at 15:20:23.179
