   * xtb version 6.5.1 (579679a) compiled by 'ehlert@majestix' on 2022-07-11
          program call               : /lustre/hpc/kemi/ree/PhD/git/ReactivityQM/dep/xtb-6.5.1/bin/xtb --gfn 1 /lustre/hpc/kemi/ree/PhD/git/ReactivityQM/calculations/R03/reac02prodE11/conf14/R03_reac02prodE11_conf14_gfn1.xyz --opt --vfukui --chrg -1 --uhf 0 --alpb DMSO

   ID    Z sym.   atoms
    1    6 C      1, 3, 5, 7-10, 12, 14, 17-19, 22, 23, 25
    2    8 O      2, 4, 13, 20, 24, 26
    3    7 N      6, 11, 15, 16, 21
    4    1 H      27-46

      * Solvation model:               ALPB
        Solvent                        DMSO
        Solvent mass                       7.8130E+01 g/mol
          :  Hamiltonian                  GFN1-xTB          :
 * total energy  :   -87.0477596 Eh     change       -0.1697344E-09 Eh
 * total energy  :   -87.0579766 Eh     change       -0.1021696E-01 Eh
 * total energy  :   -87.0618377 Eh     change       -0.3861129E-02 Eh
 * total energy  :   -87.0625915 Eh     change       -0.7537829E-03 Eh
 * total energy  :   -87.0631572 Eh     change       -0.5657275E-03 Eh
 * total energy  :   -87.0633577 Eh     change       -0.2004711E-03 Eh
 * total energy  :   -87.0634878 Eh     change       -0.1300797E-03 Eh
 * total energy  :   -87.0635663 Eh     change       -0.7856694E-04 Eh
 * total energy  :   -87.0636178 Eh     change       -0.5146915E-04 Eh
 * total energy  :   -87.0636484 Eh     change       -0.3064051E-04 Eh
 * total energy  :   -87.0636688 Eh     change       -0.2032093E-04 Eh
 * total energy  :   -87.0636849 Eh     change       -0.1615632E-04 Eh
 * total energy  :   -87.0636924 Eh     change       -0.7479017E-05 Eh
 * total energy  :   -87.0637032 Eh     change       -0.1080324E-04 Eh
 * total energy  :   -87.0637081 Eh     change       -0.4894905E-05 Eh
   *** GEOMETRY OPTIMIZATION CONVERGED AFTER 15 ITERATIONS ***

 final structure:
================
46
 xtb: 6.5.1 (579679a)
C           -5.93647763787613        2.62092338679279        1.81900329579349
O           -5.00784572477109        2.17053503672776        0.82545368302606
C           -4.05870160192953        1.31691417263764        1.25046735256675
O           -3.97918827160322        0.95695825825067        2.40266727045434
C           -3.14825854703771        0.86573073261869        0.16865374973485
N           -2.20402682262353       -0.02472585795823        0.59412420010039
C           -1.33749805991726       -0.54084519170556       -0.21843737874266
C           -0.37128937460269       -1.55921486337090        0.38640658053565
C           -0.76048856967930       -2.95688638239384       -0.12455972461015
C           -0.50639547968094       -1.52464558900146        1.91922161860083
N            0.98700437151669       -1.19419580601372       -0.00834926339729
C            2.09491668997233       -1.92298596626350        0.48971540548283
O            1.98113349705754       -3.08571179697737        0.92317272075517
C            3.30976199696647       -1.21584052080553        0.38127503489654
N            4.51951036550257       -1.63680248018818        0.73110372608804
N            5.41179579016833       -0.72258441183429        0.52156739595818
C            4.72831846443836        0.45532636490908       -0.03494869909902
C            4.91809377989960        1.65667366385645        0.90366855687525
C            5.28004426904642        0.75897370268283       -1.43683181998425
O            3.35283416446525        0.10176088784365       -0.11227307167097
N           -1.33453947413625       -0.21968835591667       -1.55146524514725
C           -0.42491109662018       -0.79497717653810       -2.54656734226709
C           -2.25524964431194        0.66757897984428       -2.10030400129660
O           -2.24535862234686        0.91104852504713       -3.30247976194454
C           -3.19858915225576        1.24443087930718       -1.15015477993479
O           -4.06923979337452        2.11287955580691       -1.69214919964335
H           -6.59763499694007        3.33192645355880        1.33005765402748
H           -5.40117088564359        3.10168534268786        2.64125661838503
H           -6.50926757940212        1.77396113721097        2.20415125238077
H           -0.56122393619509       -3.05858189851852       -1.18893288427261
H           -0.19655204488344       -3.72012744292773        0.40854213275200
H           -1.82347449780703       -3.11893083615585        0.04973113405582
H           -0.26419433121334       -0.53173084946706        2.29541717340006
H            0.17249469174649       -2.25203528300266        2.36155216461754
H           -1.52656747294997       -1.76957496360795        2.20959957220332
H            1.14578400528634       -0.19413553840465        0.01797286678277
H            4.39441806536468        2.52646436476163        0.51148345798750
H            5.97793674308756        1.88507622269688        0.99767002906138
H            4.51710711083973        1.41331247671619        1.88627209168013
H            4.76924372953420        1.61927572689245       -1.86549432010697
H            6.34623004484591        0.96742632696082       -1.37314753076545
H            5.12412066419161       -0.10519343442357       -2.08059477213425
H           -0.96535186918498       -1.53596459810258       -3.13668376356436
H           -0.09110789318711        0.00523470511948       -3.20767023279705
H            0.43386748703411       -1.24988739792697       -2.06249347543823
H           -4.69001155079700        2.47117173855694       -1.03666647138308

          :  Hamiltonian                  GFN1-xTB          :
         :: total energy             -87.063708096650 Eh    ::
         :: gradient norm              0.000901257055 Eh/a0 ::
         :: HOMO-LUMO gap              0.188459389391 eV    ::
         :: SCC energy               -87.856268682873 Eh    ::
         :: -> Gsolv                  -0.114619068537 Eh    ::
         :: repulsion energy           0.821561865650 Eh    ::

    * Orbital Energies and Occupations

         #    Occupation            Energy/Eh            Energy/eV
      -------------------------------------------------------------
         1        2.0000           -0.8365270             -22.7631
       ...           ...                  ...                  ...
        59        2.0000           -0.4755418             -12.9402
        60        2.0000           -0.4722274             -12.8500
        61        2.0000           -0.4608612             -12.5407
        62        2.0000           -0.4502605             -12.2522
        63        2.0000           -0.4458322             -12.1317
        64        2.0000           -0.4393484             -11.9553
        65        2.0000           -0.4324869             -11.7686
        66        2.0000           -0.4189814             -11.4011
        67        2.0000           -0.4157229             -11.3124
        68        2.0000           -0.4110691             -11.1858
        69        2.0000           -0.3974623             -10.8155
        70        2.0000           -0.3738391             -10.1727
        71        1.9491           -0.3206890              -8.7264 (HOMO)
        72        0.0509           -0.3137633              -8.5379 (LUMO)
        73                         -0.2686040              -7.3091
        74                         -0.2428688              -6.6088
        75                         -0.2307907              -6.2801
        76                         -0.1465099              -3.9867
        77                         -0.1338978              -3.6435
        78                         -0.1315727              -3.5803
        79                         -0.1267436              -3.4489
        80                         -0.1083221              -2.9476
        81                         -0.1051606              -2.8616
        82                         -0.0999224              -2.7190
       ...                                ...                  ...
       144                          0.7326996              19.9378
      -------------------------------------------------------------
                  HL-Gap            0.0069258 Eh            0.1885 eV

Wiberg/Mayer (AO) data.
largest (>0.10) Wiberg bond orders for each atom

     #   Z sym  total        # sym  WBO       # sym  WBO       # sym  WBO
 ---------------------------------------------------------------------------
     1   6 C    3.867 --    27 H    0.986    29 H    0.980    28 H    0.980
                             2 O    0.890
     2   8 O    2.192 --     3 C    1.075     1 C    0.890     4 O    0.126
     3   6 C    3.830 --     4 O    1.660     2 O    1.075     5 C    1.017
     4   8 O    1.915 --     3 C    1.660     2 O    0.126
     5   6 C    3.950 --    25 C    1.472     6 N    1.189     3 C    1.017
     6   7 N    3.027 --     7 C    1.564     5 C    1.189
     7   6 C    3.917 --     6 N    1.564    21 N    1.174     8 C    0.973
     8   6 C    3.956 --    10 C    0.989     9 C    0.981     7 C    0.973
                            11 N    0.954
     9   6 C    3.991 --    32 H    0.987    30 H    0.982     8 C    0.981
                            31 H    0.976
    10   6 C    3.993 --     8 C    0.989    33 H    0.986    35 H    0.985
                            34 H    0.982
    11   7 N    3.185 --    12 C    1.042     8 C    0.954    36 H    0.917
    12   6 C    3.916 --    13 O    1.461    14 C    1.234    11 N    1.042
    13   8 O    1.797 --    12 C    1.461
    14   6 C    3.820 --    15 N    1.382    12 C    1.234    20 O    0.929
                            16 N    0.141
    15   7 N    3.025 --    16 N    1.488    14 C    1.382
    16   7 N    2.863 --    15 N    1.488    17 C    0.981    14 C    0.141
    17   6 C    3.896 --    16 N    0.981    18 C    0.978    19 C    0.978
                            20 O    0.920
    18   6 C    3.991 --    38 H    0.988    37 H    0.986    39 H    0.985
                            17 C    0.978
    19   6 C    3.991 --    41 H    0.988    40 H    0.986    42 H    0.985
                            17 C    0.978
    20   8 O    2.052 --    14 C    0.929    17 C    0.920
    21   7 N    3.498 --     7 C    1.174    23 C    1.117    22 C    0.930
                            24 O    0.134
    22   6 C    3.922 --    43 H    0.977    44 H    0.976    45 H    0.971
                            21 N    0.930
    23   6 C    3.908 --    24 O    1.562    21 N    1.117    25 C    1.083
    24   8 O    1.872 --    23 C    1.562    21 N    0.134
    25   6 C    3.898 --     5 C    1.472    26 O    1.092    23 C    1.083
    26   8 O    2.069 --    25 C    1.092    46 H    0.807
    27   1 H    1.010 --     1 C    0.986
    28   1 H    1.008 --     1 C    0.980
    29   1 H    1.007 --     1 C    0.980
    30   1 H    1.005 --     9 C    0.982
    31   1 H    1.022 --     9 C    0.976
    32   1 H    1.005 --     9 C    0.987
    33   1 H    1.010 --    10 C    0.986
    34   1 H    1.014 --    10 C    0.982
    35   1 H    1.015 --    10 C    0.985
    36   1 H    0.965 --    11 N    0.917
    37   1 H    1.008 --    18 C    0.986
    38   1 H    1.009 --    18 C    0.988
    39   1 H    1.013 --    18 C    0.985
    40   1 H    1.007 --    19 C    0.986
    41   1 H    1.010 --    19 C    0.988
    42   1 H    1.013 --    19 C    0.985
    43   1 H    1.005 --    22 C    0.977
    44   1 H    1.009 --    22 C    0.976
    45   1 H    1.021 --    22 C    0.971
    46   1 H    0.858 --    26 O    0.807
 ---------------------------------------------------------------------------

           -------------------------------------------------
          | TOTAL ENERGY              -87.063708096650 Eh   |
          | GRADIENT NORM               0.000901257055 Eh/α |
          | HOMO-LUMO GAP               0.188459389391 eV   |
           -------------------------------------------------

 * finished run on 2023/06/20 at 15:32:24.979
