   * xtb version 6.5.1 (579679a) compiled by 'ehlert@majestix' on 2022-07-11
          program call               : /lustre/hpc/kemi/ree/PhD/git/ReactivityQM/dep/xtb-6.5.1/bin/xtb --gfn 1 /lustre/hpc/kemi/ree/PhD/git/ReactivityQM/calculations/R01/reac02prodE04/conf06/R01_reac02prodE04_conf06_gfn1.xyz --opt --vfukui --chrg -1 --uhf 0 --alpb DMSO

   ID    Z sym.   atoms
    1    6 C      1, 3, 5, 6, 8, 11-14, 17
    2    8 O      2, 4, 7, 9
    3    7 N      10, 15, 16
    4    1 H      18-33

      * Solvation model:               ALPB
        Solvent                        DMSO
        Solvent mass                       7.8130E+01 g/mol
          :  Hamiltonian                  GFN1-xTB          :
 * total energy  :   -58.4700588 Eh     change       -0.1990728E-08 Eh
 * total energy  :   -58.4850053 Eh     change       -0.1494654E-01 Eh
 * total energy  :   -58.4940146 Eh     change       -0.9009273E-02 Eh
 * total energy  :   -58.4963168 Eh     change       -0.2302255E-02 Eh
 * total energy  :   -58.4990463 Eh     change       -0.2729440E-02 Eh
 * total energy  :   -58.5004530 Eh     change       -0.1406711E-02 Eh
 * total energy  :   -58.5019712 Eh     change       -0.1518209E-02 Eh
 * total energy  :   -58.5033216 Eh     change       -0.1350367E-02 Eh
 * total energy  :   -58.5044052 Eh     change       -0.1083625E-02 Eh
 * total energy  :   -58.5051666 Eh     change       -0.7614315E-03 Eh
 * total energy  :   -58.5074715 Eh     change       -0.1641514E-04 Eh
 * total energy  :   -58.5074906 Eh     change       -0.1902111E-04 Eh
 * total energy  :   -58.5075119 Eh     change       -0.2136282E-04 Eh
 * total energy  :   -58.5075216 Eh     change       -0.9718368E-05 Eh
 * total energy  :   -58.5075372 Eh     change       -0.1553876E-04 Eh
 * total energy  :   -58.5075496 Eh     change       -0.1239602E-04 Eh
 * total energy  :   -58.5075569 Eh     change       -0.7308436E-05 Eh
 * total energy  :   -58.5075621 Eh     change       -0.5205018E-05 Eh
 * total energy  :   -58.5075649 Eh     change       -0.2843021E-05 Eh
   *** GEOMETRY OPTIMIZATION CONVERGED AFTER 34 ITERATIONS ***

 final structure:
================
33
 xtb: 6.5.1 (579679a)
C            4.79435131961267        0.79177896610301        0.57279912905945
O            3.67150715747155        0.57672208789934       -0.25818052916410
C            2.49692219823058        0.18473799559027        0.43684598915189
O            2.55200093942858        0.09589810693537        1.69037633134423
C            1.44455542858286       -0.08846921001415       -0.41370325968625
C            1.42975820022674        0.12617116755978       -1.87808552869757
O            2.49963444402215       -0.39861663150792       -2.64457829434764
C            0.33736494051383        0.65271963774503       -2.47582711230532
O           -0.01784573987141        0.89276429247148       -3.66156884138254
N           -0.71889413037131        0.98451359295615       -1.43516655441983
C           -0.92245337488915        0.14502909710304       -0.41067352244812
C           -2.36657866128124        0.02140868007045        0.08725704262203
C           -2.53589268915984        0.94123736238542        1.30518874402484
C           -2.81718301455375       -1.41061784686287        0.41635618755667
N           -3.23677993903400        0.53684878544971       -0.97632722267396
N            0.14446815506062       -0.38892838565556        0.14648642275576
C            0.09116250292820       -1.37079465885079        1.22449231346759
H            5.62293582456238        1.09860726888877       -0.06779815627137
H            5.07515993128762       -0.12308191540746        1.11037521548792
H            4.60055378034210        1.58060425862841        1.31149778454376
H            3.32877757600038       -0.17100291685135       -2.19684790401196
H           -1.57552991469994        1.32295597022946       -1.86401215102919
H           -3.55471788329755        0.86725234347251        1.68153101972787
H           -1.85109414769974        0.66193889637622        2.10414371462513
H           -2.34114666709070        1.97463125823212        1.01875478922181
H           -2.48953189773452       -1.72675006025725        1.40361091410080
H           -2.45044465685288       -2.11439712797683       -0.32948545278075
H           -3.90604947937148       -1.43839389776324        0.40826417990530
H           -4.10315830127823        0.85151681945166       -0.56715660079724
H           -3.46840096585242       -0.21355738435798       -1.61433870891827
H           -0.29816259998568       -2.31813372428843        0.84998262065411
H            1.09694201358282       -1.53270878903376        1.60861112696994
H           -0.53222834882842       -1.01188403871888        2.04073731371806

          :  Hamiltonian                  GFN1-xTB          :
         :: total energy             -58.507564924483 Eh    ::
         :: gradient norm              0.000333420647 Eh/a0 ::
         :: HOMO-LUMO gap              1.047678466227 eV    ::
         :: SCC energy               -59.050592196782 Eh    ::
         :: -> Gsolv                  -0.126399758093 Eh    ::
         :: repulsion energy           0.562646525656 Eh    ::

    * Orbital Energies and Occupations

         #    Occupation            Energy/Eh            Energy/eV
      -------------------------------------------------------------
         1        2.0000           -0.7827622             -21.3000
       ...           ...                  ...                  ...
        36        2.0000           -0.4842117             -13.1761
        37        2.0000           -0.4740214             -12.8988
        38        2.0000           -0.4721091             -12.8467
        39        2.0000           -0.4633945             -12.6096
        40        2.0000           -0.4579169             -12.4606
        41        2.0000           -0.4343139             -11.8183
        42        2.0000           -0.4308686             -11.7245
        43        2.0000           -0.4134773             -11.2513
        44        2.0000           -0.4075232             -11.0893
        45        2.0000           -0.3958595             -10.7719
        46        2.0000           -0.3748547             -10.2003
        47        2.0000           -0.3508095              -9.5460
        48        2.0000           -0.2877713              -7.8307 (HOMO)
        49                         -0.2492698              -6.7830 (LUMO)
        50                         -0.1555980              -4.2340
        51                         -0.1326871              -3.6106
        52                         -0.1216703              -3.3108
        53                         -0.1120319              -3.0485
        54                         -0.1083460              -2.9482
        55                         -0.1047929              -2.8516
        56                         -0.0884543              -2.4070
        57                         -0.0794699              -2.1625
        58                         -0.0679049              -1.8478
        59                         -0.0500731              -1.3626
       ...                                ...                  ...
       100                          0.7754645              21.1015
      -------------------------------------------------------------
                  HL-Gap            0.0385015 Eh            1.0477 eV

Wiberg/Mayer (AO) data.
largest (>0.10) Wiberg bond orders for each atom

     #   Z sym  total        # sym  WBO       # sym  WBO       # sym  WBO
 ---------------------------------------------------------------------------
     1   6 C    3.917 --    18 H    0.987    19 H    0.981    20 H    0.981
                             2 O    0.948
     2   8 O    2.066 --     1 C    0.948     3 C    0.909
     3   6 C    3.879 --     5 C    1.440     4 O    1.388     2 O    0.909
     4   8 O    1.743 --     3 C    1.388     5 C    0.149
     5   6 C    3.750 --     3 C    1.440     6 C    1.025    16 N    0.927
                             4 O    0.149
     6   6 C    3.814 --     8 C    1.577     5 C    1.025     7 O    0.939
                             9 O    0.189
     7   8 O    1.903 --     6 C    0.939    21 H    0.863
     8   6 C    3.894 --     6 C    1.577     9 O    1.371    10 N    0.793
     9   8 O    1.709 --     8 C    1.371     6 C    0.189
    10   7 N    3.317 --    11 C    1.300    22 H    0.897     8 C    0.793
                            16 N    0.139
    11   6 C    3.934 --    16 N    1.430    10 N    1.300    12 C    0.968
    12   6 C    3.967 --    14 C    0.989    13 C    0.986    15 N    0.985
                            11 C    0.968
    13   6 C    3.995 --    12 C    0.986    25 H    0.985    23 H    0.984
                            24 H    0.981
    14   6 C    3.993 --    12 C    0.989    27 H    0.985    28 H    0.982
                            26 H    0.981
    15   7 N    2.989 --    12 C    0.985    30 H    0.944    29 H    0.943
    16   7 N    3.532 --    11 C    1.430    17 C    0.944     5 C    0.927
                            10 N    0.139
    17   6 C    3.948 --    31 H    0.979    33 H    0.978    32 H    0.972
                            16 N    0.944
    18   1 H    1.019 --     1 C    0.987
    19   1 H    1.021 --     1 C    0.981
    20   1 H    1.023 --     1 C    0.981
    21   1 H    0.914 --     7 O    0.863
    22   1 H    0.983 --    10 N    0.897
    23   1 H    1.001 --    13 C    0.984
    24   1 H    1.005 --    13 C    0.981
    25   1 H    1.004 --    13 C    0.985
    26   1 H    1.006 --    14 C    0.981
    27   1 H    1.003 --    14 C    0.985
    28   1 H    1.004 --    14 C    0.982
    29   1 H    0.958 --    15 N    0.943
    30   1 H    0.958 --    15 N    0.944
    31   1 H    1.008 --    17 C    0.979
    32   1 H    1.026 --    17 C    0.972
    33   1 H    1.011 --    17 C    0.978
 ---------------------------------------------------------------------------

           -------------------------------------------------
          | TOTAL ENERGY              -58.507564924483 Eh   |
          | GRADIENT NORM               0.000333420647 Eh/α |
          | HOMO-LUMO GAP               1.047678466227 eV   |
           -------------------------------------------------

 * finished run on 2023/06/20 at 14:59:03.881
