   * xtb version 6.5.1 (579679a) compiled by 'ehlert@majestix' on 2022-07-11
          program call               : /lustre/hpc/kemi/ree/PhD/git/ReactivityQM/dep/xtb-6.5.1/bin/xtb --gfn 1 /lustre/hpc/kemi/ree/PhD/git/ReactivityQM/calculations/R03/reac02prodE06/conf10/R03_reac02prodE06_conf10_gfn1.xyz --opt --vfukui --chrg -1 --uhf 0 --alpb DMSO

   ID    Z sym.   atoms
    1    6 C      1, 3, 5, 6, 8, 11-16, 18, 20, 23, 24
    2    8 O      2, 4, 7, 9, 19, 25
    3    7 N      10, 17, 21, 22, 26
    4    1 H      27-46

      * Solvation model:               ALPB
        Solvent                        DMSO
        Solvent mass                       7.8130E+01 g/mol
          :  Hamiltonian                  GFN1-xTB          :
 * total energy  :   -87.0428531 Eh     change       -0.6120615E-10 Eh
 * total energy  :   -87.0543769 Eh     change       -0.1152388E-01 Eh
 * total energy  :   -87.0591424 Eh     change       -0.4765481E-02 Eh
 * total energy  :   -87.0603657 Eh     change       -0.1223292E-02 Eh
 * total energy  :   -87.0612912 Eh     change       -0.9254418E-03 Eh
 * total energy  :   -87.0616536 Eh     change       -0.3624117E-03 Eh
 * total energy  :   -87.0618874 Eh     change       -0.2338803E-03 Eh
 * total energy  :   -87.0621058 Eh     change       -0.2183689E-03 Eh
 * total energy  :   -87.0623093 Eh     change       -0.2034705E-03 Eh
 * total energy  :   -87.0625032 Eh     change       -0.1939460E-03 Eh
 * total energy  :   -87.0634730 Eh     change       -0.2383730E-04 Eh
 * total energy  :   -87.0634880 Eh     change       -0.1495727E-04 Eh
 * total energy  :   -87.0634957 Eh     change       -0.7734635E-05 Eh
 * total energy  :   -87.0635017 Eh     change       -0.5989423E-05 Eh
 * total energy  :   -87.0635088 Eh     change       -0.7127432E-05 Eh
 * total energy  :   -87.0635167 Eh     change       -0.7866614E-05 Eh
 * total energy  :   -87.0635237 Eh     change       -0.6989175E-05 Eh
 * total energy  :   -87.0635310 Eh     change       -0.7289996E-05 Eh
 * total energy  :   -87.0635348 Eh     change       -0.3793822E-05 Eh
   *** GEOMETRY OPTIMIZATION CONVERGED AFTER 44 ITERATIONS ***

 final structure:
================
46
 xtb: 6.5.1 (579679a)
C           -1.41995788002937        3.70912318735225       -1.98183442193349
O           -1.40646631131432        2.37957840909923       -1.47147860012023
C           -2.21822925121528        2.14083238545700       -0.42829816265855
O           -2.90710455983828        3.03213804718093        0.04844657799632
C           -2.17841086712916        0.74342833506375        0.05297796645752
C           -3.02559579969102        0.33341111091203        1.07865641506180
O           -3.89450485151144        1.18529595283295        1.74736812857189
C           -3.16960537143361       -1.06851662905870        1.36137269710725
O           -4.06746181772823       -1.55471401496708        2.07174026231626
N           -2.24071739904904       -1.89742017371682        0.74468578697030
C           -2.53356013360209       -3.32803737044267        0.77042092264592
C           -1.13064566069659       -1.39694068949889       -0.07591837187690
C           -0.92981411854725       -2.28166956435786       -1.32205722555569
C            0.21914608124014       -1.33626558831480        0.78118095936816
C            0.89437842400919       -2.69373602365048        1.00008648031694
C           -0.02364816408457       -0.66737850459972        2.14102577210036
N            1.09945478805384       -0.47921889018889       -0.01757952370758
C            2.37198034820360       -0.17715004621121        0.25204488876379
O            3.05402520972609       -0.62758953130150        1.16474289408162
C            2.90990749595263        0.79262810525664       -0.74792438255171
N            2.24811041178938        1.34481598082528       -1.71932568251524
N            3.12439887376680        2.15396894132296       -2.38402468776576
C            4.26330631815695        2.04293754150831       -1.77471533632041
C            5.53756588116361        2.71526644892938       -2.11349970306433
O            4.19491280933386        1.19981186854169       -0.73245953773908
N           -1.34506795198048       -0.07019069706758       -0.59699219969806
H           -0.72390324143496        3.73672062806529       -2.81879258740145
H           -2.42424585267321        3.97694171684775       -2.32212296391550
H           -1.10648317350693        4.41824116992853       -1.21042381789795
H           -3.80719876515216        2.08307862658364        1.37638157615315
H           -3.07592454650322       -3.63827264331291       -0.12873523448883
H           -3.15412116379095       -3.53939134122526        1.64343857343923
H           -1.62005475005652       -3.91415323741032        0.84917735383913
H           -0.10573732198617       -1.87259064515915       -1.90448404216287
H           -0.71016040343201       -3.31913303636665       -1.08583230692552
H           -1.83226909100444       -2.24009872983264       -1.93072990768950
H            0.21790488013279       -3.37432318349599        1.51219383519789
H            1.20145843582238       -3.13798183574367        0.05541237036182
H            1.78082372851906       -2.57260328683465        1.62236642022178
H           -0.44313870819116        0.32924915576444        2.00927517217033
H            0.91754410053670       -0.58210086350908        2.68361123667081
H           -0.71246895797040       -1.27049039598201        2.73108700205962
H            0.59353759810212        0.07931309165202       -0.71188739286528
H            6.30617798233797        1.97266648574365       -2.32594423190124
H            5.87698875640641        3.32082377662355       -1.27359350775650
H            5.39487299030726        3.34969795676536       -2.98455046336998

          :  Hamiltonian                  GFN1-xTB          :
         :: total energy             -87.063534771475 Eh    ::
         :: gradient norm              0.000345813265 Eh/a0 ::
         :: HOMO-LUMO gap              0.756384213973 eV    ::
         :: SCC energy               -87.851114554485 Eh    ::
         :: -> Gsolv                  -0.106616022763 Eh    ::
         :: repulsion energy           0.819240842319 Eh    ::

    * Orbital Energies and Occupations

         #    Occupation            Energy/Eh            Energy/eV
      -------------------------------------------------------------
         1        2.0000           -0.8531742             -23.2161
       ...           ...                  ...                  ...
        59        2.0000           -0.4739721             -12.8974
        60        2.0000           -0.4709466             -12.8151
        61        2.0000           -0.4650404             -12.6544
        62        2.0000           -0.4499175             -12.2429
        63        2.0000           -0.4479577             -12.1895
        64        2.0000           -0.4441971             -12.0872
        65        2.0000           -0.4375991             -11.9077
        66        2.0000           -0.4305323             -11.7154
        67        2.0000           -0.4226267             -11.5003
        68        2.0000           -0.4010593             -10.9134
        69        2.0000           -0.3931255             -10.6975
        70        2.0000           -0.3737879             -10.1713
        71        2.0000           -0.3218603              -8.7583 (HOMO)
        72        0.0000           -0.2940637              -8.0019 (LUMO)
        73                         -0.2721324              -7.4051
        74                         -0.2479223              -6.7463
        75                         -0.1908781              -5.1941
        76                         -0.1829196              -4.9775
        77                         -0.1392129              -3.7882
        78                         -0.1280125              -3.4834
        79                         -0.1249920              -3.4012
        80                         -0.1167791              -3.1777
        81                         -0.1080934              -2.9414
        82                         -0.1027349              -2.7956
       ...                                ...                  ...
       144                          0.7318475              19.9146
      -------------------------------------------------------------
                  HL-Gap            0.0277966 Eh            0.7564 eV

Wiberg/Mayer (AO) data.
largest (>0.10) Wiberg bond orders for each atom

     #   Z sym  total        # sym  WBO       # sym  WBO       # sym  WBO
 ---------------------------------------------------------------------------
     1   6 C    3.889 --    27 H    0.987    28 H    0.980    29 H    0.980
                             2 O    0.914
     2   8 O    2.190 --     3 C    1.091     1 C    0.914     4 O    0.117
     3   6 C    3.822 --     4 O    1.596     2 O    1.091     5 C    1.029
     4   8 O    1.919 --     3 C    1.596     2 O    0.117
     5   6 C    3.971 --    26 N    1.360     6 C    1.352     3 C    1.029
     6   6 C    3.880 --     5 C    1.352     8 C    1.148     7 O    0.998
                            26 N    0.184
     7   8 O    1.968 --     6 C    0.998    30 H    0.825
     8   6 C    3.917 --     9 O    1.481     6 C    1.148    10 N    1.127
     9   8 O    1.802 --     8 C    1.481    10 N    0.126
    10   7 N    3.290 --     8 C    1.127    11 C    0.958    12 C    0.926
                             9 O    0.126
    11   6 C    3.961 --    31 H    0.982    33 H    0.981    32 H    0.977
                            10 N    0.958
    12   6 C    3.943 --    26 N    1.016    13 C    0.990    10 N    0.926
                            14 C    0.914
    13   6 C    3.996 --    12 C    0.990    34 H    0.984    36 H    0.983
                            35 H    0.983
    14   6 C    3.922 --    15 C    1.000    16 C    0.993    17 N    0.922
                            12 C    0.914
    15   6 C    3.995 --    14 C    1.000    38 H    0.984    37 H    0.980
                            39 H    0.978
    16   6 C    3.995 --    14 C    0.993    42 H    0.985    41 H    0.984
                            40 H    0.983
    17   7 N    3.388 --    18 C    1.303    14 C    0.922    43 H    0.863
                            19 O    0.187
    18   6 C    3.924 --    19 O    1.555    17 N    1.303    20 C    0.980
    19   8 O    1.878 --    18 C    1.555    17 N    0.187
    20   6 C    3.867 --    21 N    1.618    25 O    1.058    18 C    0.980
    21   7 N    3.007 --    20 C    1.618    22 N    1.190
    22   7 N    2.980 --    23 C    1.617    21 N    1.190
    23   6 C    3.874 --    22 N    1.617    25 O    1.079    24 C    1.030
    24   6 C    3.988 --    23 C    1.030    46 H    0.983    44 H    0.965
                            45 H    0.965
    25   8 O    2.321 --    23 C    1.079    20 C    1.058
    26   7 N    2.924 --     5 C    1.360    12 C    1.016     6 C    0.184
    27   1 H    1.014 --     1 C    0.987
    28   1 H    1.011 --     1 C    0.980
    29   1 H    1.012 --     1 C    0.980
    30   1 H    0.889 --     7 O    0.825
    31   1 H    1.006 --    11 C    0.982
    32   1 H    1.021 --    11 C    0.977
    33   1 H    1.015 --    11 C    0.981
    34   1 H    1.013 --    13 C    0.984
    35   1 H    1.006 --    13 C    0.983
    36   1 H    1.013 --    13 C    0.983
    37   1 H    1.007 --    15 C    0.980
    38   1 H    1.006 --    15 C    0.984
    39   1 H    1.015 --    15 C    0.978
    40   1 H    1.013 --    16 C    0.983
    41   1 H    1.009 --    16 C    0.984
    42   1 H    1.009 --    16 C    0.985
    43   1 H    0.986 --    17 N    0.863
    44   1 H    0.998 --    24 C    0.965
    45   1 H    0.998 --    24 C    0.965
    46   1 H    1.000 --    24 C    0.983
 ---------------------------------------------------------------------------

           -------------------------------------------------
          | TOTAL ENERGY              -87.063534771475 Eh   |
          | GRADIENT NORM               0.000345813265 Eh/α |
          | HOMO-LUMO GAP               0.756384213973 eV   |
           -------------------------------------------------

 * finished run on 2023/06/20 at 15:20:20.428
