   * xtb version 6.5.1 (579679a) compiled by 'ehlert@majestix' on 2022-07-11
          program call               : /lustre/hpc/kemi/ree/PhD/git/ReactivityQM/dep/xtb-6.5.1/bin/xtb --gfn 1 /lustre/hpc/kemi/ree/PhD/git/ReactivityQM/calculations/R02oxygendeprot/reac01prodE06/conf11/R02oxygendeprot_reac01prodE06_conf11_gfn1.xyz --opt --vfukui --chrg -2 --uhf 0 --alpb DMSO

   ID    Z sym.   atoms
    1    6 C      1, 3, 5, 6, 8, 11-15, 17, 19, 22, 23
    2    8 O      2, 4, 7, 9, 18, 24
    3    7 N      10, 16, 20, 21, 25
    4    1 H      26-42

      * Solvation model:               ALPB
        Solvent                        DMSO
        Solvent mass                       7.8130E+01 g/mol
          :  Hamiltonian                  GFN1-xTB          :
 * total energy  :   -83.6053406 Eh     change       -0.3104077E-09 Eh
 * total energy  :   -83.6172305 Eh     change       -0.1188997E-01 Eh
 * total energy  :   -83.6214755 Eh     change       -0.4244960E-02 Eh
 * total energy  :   -83.6224464 Eh     change       -0.9709011E-03 Eh
 * total energy  :   -83.6230317 Eh     change       -0.5853098E-03 Eh
 * total energy  :   -83.6232946 Eh     change       -0.2628793E-03 Eh
 * total energy  :   -83.6234785 Eh     change       -0.1839611E-03 Eh
 * total energy  :   -83.6236128 Eh     change       -0.1342617E-03 Eh
 * total energy  :   -83.6237333 Eh     change       -0.1204746E-03 Eh
 * total energy  :   -83.6238411 Eh     change       -0.1078573E-03 Eh
 * total energy  :   -83.6244526 Eh     change       -0.6368407E-05 Eh
 * total energy  :   -83.6244627 Eh     change       -0.1001761E-04 Eh
 * total energy  :   -83.6244703 Eh     change       -0.7673336E-05 Eh
 * total energy  :   -83.6244752 Eh     change       -0.4890197E-05 Eh
 * total energy  :   -83.6244807 Eh     change       -0.5429501E-05 Eh
 * total energy  :   -83.6244854 Eh     change       -0.4718854E-05 Eh
 * total energy  :   -83.6244914 Eh     change       -0.6024480E-05 Eh
 * total energy  :   -83.6244973 Eh     change       -0.5928871E-05 Eh
 * total energy  :   -83.6245006 Eh     change       -0.3299756E-05 Eh
   *** GEOMETRY OPTIMIZATION CONVERGED AFTER 44 ITERATIONS ***

 final structure:
================
42
 xtb: 6.5.1 (579679a)
C           -4.81665045533165        3.01828394748827       -0.74110364476234
O           -4.08299676160703        2.15029904074624        0.10117515172192
C           -3.21195155504134        1.30342173771829       -0.53574710446232
O           -3.10866584043949        1.36143650243282       -1.76414785247641
C           -2.46439455353712        0.40152598188664        0.32990466654854
C           -2.58718501450881        0.42385624992609        1.75320106140393
O           -3.45410588499642        1.07498971891332        2.41706716375208
C           -1.54601725778232       -0.34755894270973        2.48871412790807
O           -1.38406792692716       -0.31361280780974        3.71815457476685
N           -0.63522538283713       -1.04821783367249        1.71911236499226
C           -0.97849703144420       -1.46346854108480        0.36036920797714
C           -1.92385539372139       -2.69165812894356        0.44372327704110
C            0.34965415342462       -1.79420250217410       -0.40362176688603
C            1.14130125609505       -2.95604763326132        0.21306516065370
C            0.04435986870853       -2.09907625370649       -1.87654920205687
N            1.13067336917340       -0.56070278032579       -0.31344270621742
C            2.39853796625285       -0.40020830084047       -0.78822276639235
O            2.97369612291602       -1.19505622127630       -1.55084090671245
C            2.98017036019027        0.85072313797298       -0.32863867443325
N            2.39900388471729        1.73958453639079        0.45935491154855
N            3.29518949181721        2.75919233065201        0.62621557163531
C            4.35278293748798        2.44863832597922       -0.04976784887349
C            5.59946722100431        3.24113793791531       -0.17612412080582
O            4.23791546002052        1.26217459740629       -0.68452982315399
N           -1.61117377015967       -0.40343045196934       -0.36296382396063
H           -4.14994770596579        3.67844739131959       -1.30794286646569
H           -5.42910353652155        2.45233535490063       -1.45215966822442
H           -5.46512032926472        3.61913923339190       -0.10317926580255
H           -0.08484577928658       -1.70859518515335        2.24565329034234
H           -1.45942530898200       -3.50852959722664        0.99138815766842
H           -2.83489570417767       -2.39804677449927        0.96511288341552
H           -2.19031560847435       -3.03135656921172       -0.55449368785330
H            0.56021047213809       -3.87514951550346        0.17470726912020
H            2.06230686244809       -3.11304690567035       -0.34788183649262
H            1.40296308256947       -2.74750903542525        1.24939015066117
H           -0.58405718694698       -1.30982014368287       -2.29329237616161
H            0.96768809616278       -2.16375253059486       -2.45003950338552
H           -0.47731252558265       -3.05070668862832       -1.96351258181290
H            0.83918665473942        0.07786189373779        0.42214796776485
H            5.52645766510292        4.13409034608070        0.43952980571826
H            6.45694208829857        2.65026300927189        0.14407412860304
H            5.76130250027323        3.53235606924260       -1.21385686585967

          :  Hamiltonian                  GFN1-xTB          :
         :: total energy             -83.624500626753 Eh    ::
         :: gradient norm              0.000358687661 Eh/a0 ::
         :: HOMO-LUMO gap              0.084731661977 eV    ::
         :: SCC energy               -84.346424022140 Eh    ::
         :: -> Gsolv                  -0.281530371635 Eh    ::
         :: repulsion energy           0.749104759456 Eh    ::

    * Orbital Energies and Occupations

         #    Occupation            Energy/Eh            Energy/eV
      -------------------------------------------------------------
         1        2.0000           -0.8189226             -22.2840
       ...           ...                  ...                  ...
        56        2.0000           -0.4440952             -12.0844
        57        2.0000           -0.4407907             -11.9945
        58        2.0000           -0.4210578             -11.4576
        59        2.0000           -0.4188468             -11.3974
        60        2.0000           -0.4152297             -11.2990
        61        2.0000           -0.4087067             -11.1215
        62        2.0000           -0.4049359             -11.0189
        63        2.0000           -0.3978273             -10.8254
        64        2.0000           -0.3924100             -10.6780
        65        2.0000           -0.3811566             -10.3718
        66        2.0000           -0.3651582              -9.9365
        67        2.0000           -0.3351652              -9.1203
        68        1.6747           -0.2761736              -7.5151 (HOMO)
        69        0.3253           -0.2730597              -7.4303 (LUMO)
        70                         -0.2395088              -6.5174
        71                         -0.2230084              -6.0684
        72                         -0.1664754              -4.5300
        73                         -0.1525878              -4.1521
        74                         -0.1301368              -3.5412
        75                         -0.1138116              -3.0970
        76                         -0.1080332              -2.9397
        77                         -0.1006777              -2.7396
        78                         -0.0874441              -2.3795
        79                         -0.0840074              -2.2860
       ...                                ...                  ...
       134                          0.7359775              20.0270
      -------------------------------------------------------------
                  HL-Gap            0.0031138 Eh            0.0847 eV

Wiberg/Mayer (AO) data.
largest (>0.10) Wiberg bond orders for each atom

     #   Z sym  total        # sym  WBO       # sym  WBO       # sym  WBO
 ---------------------------------------------------------------------------
     1   6 C    3.912 --    28 H    0.987    26 H    0.980    27 H    0.980
                             2 O    0.940
     2   8 O    2.135 --     3 C    1.014     1 C    0.940     4 O    0.100
     3   6 C    3.814 --     4 O    1.545     5 C    1.116     2 O    1.014
     4   8 O    1.813 --     3 C    1.545     2 O    0.100
     5   6 C    3.914 --    25 N    1.280     6 C    1.228     3 C    1.116
     6   6 C    3.871 --     7 O    1.407     5 C    1.228     8 C    1.015
     7   8 O    1.652 --     6 C    1.407
     8   6 C    3.857 --     9 O    1.531    10 N    1.139     6 C    1.015
     9   8 O    1.792 --     8 C    1.531    10 N    0.122
    10   7 N    3.242 --     8 C    1.139    11 C    0.926    29 H    0.917
                             9 O    0.122
    11   6 C    3.942 --    25 N    1.025    12 C    0.964    13 C    0.947
                            10 N    0.926
    12   6 C    3.975 --    30 H    0.984    31 H    0.984    32 H    0.983
                            11 C    0.964
    13   6 C    3.933 --    15 C    0.997    14 C    0.994    11 C    0.947
                            16 N    0.931
    14   6 C    3.993 --    13 C    0.994    33 H    0.984    35 H    0.982
                            34 H    0.980
    15   6 C    3.994 --    13 C    0.997    38 H    0.985    37 H    0.982
                            36 H    0.980
    16   7 N    3.269 --    17 C    1.196    13 C    0.931    39 H    0.902
                            18 O    0.145
    17   6 C    3.828 --    18 O    1.476    16 N    1.196    19 C    1.075
    18   8 O    1.754 --    17 C    1.476    16 N    0.145
    19   6 C    3.736 --    20 N    1.473    17 C    1.075    24 O    1.003
    20   7 N    2.841 --    19 C    1.473    21 N    1.184
    21   7 N    2.980 --    22 C    1.627    20 N    1.184
    22   6 C    3.836 --    21 N    1.627    24 O    1.060    23 C    1.026
    23   6 C    3.992 --    22 C    1.026    40 H    0.985    41 H    0.970
                            42 H    0.969
    24   8 O    2.224 --    22 C    1.060    19 C    1.003
    25   7 N    2.654 --     5 C    1.280    11 C    1.025
    26   1 H    1.018 --     1 C    0.980
    27   1 H    1.018 --     1 C    0.980
    28   1 H    1.018 --     1 C    0.987
    29   1 H    0.969 --    10 N    0.917
    30   1 H    1.006 --    12 C    0.984
    31   1 H    1.011 --    12 C    0.984
    32   1 H    1.012 --    12 C    0.983
    33   1 H    1.007 --    14 C    0.984
    34   1 H    1.015 --    14 C    0.980
    35   1 H    1.006 --    14 C    0.982
    36   1 H    1.035 --    15 C    0.980
    37   1 H    1.019 --    15 C    0.982
    38   1 H    1.008 --    15 C    0.985
    39   1 H    0.992 --    16 N    0.902
    40   1 H    1.003 --    23 C    0.985
    41   1 H    1.000 --    23 C    0.970
    42   1 H    1.000 --    23 C    0.969
 ---------------------------------------------------------------------------

           -------------------------------------------------
          | TOTAL ENERGY              -83.624500626753 Eh   |
          | GRADIENT NORM               0.000358687661 Eh/α |
          | HOMO-LUMO GAP               0.084731661977 eV   |
           -------------------------------------------------

 * finished run on 2023/06/21 at 17:07:49.758
