   * xtb version 6.5.1 (579679a) compiled by 'ehlert@majestix' on 2022-07-11
          program call               : /lustre/hpc/kemi/ree/PhD/git/ReactivityQM/dep/xtb-6.5.1/bin/xtb --gfn 1 /lustre/hpc/kemi/ree/PhD/git/ReactivityQM/calculations/R02methylcation/reac01prodN03/conf17/R02methylcation_reac01prodN03_conf17_gfn1.xyz --opt --vfukui --chrg 0 --uhf 0 --alpb DMSO

   ID    Z sym.   atoms
    1    6 C      1, 3, 5, 6, 8-11, 13, 15, 18, 19, 22, 24
    2    8 O      2, 4, 14, 20, 23, 25
    3    7 N      7, 12, 16, 17, 21
    4    1 H      26-42

      * Solvation model:               ALPB
        Solvent                        DMSO
        Solvent mass                       7.8130E+01 g/mol
          :  Hamiltonian                  GFN1-xTB          :
 * total energy  :   -82.9825535 Eh     change       -0.7432277E-11 Eh
 * total energy  :   -82.9946307 Eh     change       -0.1207712E-01 Eh
 * total energy  :   -82.9992102 Eh     change       -0.4579507E-02 Eh
 * total energy  :   -83.0001000 Eh     change       -0.8898569E-03 Eh
 * total energy  :   -83.0005512 Eh     change       -0.4512170E-03 Eh
 * total energy  :   -83.0007291 Eh     change       -0.1778177E-03 Eh
 * total energy  :   -83.0008663 Eh     change       -0.1372230E-03 Eh
 * total energy  :   -83.0009862 Eh     change       -0.1199317E-03 Eh
 * total energy  :   -83.0010947 Eh     change       -0.1084672E-03 Eh
 * total energy  :   -83.0011886 Eh     change       -0.9386821E-04 Eh
 * total energy  :   -83.0016336 Eh     change       -0.8620237E-05 Eh
 * total energy  :   -83.0016420 Eh     change       -0.8462874E-05 Eh
 * total energy  :   -83.0016510 Eh     change       -0.8963317E-05 Eh
 * total energy  :   -83.0016604 Eh     change       -0.9383065E-05 Eh
 * total energy  :   -83.0016691 Eh     change       -0.8775788E-05 Eh
 * total energy  :   -83.0016771 Eh     change       -0.7923989E-05 Eh
 * total energy  :   -83.0016837 Eh     change       -0.6634367E-05 Eh
 * total energy  :   -83.0016898 Eh     change       -0.6084342E-05 Eh
 * total energy  :   -83.0016946 Eh     change       -0.4862461E-05 Eh
   *** GEOMETRY OPTIMIZATION CONVERGED AFTER 37 ITERATIONS ***

 final structure:
================
42
 xtb: 6.5.1 (579679a)
C           -6.03074487657038        0.31688165344388       -0.99192539546596
O           -5.07404527702076        0.01459825803601        0.03690822344737
C           -3.80185292545863        0.13208339053081       -0.27431449795365
O           -3.37393238969005        0.48329200467094       -1.34145403084659
C           -2.87738361451788       -0.20466065149373        0.93335612062511
C           -3.55356504870941       -1.15186954519451        1.92365156428634
N           -1.71033190793666       -0.83653421264687        0.36261441365015
C           -0.73613462007698       -0.13671291477420       -0.04384092143420
C            0.40414283829562       -0.78452838611238       -0.79872370369743
C            0.40430228054079       -2.29816160851091       -0.57017002242001
C            0.21764911561375       -0.44559498956036       -2.28566784377778
N            1.65038997251583       -0.20152712210185       -0.29221185183533
C            2.86624124197994       -0.50342896277952       -0.80813513928353
O            3.06809982711876       -1.14512366660235       -1.82108632760272
C            3.94566600535893        0.07763264108453        0.03008686424096
N            3.78087078721493        0.74626232920059        1.13225504440982
N            5.02336175019207        1.07535049312583        1.58139391870532
C            5.86831213499952        0.58444620357275        0.72520470458328
C            7.34464088153403        0.66893824519838        0.76345022457118
O            5.24828341278297       -0.05714976796094       -0.27574164212867
N           -0.65061553212230        1.24261368967160        0.10884129987059
C           -1.48867770209164        1.97670696563209        0.89179454789287
O           -1.35284413885211        3.16680439633389        1.06153440907826
C           -2.60108281211835        1.15363425433462        1.55515840664067
O           -3.23619680427342        1.58889184234477        2.47881723513933
H           -5.95231838679467        1.36937349187075       -1.27042818148284
H           -7.01035241858127        0.10320603031242       -0.57104299183455
H           -5.84277743549333       -0.30948375511919       -1.86563474431624
H           -4.41220918850842       -0.66274656608992        2.37952994737869
H           -2.84131691399421       -1.42277266696624        2.70072209001482
H           -3.87940579854651       -2.05224736436160        1.40834101909699
H            1.21256301255378       -2.75773228983519       -1.13575069120533
H            0.53698848157998       -2.51564348703026        0.48817659593801
H           -0.54672757887664       -2.71337566731538       -0.89894530450942
H            0.35814566011525        0.62168392067167       -2.44645113914968
H            0.93579923841688       -0.99438853802941       -2.89104377681930
H           -0.79146217396582       -0.72125526720785       -2.58988754699063
H            1.63469952448901        0.21694557563197        0.62627126781064
H            7.77442471179635       -0.33259073834013        0.77519817124902
H            7.71126066735222        1.18278430307239       -0.12520354557999
H            7.65690009330276        1.21113406983739        1.65261193450134
H            0.12123590644929        1.73234840945640       -0.31826070480623

          :  Hamiltonian                  GFN1-xTB          :
         :: total energy             -83.001694641904 Eh    ::
         :: gradient norm              0.000385430060 Eh/a0 ::
         :: HOMO-LUMO gap              2.395357107144 eV    ::
         :: SCC energy               -83.789596435069 Eh    ::
         :: -> Gsolv                  -0.050685767093 Eh    ::
         :: repulsion energy           0.814458489315 Eh    ::

    * Orbital Energies and Occupations

         #    Occupation            Energy/Eh            Energy/eV
      -------------------------------------------------------------
         1        2.0000           -0.8652607             -23.5449
       ...           ...                  ...                  ...
        55        2.0000           -0.5127270             -13.9520
        56        2.0000           -0.5076988             -13.8152
        57        2.0000           -0.5075611             -13.8114
        58        2.0000           -0.5026450             -13.6777
        59        2.0000           -0.4934079             -13.4263
        60        2.0000           -0.4845761             -13.1860
        61        2.0000           -0.4729084             -12.8685
        62        2.0000           -0.4659209             -12.6784
        63        2.0000           -0.4629543             -12.5976
        64        2.0000           -0.4606985             -12.5362
        65        2.0000           -0.4541620             -12.3584
        66        2.0000           -0.4507616             -12.2658
        67        2.0000           -0.4422536             -12.0343 (HOMO)
        68                         -0.3542258              -9.6390 (LUMO)
        69                         -0.3137774              -8.5383
        70                         -0.2986087              -8.1256
        71                         -0.2716114              -7.3909
        72                         -0.2582624              -7.0277
        73                         -0.2270403              -6.1781
        74                         -0.2016675              -5.4877
        75                         -0.1476845              -4.0187
        76                         -0.1426016              -3.8804
        77                         -0.1298782              -3.5342
        78                         -0.1266674              -3.4468
       ...                                ...                  ...
       134                          0.7575356              20.6136
      -------------------------------------------------------------
                  HL-Gap            0.0880278 Eh            2.3954 eV

Wiberg/Mayer (AO) data.
largest (>0.10) Wiberg bond orders for each atom

     #   Z sym  total        # sym  WBO       # sym  WBO       # sym  WBO
 ---------------------------------------------------------------------------
     1   6 C    3.852 --    27 H    0.985    28 H    0.980    26 H    0.979
                             2 O    0.874
     2   8 O    2.232 --     3 C    1.159     1 C    0.874     4 O    0.140
     3   6 C    3.845 --     4 O    1.695     2 O    1.159     5 C    0.864
     4   8 O    1.966 --     3 C    1.695     2 O    0.140
     5   6 C    3.964 --     6 C    0.983     7 N    0.980    24 C    0.948
                             3 C    0.864
     6   6 C    3.985 --    31 H    0.985     5 C    0.983    30 H    0.983
                            29 H    0.982
     7   7 N    3.028 --     8 C    1.761     5 C    0.980
     8   6 C    3.926 --     7 N    1.761    21 N    1.064     9 C    0.978
     9   6 C    3.933 --    10 C    0.990     8 C    0.978    11 C    0.975
                            12 N    0.923
    10   6 C    3.989 --     9 C    0.990    33 H    0.985    34 H    0.983
                            32 H    0.982
    11   6 C    3.987 --    37 H    0.984    35 H    0.984    36 H    0.977
                             9 C    0.975
    12   7 N    3.325 --    13 C    1.233     9 C    0.923    38 H    0.895
                            14 O    0.172
    13   6 C    3.915 --    14 O    1.608    12 N    1.233    15 C    0.990
    14   8 O    1.921 --    13 C    1.608    12 N    0.172
    15   6 C    3.876 --    16 N    1.608    20 O    1.065    13 C    0.990
    16   7 N    3.019 --    15 C    1.608    17 N    1.202
    17   7 N    2.981 --    18 C    1.602    16 N    1.202
    18   6 C    3.870 --    17 N    1.602    20 O    1.084    19 C    1.032
    19   6 C    3.986 --    18 C    1.032    41 H    0.983    39 H    0.963
                            40 H    0.963
    20   8 O    2.332 --    18 C    1.084    15 C    1.065
    21   7 N    3.430 --    22 C    1.187     8 C    1.064    42 H    0.881
                            23 O    0.149
    22   6 C    3.893 --    23 O    1.673    21 N    1.187    24 C    0.906
    23   8 O    1.958 --    22 C    1.673    21 N    0.149
    24   6 C    3.847 --    25 O    1.813     5 C    0.948    22 C    0.906
    25   8 O    2.028 --    24 C    1.813
    26   1 H    1.003 --     1 C    0.979
    27   1 H    1.007 --     1 C    0.985
    28   1 H    1.004 --     1 C    0.980
    29   1 H    1.008 --     6 C    0.982
    30   1 H    1.001 --     6 C    0.983
    31   1 H    1.003 --     6 C    0.985
    32   1 H    1.005 --    10 C    0.982
    33   1 H    1.004 --    10 C    0.985
    34   1 H    1.008 --    10 C    0.983
    35   1 H    1.000 --    11 C    0.984
    36   1 H    1.010 --    11 C    0.977
    37   1 H    1.003 --    11 C    0.984
    38   1 H    0.952 --    12 N    0.895
    39   1 H    0.996 --    19 C    0.963
    40   1 H    0.996 --    19 C    0.963
    41   1 H    0.998 --    19 C    0.983
    42   1 H    0.927 --    21 N    0.881
 ---------------------------------------------------------------------------

           -------------------------------------------------
          | TOTAL ENERGY              -83.001694641904 Eh   |
          | GRADIENT NORM               0.000385430060 Eh/α |
          | HOMO-LUMO GAP               2.395357107144 eV   |
           -------------------------------------------------

 * finished run on 2023/06/21 at 17:32:40.960
