   * xtb version 6.5.1 (579679a) compiled by 'ehlert@majestix' on 2022-07-11
          program call               : /lustre/hpc/kemi/ree/PhD/git/ReactivityQM/dep/xtb-6.5.1/bin/xtb --gfn 1 /lustre/hpc/kemi/ree/PhD/git/ReactivityQM/calculations/R01/reac02prodN04/conf04/R01_reac02prodN04_conf04_gfn1.xyz --opt --vfukui --chrg 1 --uhf 0 --alpb DMSO

   ID    Z sym.   atoms
    1    6 C      1, 3, 5, 6, 8, 11-14, 17
    2    8 O      2, 4, 7, 9
    3    7 N      10, 15, 16
    4    1 H      18-33

      * Solvation model:               ALPB
        Solvent                        DMSO
        Solvent mass                       7.8130E+01 g/mol
          :  Hamiltonian                  GFN1-xTB          :
 * total energy  :   -57.8324309 Eh     change       -0.2035705E-10 Eh
 * total energy  :   -57.8482276 Eh     change       -0.1579670E-01 Eh
 * total energy  :   -57.8533688 Eh     change       -0.5141147E-02 Eh
 * total energy  :   -57.8542702 Eh     change       -0.9014584E-03 Eh
 * total energy  :   -57.8546159 Eh     change       -0.3456694E-03 Eh
 * total energy  :   -57.8548156 Eh     change       -0.1997289E-03 Eh
 * total energy  :   -57.8551279 Eh     change       -0.3122684E-03 Eh
 * total energy  :   -57.8554789 Eh     change       -0.3509625E-03 Eh
 * total energy  :   -57.8559097 Eh     change       -0.4308625E-03 Eh
 * total energy  :   -57.8562447 Eh     change       -0.3350031E-03 Eh
 * total energy  :   -57.8579062 Eh     change       -0.2965440E-04 Eh
 * total energy  :   -57.8579259 Eh     change       -0.1966551E-04 Eh
 * total energy  :   -57.8579445 Eh     change       -0.1859828E-04 Eh
 * total energy  :   -57.8579630 Eh     change       -0.1854973E-04 Eh
 * total energy  :   -57.8579737 Eh     change       -0.1067895E-04 Eh
 * total energy  :   -57.8579829 Eh     change       -0.9222299E-05 Eh
 * total energy  :   -57.8579889 Eh     change       -0.5958311E-05 Eh
 * total energy  :   -57.8579921 Eh     change       -0.3235271E-05 Eh
 * total energy  :   -57.8579959 Eh     change       -0.3712219E-05 Eh
   *** GEOMETRY OPTIMIZATION CONVERGED AFTER 35 ITERATIONS ***

 final structure:
================
33
 xtb: 6.5.1 (579679a)
C            4.38209649559383        0.35733231065829       -1.08741053575226
O            3.01780884132087        0.03511507942259       -0.75681310132013
C            2.79478929931856       -0.52196510571503        0.42050517460073
O            3.63235453181837       -0.77145570810644        1.24194720245265
C            1.32778502028591       -0.87175533775106        0.59985800323875
C            0.96981221704614       -2.13375049563106        0.96178828748306
O            1.86124131522090       -3.08706861866183        1.20533770161439
C           -0.44102049171202       -2.49964842711040        1.05426646975166
O           -0.85131523253797       -3.58647552653164        1.38634740576442
N           -1.29477285895090       -1.46533739723509        0.68755002474613
C           -0.94087209917341       -0.21756413416041        0.34186198105504
C           -2.06577603863573        0.74474675011470       -0.01404766481482
C           -3.28674877030857       -0.01196551533022       -0.56563096752540
C           -2.47049977344054        1.50887433553275        1.25746179272227
N           -1.58908930640717        1.67677914740028       -1.02292780995437
N            0.34790884969637        0.09078949116739        0.35422463127455
C            0.82320247605174        1.47032000008785        0.16449745306875
H            4.86166647449677        0.85237451569533       -0.24058672741840
H            4.33769906286459        1.02056751703361       -1.94886730688922
H            4.92035375589653       -0.55938012199548       -1.33664987688573
H            1.41794063742874       -3.92266617109776        1.43632477898550
H           -2.27520105251896       -1.71426702481526        0.70350192541325
H           -2.98964054688749       -0.69132781237702       -1.36206911856105
H           -3.80531869874646       -0.56549979901129        0.21584760366117
H           -3.98024195786283        0.72070802245237       -0.97497425284234
H           -3.31774631085096        2.15142871453188        1.02470861616592
H           -1.65229009110607        2.12593785685768        1.62321146971880
H           -2.76181742602264        0.80654370421511        2.03663462347136
H           -2.24638948248110        2.44078610383695       -1.10112567193941
H           -1.54462905267171        1.20954313847147       -1.91865353270998
H            1.02078220729777        1.63787462334770       -0.89187428184461
H            1.73143129945498        1.60510203754601        0.74732907015988
H            0.06649670652400        2.16530584716087        0.50746863311033

          :  Hamiltonian                  GFN1-xTB          :
         :: total energy             -57.857995850501 Eh    ::
         :: gradient norm              0.000792077895 Eh/a0 ::
         :: HOMO-LUMO gap              2.316660507797 eV    ::
         :: SCC energy               -58.441971908097 Eh    ::
         :: -> Gsolv                  -0.103271211691 Eh    ::
         :: repulsion energy           0.603615297556 Eh    ::

    * Orbital Energies and Occupations

         #    Occupation            Energy/Eh            Energy/eV
      -------------------------------------------------------------
         1        2.0000           -0.8904984             -24.2317
       ...           ...                  ...                  ...
        35        2.0000           -0.5618635             -15.2891
        36        2.0000           -0.5440432             -14.8042
        37        2.0000           -0.5400660             -14.6959
        38        2.0000           -0.5363254             -14.5942
        39        2.0000           -0.5321429             -14.4803
        40        2.0000           -0.5296664             -14.4130
        41        2.0000           -0.5280019             -14.3677
        42        2.0000           -0.5232490             -14.2383
        43        2.0000           -0.5195452             -14.1375
        44        2.0000           -0.5161023             -14.0439
        45        2.0000           -0.4981948             -13.5566
        46        2.0000           -0.4777626             -13.0006
        47        2.0000           -0.4421661             -12.0320 (HOMO)
        48                         -0.3570304              -9.7153 (LUMO)
        49                         -0.3526506              -9.5961
        50                         -0.2901345              -7.8950
        51                         -0.2213435              -6.0231
        52                         -0.1621610              -4.4126
        53                         -0.1559851              -4.2446
        54                         -0.1529725              -4.1626
        55                         -0.1462545              -3.9798
        56                         -0.1327051              -3.6111
        57                         -0.1239167              -3.3719
        58                         -0.1105149              -3.0073
       ...                                ...                  ...
       100                          0.7183066              19.5461
      -------------------------------------------------------------
                  HL-Gap            0.0851357 Eh            2.3167 eV

Wiberg/Mayer (AO) data.
largest (>0.10) Wiberg bond orders for each atom

     #   Z sym  total        # sym  WBO       # sym  WBO       # sym  WBO
 ---------------------------------------------------------------------------
     1   6 C    3.845 --    19 H    0.984    18 H    0.980    20 H    0.978
                             2 O    0.870
     2   8 O    2.220 --     3 C    1.142     1 C    0.870     4 O    0.147
     3   6 C    3.862 --     4 O    1.707     2 O    1.142     5 C    0.944
     4   8 O    1.966 --     3 C    1.707     2 O    0.147
     5   6 C    3.925 --     6 C    1.546    16 N    1.087     3 C    0.944
     6   6 C    3.928 --     5 C    1.546     7 O    1.133     8 C    1.043
     7   8 O    2.103 --     6 C    1.133    21 H    0.794
     8   6 C    3.902 --     9 O    1.653    10 N    1.077     6 C    1.043
     9   8 O    1.961 --     8 C    1.653    10 N    0.118
    10   7 N    3.490 --    11 C    1.275     8 C    1.077    22 H    0.863
                             9 O    0.118
    11   6 C    3.883 --    16 N    1.395    10 N    1.275    12 C    0.973
    12   6 C    3.954 --    15 N    0.994    13 C    0.983    11 C    0.973
                            14 C    0.966
    13   6 C    3.988 --    23 H    0.983    12 C    0.983    25 H    0.977
                            24 H    0.976
    14   6 C    3.985 --    28 H    0.984    27 H    0.978    26 H    0.977
                            12 C    0.966
    15   7 N    2.975 --    12 C    0.994    30 H    0.933    29 H    0.927
    16   7 N    3.583 --    11 C    1.395     5 C    1.087    17 C    0.903
    17   6 C    3.890 --    32 H    0.977    33 H    0.972    31 H    0.968
                            16 N    0.903
    18   1 H    1.003 --     1 C    0.980
    19   1 H    1.006 --     1 C    0.984
    20   1 H    1.002 --     1 C    0.978
    21   1 H    0.823 --     7 O    0.794
    22   1 H    0.916 --    10 N    0.863
    23   1 H    0.996 --    13 C    0.983
    24   1 H    0.996 --    13 C    0.976
    25   1 H    0.997 --    13 C    0.977
    26   1 H    0.994 --    14 C    0.977
    27   1 H    0.999 --    14 C    0.978
    28   1 H    0.998 --    14 C    0.984
    29   1 H    0.941 --    15 N    0.927
    30   1 H    0.946 --    15 N    0.933
    31   1 H    1.012 --    17 C    0.968
    32   1 H    0.996 --    17 C    0.977
    33   1 H    1.019 --    17 C    0.972
 ---------------------------------------------------------------------------

           -------------------------------------------------
          | TOTAL ENERGY              -57.857995850501 Eh   |
          | GRADIENT NORM               0.000792077895 Eh/α |
          | HOMO-LUMO GAP               2.316660507797 eV   |
           -------------------------------------------------

 * finished run on 2023/06/20 at 15:05:21.265
