   * xtb version 6.5.1 (579679a) compiled by 'ehlert@majestix' on 2022-07-11
          program call               : /lustre/hpc/kemi/ree/PhD/git/ReactivityQM/dep/xtb-6.5.1/bin/xtb --gfn 1 /lustre/hpc/kemi/ree/PhD/git/ReactivityQM/calculations/R02deprot/reac01prodN03/conf19/R02deprot_reac01prodN03_conf19_gfn1.xyz --opt --vfukui --chrg 0 --uhf 0 --alpb DMSO

   ID    Z sym.   atoms
    1    6 C      1, 3, 5, 7-10, 12, 14, 17, 18, 21, 22, 24
    2    8 O      2, 4, 13, 19, 23, 25
    3    7 N      6, 11, 15, 16, 20
    4    1 H      26-42

      * Solvation model:               ALPB
        Solvent                        DMSO
        Solvent mass                       7.8130E+01 g/mol
          :  Hamiltonian                  GFN1-xTB          :
 * total energy  :   -82.9925623 Eh     change       -0.1050182E-10 Eh
 * total energy  :   -83.0032685 Eh     change       -0.1070620E-01 Eh
 * total energy  :   -83.0073108 Eh     change       -0.4042371E-02 Eh
 * total energy  :   -83.0080653 Eh     change       -0.7544869E-03 Eh
 * total energy  :   -83.0085896 Eh     change       -0.5242416E-03 Eh
 * total energy  :   -83.0088454 Eh     change       -0.2558337E-03 Eh
 * total energy  :   -83.0090656 Eh     change       -0.2202210E-03 Eh
 * total energy  :   -83.0092463 Eh     change       -0.1806538E-03 Eh
 * total energy  :   -83.0093809 Eh     change       -0.1345943E-03 Eh
 * total energy  :   -83.0094701 Eh     change       -0.8927867E-04 Eh
 * total energy  :   -83.0099953 Eh     change       -0.5077378E-05 Eh
 * total energy  :   -83.0100003 Eh     change       -0.5023878E-05 Eh
 * total energy  :   -83.0100052 Eh     change       -0.4960284E-05 Eh
 * total energy  :   -83.0100119 Eh     change       -0.6663547E-05 Eh
 * total energy  :   -83.0100199 Eh     change       -0.7979935E-05 Eh
 * total energy  :   -83.0100279 Eh     change       -0.8013760E-05 Eh
 * total energy  :   -83.0100333 Eh     change       -0.5356803E-05 Eh
 * total energy  :   -83.0100368 Eh     change       -0.3546823E-05 Eh
 * total energy  :   -83.0100404 Eh     change       -0.3558967E-05 Eh
   *** GEOMETRY OPTIMIZATION CONVERGED AFTER 37 ITERATIONS ***

 final structure:
================
42
 xtb: 6.5.1 (579679a)
C           -5.67556847597288        1.96742715196875        1.95082854839797
O           -4.68301356334031        1.78812571128410        0.92929717157103
C           -3.73159387619947        0.88173102238446        1.19339335202699
O           -3.69678047250006        0.24996745280269        2.22181014640902
C           -2.73380583623852        0.73963679897614        0.09744811708489
N           -1.77848981626354       -0.20070285543189        0.36466791337639
C           -0.82455840612691       -0.45485224583090       -0.46934501902525
C            0.13438046229957       -1.56724634880924       -0.06074998919399
C           -0.14363240675622       -1.96859349539061        1.39548060841220
C           -0.06895342791801       -2.78125910960956       -0.97921589008670
N            1.50640722597755       -1.04768106923694       -0.13741698962545
C            2.59745265297023       -1.81827329774368        0.07976894189390
O            2.59933285137394       -3.03073375295484        0.19961045843916
C            3.84957927413993       -1.02308207214465        0.13630448131277
N            5.05255028164199       -1.45961698679291        0.34484107252843
N            5.87374729293785       -0.37282422030434        0.33096230763676
C            5.12214253622488        0.66140132250939        0.11519016212310
C            5.53834062552744        2.07668315130479        0.01527455431333
O            3.82899289289912        0.31962218439323       -0.01679949105894
N           -0.72681318140334        0.20272864427869       -1.66667767986707
C            0.31452546779593       -0.02457508271922       -2.67157795412287
C           -1.65650507147079        1.16291961487637       -2.05940267904244
O           -1.55779663597749        1.71148877729007       -3.14715674385626
C           -2.71261239599167        1.43357633822806       -1.08391085555090
O           -3.58956111427973        2.36796068534991       -1.46898934173950
H           -5.19490341141589        2.25330833518059        2.88901903650659
H           -6.33848751224613        2.75734896584413        1.60764484858705
H           -6.23173998156138        1.03824195282220        2.09324932796180
H            0.55432690303289       -2.74766442628901        1.69730344048770
H           -1.16152650770959       -2.34321870485781        1.48746703299019
H           -0.02485182747735       -1.10670150471344        2.04961614684120
H           -1.13376392549840       -3.00179099976839       -1.03951440409461
H            0.30757363604237       -2.59145840855158       -1.98090696782261
H            0.44577150930013       -3.64997138198773       -0.57350760789572
H            1.62057508274172       -0.05049877912645       -0.05042761345962
H            5.28436319234118        2.47162494114799       -0.96855498018666
H            5.01361490976619        2.67177928565349        0.76263838681482
H            6.61164218613205        2.15395117479996        0.17298925929334
H           -0.12494032993011       -0.54257476065579       -3.52457391992683
H            1.13216924159260       -0.60272104847677       -2.25928504066263
H            0.68346283455914        0.94691849629678       -3.00093814566869
H           -4.28105688301510        2.52959954400116       -0.80516600212003

          :  Hamiltonian                  GFN1-xTB          :
         :: total energy             -83.010040366706 Eh    ::
         :: gradient norm              0.000791112577 Eh/a0 ::
         :: HOMO-LUMO gap              2.837081605758 eV    ::
         :: SCC energy               -83.792677213221 Eh    ::
         :: -> Gsolv                  -0.058582124398 Eh    ::
         :: repulsion energy           0.808966962283 Eh    ::

    * Orbital Energies and Occupations

         #    Occupation            Energy/Eh            Energy/eV
      -------------------------------------------------------------
         1        2.0000           -0.8667402             -23.5852
       ...           ...                  ...                  ...
        55        2.0000           -0.5059805             -13.7684
        56        2.0000           -0.5000233             -13.6063
        57        2.0000           -0.4990444             -13.5797
        58        2.0000           -0.4852357             -13.2039
        59        2.0000           -0.4812180             -13.0946
        60        2.0000           -0.4745462             -12.9131
        61        2.0000           -0.4681895             -12.7401
        62        2.0000           -0.4621331             -12.5753
        63        2.0000           -0.4580611             -12.4645
        64        2.0000           -0.4528744             -12.3233
        65        2.0000           -0.4488363             -12.2135
        66        2.0000           -0.4449076             -12.1066
        67        2.0000           -0.4278438             -11.6422 (HOMO)
        68                         -0.3235829              -8.8051 (LUMO)
        69                         -0.3128877              -8.5141
        70                         -0.2833385              -7.7100
        71                         -0.2578679              -7.0169
        72                         -0.2409049              -6.5554
        73                         -0.2007419              -5.4625
        74                         -0.1580742              -4.3014
        75                         -0.1428579              -3.8874
        76                         -0.1404094              -3.8207
        77                         -0.1368289              -3.7233
        78                         -0.1242095              -3.3799
       ...                                ...                  ...
       134                          0.7328277              19.9413
      -------------------------------------------------------------
                  HL-Gap            0.1042608 Eh            2.8371 eV

Wiberg/Mayer (AO) data.
largest (>0.10) Wiberg bond orders for each atom

     #   Z sym  total        # sym  WBO       # sym  WBO       # sym  WBO
 ---------------------------------------------------------------------------
     1   6 C    3.861 --    27 H    0.986    28 H    0.980    26 H    0.980
                             2 O    0.885
     2   8 O    2.203 --     3 C    1.089     1 C    0.885     4 O    0.130
     3   6 C    3.846 --     4 O    1.672     2 O    1.089     5 C    1.005
     4   8 O    1.933 --     3 C    1.672     2 O    0.130
     5   6 C    3.963 --    24 C    1.490     6 N    1.185     3 C    1.005
     6   7 N    3.033 --     7 C    1.573     5 C    1.185
     7   6 C    3.931 --     6 N    1.573    20 N    1.175     8 C    0.975
     8   6 C    3.932 --     9 C    0.990    10 C    0.983     7 C    0.975
                            11 N    0.920
     9   6 C    3.989 --     8 C    0.990    31 H    0.984    30 H    0.984
                            29 H    0.983
    10   6 C    3.988 --    32 H    0.985     8 C    0.983    33 H    0.981
                            34 H    0.977
    11   7 N    3.343 --    12 C    1.241     8 C    0.920    35 H    0.896
                            13 O    0.172
    12   6 C    3.915 --    13 O    1.595    11 N    1.241    14 C    0.993
    13   8 O    1.910 --    12 C    1.595    11 N    0.172
    14   6 C    3.872 --    15 N    1.623    19 O    1.046    12 C    0.993
    15   7 N    3.000 --    14 C    1.623    16 N    1.199
    16   7 N    2.982 --    17 C    1.611    15 N    1.199
    17   6 C    3.868 --    16 N    1.611    19 O    1.071    18 C    1.032
    18   6 C    3.986 --    17 C    1.032    38 H    0.982    37 H    0.963
                            36 H    0.962
    19   8 O    2.315 --    17 C    1.071    14 C    1.046
    20   7 N    3.506 --     7 C    1.175    22 C    1.113    21 C    0.929
                            23 O    0.136
    21   6 C    3.921 --    40 H    0.977    39 H    0.975    41 H    0.975
                            20 N    0.929
    22   6 C    3.913 --    23 O    1.584    20 N    1.113    24 C    1.069
    23   8 O    1.897 --    22 C    1.584    20 N    0.136
    24   6 C    3.920 --     5 C    1.490    25 O    1.107    22 C    1.069
    25   8 O    2.088 --    24 C    1.107    42 H    0.802
    26   1 H    1.007 --     1 C    0.980
    27   1 H    1.009 --     1 C    0.986
    28   1 H    1.006 --     1 C    0.980
    29   1 H    1.006 --     9 C    0.983
    30   1 H    1.011 --     9 C    0.984
    31   1 H    1.008 --     9 C    0.984
    32   1 H    1.002 --    10 C    0.985
    33   1 H    1.001 --    10 C    0.981
    34   1 H    1.012 --    10 C    0.977
    35   1 H    0.940 --    11 N    0.896
    36   1 H    0.996 --    18 C    0.962
    37   1 H    0.997 --    18 C    0.963
    38   1 H    0.998 --    18 C    0.982
    39   1 H    1.002 --    21 C    0.975
    40   1 H    1.009 --    21 C    0.977
    41   1 H    1.006 --    21 C    0.975
    42   1 H    0.853 --    25 O    0.802
 ---------------------------------------------------------------------------

           -------------------------------------------------
          | TOTAL ENERGY              -83.010040366706 Eh   |
          | GRADIENT NORM               0.000791112577 Eh/α |
          | HOMO-LUMO GAP               2.837081605758 eV   |
           -------------------------------------------------

 * finished run on 2023/06/20 at 18:07:46.214
