   * xtb version 6.5.1 (579679a) compiled by 'ehlert@majestix' on 2022-07-11
          program call               : /lustre/hpc/kemi/ree/PhD/git/ReactivityQM/dep/xtb-6.5.1/bin/xtb --gfn 1 /lustre/hpc/kemi/ree/PhD/git/ReactivityQM/calculations/R02/reac01prodN05/conf06/R02_reac01prodN05_conf06_gfn1.xyz --opt --vfukui --chrg 1 --uhf 0 --alpb DMSO

   ID    Z sym.   atoms
    1    6 C      1, 3, 5, 6, 8, 11-14, 16, 18, 21, 22, 25
    2    8 O      2, 4, 7, 9, 17, 23
    3    7 N      10, 15, 19, 20, 24
    4    1 H      26-43

      * Solvation model:               ALPB
        Solvent                        DMSO
        Solvent mass                       7.8130E+01 g/mol
          :  Hamiltonian                  GFN1-xTB          :
 * total energy  :   -83.1307178 Eh     change       -0.1206502E-10 Eh
 * total energy  :   -83.1515823 Eh     change       -0.2086449E-01 Eh
 * total energy  :   -83.1598162 Eh     change       -0.8233833E-02 Eh
 * total energy  :   -83.1618413 Eh     change       -0.2025156E-02 Eh
 * total energy  :   -83.1629060 Eh     change       -0.1064643E-02 Eh
 * total energy  :   -83.1633211 Eh     change       -0.4151345E-03 Eh
 * total energy  :   -83.1635609 Eh     change       -0.2397870E-03 Eh
 * total energy  :   -83.1637296 Eh     change       -0.1686829E-03 Eh
 * total energy  :   -83.1639052 Eh     change       -0.1756404E-03 Eh
 * total energy  :   -83.1641067 Eh     change       -0.2015097E-03 Eh
 * total energy  :   -83.1651652 Eh     change       -0.9062561E-05 Eh
 * total energy  :   -83.1651913 Eh     change       -0.2607460E-04 Eh
 * total energy  :   -83.1651998 Eh     change       -0.8503103E-05 Eh
 * total energy  :   -83.1652182 Eh     change       -0.1847256E-04 Eh
 * total energy  :   -83.1652262 Eh     change       -0.7998395E-05 Eh
 * total energy  :   -83.1652448 Eh     change       -0.1854716E-04 Eh
 * total energy  :   -83.1652490 Eh     change       -0.4262969E-05 Eh
 * total energy  :   -83.1652575 Eh     change       -0.8452825E-05 Eh
 * total energy  :   -83.1652615 Eh     change       -0.3964255E-05 Eh
   *** GEOMETRY OPTIMIZATION CONVERGED AFTER 36 ITERATIONS ***

 final structure:
================
43
 xtb: 6.5.1 (579679a)
C           -4.96653097582492        2.53543377067082        1.52878118986283
O           -4.45174252702841        1.27066757694309        1.05874236961898
C           -3.13908505977589        1.19799535653968        0.89952940558922
O           -2.38090691605702        2.09736417379209        1.15437505358595
C           -2.70387048174011       -0.16004647449222        0.42103674633024
C           -3.41037292445473       -1.29847662494875        0.69930425063619
O           -4.59598799921602       -1.35842939846147        1.27432793963892
C           -2.83985207537236       -2.62003242453007        0.39024000140213
O           -3.37702109365144       -3.68698778474586        0.53000177706967
N           -1.52579627622371       -2.53544664740127       -0.07479972935837
C           -0.85062572232291       -1.42049815489373       -0.38249179216493
C            0.55705850721175       -1.60792953888795       -0.93404398500166
C            1.19732187535143       -2.90756966294838       -0.41893635174103
C            0.47210323999387       -1.64896717266509       -2.46983397917741
N            1.37108026589460       -0.49858686140436       -0.44438008826049
C            2.62771838528148       -0.23780478594889       -0.91956908877888
O            3.11633218490904       -0.71582710441523       -1.91944245886054
C            3.30013468953067        0.75096059362199       -0.04944920497239
N            2.82423569611368        1.24615593033003        1.05510752138445
N            3.76517008093770        2.09904459926341        1.53877155487632
C            4.75918660683717        2.07112551876038        0.69929576704500
C            6.02833715175484        2.82661624471216        0.77577276047632
O            4.52265472379787        1.23704789580546       -0.32247859888743
N           -1.45165136023897       -0.25454873408062       -0.21054640338376
C           -0.89137448567183        0.99071363084038       -0.76438690357409
H           -6.05003834933901        2.44934262275716        1.50556661149110
H           -4.62510265385990        3.33218571748089        0.86578198884469
H           -4.61038478692434        2.71869692134903        2.54407514325629
H           -4.99180755647560       -0.48574194126237        1.45780493441237
H           -1.08950630225666       -3.43657634146825       -0.22509897935077
H            1.12758446534024       -2.96666153385989        0.66510468573215
H            2.24843121326469       -2.89967790242588       -0.70487716431857
H            0.73294715970029       -3.78311794228396       -0.86854133885827
H           -0.31713401479513       -2.33981196027439       -2.76070397637635
H            1.41778144956144       -2.00090001896938       -2.87704035831400
H            0.25590933300746       -0.66707161778019       -2.88370754551108
H            1.19373545963011       -0.20722941716532        0.50663203003182
H            6.03722402045924        3.43710735942982        1.67579302021176
H            6.87182609159596        2.13567527672543        0.79168991306900
H            6.13241640310836        3.46567244826327       -0.10148532390833
H           -0.22342586341950        0.75206216881767       -1.58242097820828
H           -0.35353608884642        1.52836650560578        0.01369331113712
H           -1.71343648978538        1.59570473360595       -1.13719172669769

          :  Hamiltonian                  GFN1-xTB          :
         :: total energy             -83.165261466717 Eh    ::
         :: gradient norm              0.000779211264 Eh/a0 ::
         :: HOMO-LUMO gap              2.524867010252 eV    ::
         :: SCC energy               -83.965394858293 Eh    ::
         :: -> Gsolv                  -0.115081572863 Eh    ::
         :: repulsion energy           0.827718102078 Eh    ::

    * Orbital Energies and Occupations

         #    Occupation            Energy/Eh            Energy/eV
      -------------------------------------------------------------
         1        2.0000           -0.8957435             -24.3744
       ...           ...                  ...                  ...
        55        2.0000           -0.5371169             -14.6157
        56        2.0000           -0.5342887             -14.5387
        57        2.0000           -0.5288874             -14.3918
        58        2.0000           -0.5242705             -14.2661
        59        2.0000           -0.5228521             -14.2275
        60        2.0000           -0.5159013             -14.0384
        61        2.0000           -0.5038207             -13.7097
        62        2.0000           -0.4938970             -13.4396
        63        2.0000           -0.4854260             -13.2091
        64        2.0000           -0.4819062             -13.1133
        65        2.0000           -0.4764590             -12.9651
        66        2.0000           -0.4632199             -12.6049
        67        2.0000           -0.4615281             -12.5588 (HOMO)
        68                         -0.3687410             -10.0340 (LUMO)
        69                         -0.3596702              -9.7871
        70                         -0.3269539              -8.8969
        71                         -0.2875721              -7.8252
        72                         -0.2652430              -7.2176
        73                         -0.2228228              -6.0633
        74                         -0.2139179              -5.8210
        75                         -0.1660806              -4.5193
        76                         -0.1578422              -4.2951
        77                         -0.1512867              -4.1167
        78                         -0.1466181              -3.9897
       ...                                ...                  ...
       136                          0.7222813              19.6543
      -------------------------------------------------------------
                  HL-Gap            0.0927872 Eh            2.5249 eV

Wiberg/Mayer (AO) data.
largest (>0.10) Wiberg bond orders for each atom

     #   Z sym  total        # sym  WBO       # sym  WBO       # sym  WBO
 ---------------------------------------------------------------------------
     1   6 C    3.835 --    26 H    0.984    27 H    0.978    28 H    0.978
                             2 O    0.861
     2   8 O    2.231 --     3 C    1.133     1 C    0.861     4 O    0.139
     3   6 C    3.864 --     4 O    1.673     2 O    1.133     5 C    0.984
     4   8 O    1.968 --     3 C    1.673     2 O    0.139
     5   6 C    3.916 --     6 C    1.526    24 N    1.063     3 C    0.984
                             7 O    0.110
     6   6 C    3.925 --     5 C    1.526     7 O    1.162     8 C    1.024
     7   8 O    2.133 --     6 C    1.162    29 H    0.777     5 C    0.110
     8   6 C    3.898 --     9 O    1.690    10 N    1.060     6 C    1.024
     9   8 O    1.975 --     8 C    1.690    10 N    0.117
    10   7 N    3.486 --    11 C    1.281     8 C    1.060    30 H    0.862
                             9 O    0.117
    11   6 C    3.897 --    24 N    1.409    10 N    1.281    12 C    0.977
    12   6 C    3.930 --    13 C    0.981    11 C    0.977    14 C    0.965
                            15 N    0.942
    13   6 C    3.982 --    31 H    0.983    12 C    0.981    33 H    0.977
                            32 H    0.974
    14   6 C    3.977 --    34 H    0.984    36 H    0.976    35 H    0.970
                            12 C    0.965
    15   7 N    3.290 --    16 C    1.184    12 C    0.942    37 H    0.891
                            17 O    0.161
    16   6 C    3.908 --    17 O    1.635    15 N    1.184    18 C    0.999
    17   8 O    1.944 --    16 C    1.635    15 N    0.161
    18   6 C    3.880 --    19 N    1.598    23 O    1.067    16 C    0.999
    19   7 N    3.024 --    18 C    1.598    20 N    1.211
    20   7 N    2.982 --    21 C    1.592    19 N    1.211
    21   6 C    3.867 --    20 N    1.592    23 O    1.087    22 C    1.033
    22   6 C    3.984 --    21 C    1.033    38 H    0.982    39 H    0.962
                            40 H    0.961
    23   8 O    2.337 --    21 C    1.087    18 C    1.067
    24   7 N    3.577 --    11 C    1.409     5 C    1.063    25 C    0.900
    25   6 C    3.885 --    41 H    0.974    43 H    0.974    42 H    0.966
                            24 N    0.900
    26   1 H    1.005 --     1 C    0.984
    27   1 H    1.002 --     1 C    0.978
    28   1 H    1.001 --     1 C    0.978
    29   1 H    0.829 --     7 O    0.777
    30   1 H    0.915 --    10 N    0.862
    31   1 H    0.995 --    13 C    0.983
    32   1 H    0.996 --    13 C    0.974
    33   1 H    0.994 --    13 C    0.977
    34   1 H    0.997 --    14 C    0.984
    35   1 H    1.007 --    14 C    0.970
    36   1 H    0.998 --    14 C    0.976
    37   1 H    0.948 --    15 N    0.891
    38   1 H    0.998 --    22 C    0.982
    39   1 H    0.995 --    22 C    0.962
    40   1 H    0.995 --    22 C    0.961
    41   1 H    1.006 --    25 C    0.974
    42   1 H    1.007 --    25 C    0.966
    43   1 H    0.996 --    25 C    0.974
 ---------------------------------------------------------------------------

           -------------------------------------------------
          | TOTAL ENERGY              -83.165261466717 Eh   |
          | GRADIENT NORM               0.000779211264 Eh/α |
          | HOMO-LUMO GAP               2.524867010252 eV   |
           -------------------------------------------------

 * finished run on 2023/06/20 at 15:23:44.431
