   * xtb version 6.5.1 (579679a) compiled by 'ehlert@majestix' on 2022-07-11
          program call               : /lustre/hpc/kemi/ree/PhD/git/ReactivityQM/dep/xtb-6.5.1/bin/xtb --gfn 1 /lustre/hpc/kemi/ree/PhD/git/ReactivityQM/calculations/R02/reac01prodN07/conf01/R02_reac01prodN07_conf01_gfn1.xyz --opt --vfukui --chrg 1 --uhf 0 --alpb DMSO

   ID    Z sym.   atoms
    1    6 C      1, 3, 5, 7-10, 12, 14, 17-19, 22, 24
    2    8 O      2, 4, 13, 20, 23, 25
    3    7 N      6, 11, 15, 16, 21
    4    1 H      26-43

      * Solvation model:               ALPB
        Solvent                        DMSO
        Solvent mass                       7.8130E+01 g/mol
          :  Hamiltonian                  GFN1-xTB          :
 * total energy  :   -83.1547681 Eh     change       -0.2422951E-10 Eh
 * total energy  :   -83.1729948 Eh     change       -0.1822675E-01 Eh
 * total energy  :   -83.1792089 Eh     change       -0.6214104E-02 Eh
 * total energy  :   -83.1802207 Eh     change       -0.1011782E-02 Eh
 * total energy  :   -83.1806807 Eh     change       -0.4599775E-03 Eh
 * total energy  :   -83.1808513 Eh     change       -0.1705525E-03 Eh
 * total energy  :   -83.1810306 Eh     change       -0.1793157E-03 Eh
 * total energy  :   -83.1811842 Eh     change       -0.1536723E-03 Eh
 * total energy  :   -83.1813106 Eh     change       -0.1263471E-03 Eh
 * total energy  :   -83.1813998 Eh     change       -0.8917339E-04 Eh
 * total energy  :   -83.1816026 Eh     change       -0.3863184E-04 Eh
 * total energy  :   -83.1816411 Eh     change       -0.3849230E-04 Eh
 * total energy  :   -83.1816833 Eh     change       -0.4216223E-04 Eh
 * total energy  :   -83.1817189 Eh     change       -0.3558589E-04 Eh
 * total energy  :   -83.1817471 Eh     change       -0.2827133E-04 Eh
 * total energy  :   -83.1817648 Eh     change       -0.1765807E-04 Eh
 * total energy  :   -83.1817746 Eh     change       -0.9759001E-05 Eh
 * total energy  :   -83.1817819 Eh     change       -0.7368798E-05 Eh
 * total energy  :   -83.1817856 Eh     change       -0.3701720E-05 Eh
   *** GEOMETRY OPTIMIZATION CONVERGED AFTER 22 ITERATIONS ***

 final structure:
================
43
 xtb: 6.5.1 (579679a)
C            6.94730646937169        1.59689864852526       -0.65457310540208
O            5.71587386153547        1.42953253201976        0.05638081708804
C            4.79690204689647        0.66210859786385       -0.52148700424231
O            4.96126549303914        0.11475882282168       -1.58769675345912
C            3.53940819169350        0.53867218093764        0.27685744099982
N            2.61115340035897       -0.30020408270882       -0.29518493214484
C            1.47878320655603       -0.50086105521817        0.27873130878494
C            0.49205262569423       -1.47610844169982       -0.32394428942637
C            0.84727816757998       -1.75577419797084       -1.78630634714794
C            0.51202853027095       -2.76006815764203        0.51878083854090
N           -0.84551499797360       -0.85689992931638       -0.25230503647249
C           -1.96130440873056       -1.49682052261663       -0.63392298280116
O           -2.05300183924374       -2.63073190782311       -1.04715339330052
C           -3.17153354004172       -0.61440062304446       -0.48002621569617
N           -3.21255004166697        0.61767989196178       -0.06871411554280
N           -4.51595465412106        0.95124327857734       -0.10219538432728
C           -4.93598863509997        2.27500770387151        0.31220235271538
C           -5.22998360954978       -0.07239741542309       -0.52657893873140
C           -6.68388279291532       -0.16611397533591       -0.73233945793041
O           -4.40314761399057       -1.06671726636417       -0.77184548222520
N            1.14823244889217        0.08371804661886        1.47201707126131
C            1.98807210156585        0.94886628377068        2.13367072300099
O            1.68881367238761        1.48055615013528        3.19078893519791
C            3.26849474785453        1.16864132653998        1.46075482377365
O            4.10502665144903        2.00316217152265        2.08299327869470
H            6.75772176708440        2.05717718772929       -1.62718201117033
H            7.57308118688257        2.24455492990162       -0.04388576171341
H            7.43022398571048        0.62773425748266       -0.80075502930798
H            1.85850470790963       -2.15723150302659       -1.83976583585852
H            0.15051645673762       -2.47708271997409       -2.20791244720297
H            0.80173932994846       -0.83204771621401       -2.36067122192214
H           -0.12643320252472       -3.51806017594015        0.06988237819694
H            0.15958763306943       -2.54723164775281        1.52589790255550
H            1.53217853285134       -3.13806781916489        0.57058445833562
H           -0.91549324004809        0.10996073248984        0.01516820635014
H           -5.53469450298103        2.72005134331054       -0.48011380771840
H           -5.52869385216579        2.18890409495609        1.22206117238755
H           -4.04097020521764        2.86341411855975        0.49587691122654
H           -6.98382936187272       -1.21288133922791       -0.74698074674997
H           -7.21121985772253        0.37138252725354        0.05408104556312
H           -6.94600201286698        0.28897066669432       -1.69054957598425
H            0.25700364189782       -0.09783406138735        1.90327628922537
H            3.67894851149347        2.33454206431073        2.89463592257891

          :  Hamiltonian                  GFN1-xTB          :
         :: total energy             -83.181785623425 Eh    ::
         :: gradient norm              0.000375697906 Eh/a0 ::
         :: HOMO-LUMO gap              2.142134062278 eV    ::
         :: SCC energy               -83.993074396782 Eh    ::
         :: -> Gsolv                  -0.130903218908 Eh    ::
         :: repulsion energy           0.836602445077 Eh    ::

    * Orbital Energies and Occupations

         #    Occupation            Energy/Eh            Energy/eV
      -------------------------------------------------------------
         1        2.0000           -0.9391283             -25.5550
       ...           ...                  ...                  ...
        55        2.0000           -0.5276650             -14.3585
        56        2.0000           -0.5216865             -14.1958
        57        2.0000           -0.5195349             -14.1373
        58        2.0000           -0.5174189             -14.0797
        59        2.0000           -0.5143492             -13.9962
        60        2.0000           -0.5008744             -13.6295
        61        2.0000           -0.4968460             -13.5199
        62        2.0000           -0.4944367             -13.4543
        63        2.0000           -0.4919832             -13.3875
        64        2.0000           -0.4800271             -13.0622
        65        2.0000           -0.4691246             -12.7655
        66        2.0000           -0.4590437             -12.4912
        67        2.0000           -0.4408933             -11.9973 (HOMO)
        68                         -0.3621714              -9.8552 (LUMO)
        69                         -0.3459384              -9.4135
        70                         -0.3318703              -9.0307
        71                         -0.2944656              -8.0128
        72                         -0.2473582              -6.7310
        73                         -0.2450994              -6.6695
        74                         -0.1847149              -5.0263
        75                         -0.1726177              -4.6972
        76                         -0.1666025              -4.5335
        77                         -0.1433936              -3.9019
        78                         -0.1403151              -3.8182
       ...                                ...                  ...
       136                          0.7274566              19.7951
      -------------------------------------------------------------
                  HL-Gap            0.0787220 Eh            2.1421 eV

Wiberg/Mayer (AO) data.
largest (>0.10) Wiberg bond orders for each atom

     #   Z sym  total        # sym  WBO       # sym  WBO       # sym  WBO
 ---------------------------------------------------------------------------
     1   6 C    3.869 --    27 H    0.986    26 H    0.979    28 H    0.979
                             2 O    0.894
     2   8 O    2.207 --     3 C    1.121     1 C    0.894     4 O    0.136
     3   6 C    3.853 --     4 O    1.658     2 O    1.121     5 C    0.996
     4   8 O    1.921 --     3 C    1.658     2 O    0.136
     5   6 C    3.962 --    24 C    1.508     6 N    1.170     3 C    0.996
     6   7 N    3.031 --     7 C    1.608     5 C    1.170
     7   6 C    3.933 --     6 N    1.608    21 N    1.155     8 C    0.982
     8   6 C    3.919 --     9 C    0.991     7 C    0.982    10 C    0.976
                            11 N    0.905
     9   6 C    3.987 --     8 C    0.991    31 H    0.985    30 H    0.982
                            29 H    0.982
    10   6 C    3.985 --    33 H    0.984    34 H    0.984    32 H    0.977
                             8 C    0.976
    11   7 N    3.368 --    12 C    1.280     8 C    0.905    35 H    0.891
                            13 O    0.197
    12   6 C    3.924 --    13 O    1.620    11 N    1.280    14 C    0.953
    13   8 O    1.948 --    12 C    1.620    11 N    0.197
    14   6 C    3.843 --    15 N    1.608    20 O    1.068    12 C    0.953
    15   7 N    2.993 --    14 C    1.608    16 N    1.152
    16   7 N    3.630 --    18 C    1.421    15 N    1.152    17 C    0.908
    17   6 C    3.883 --    38 H    0.978    36 H    0.971    37 H    0.966
                            16 N    0.908
    18   6 C    3.842 --    16 N    1.421    20 O    1.156    19 C    1.042
    19   6 C    3.961 --    18 C    1.042    39 H    0.967    40 H    0.961
                            41 H    0.934
    20   8 O    2.391 --    18 C    1.156    14 C    1.068
    21   7 N    3.460 --     7 C    1.155    22 C    1.134    42 H    0.882
                            23 O    0.134
    22   6 C    3.909 --    23 O    1.585    21 N    1.134    24 C    1.058
    23   8 O    1.908 --    22 C    1.585    21 N    0.134
    24   6 C    3.921 --     5 C    1.508    25 O    1.114    22 C    1.058
    25   8 O    2.092 --    24 C    1.114    43 H    0.804
    26   1 H    1.007 --     1 C    0.979
    27   1 H    1.010 --     1 C    0.986
    28   1 H    1.007 --     1 C    0.979
    29   1 H    1.008 --     9 C    0.982
    30   1 H    1.004 --     9 C    0.982
    31   1 H    1.003 --     9 C    0.985
    32   1 H    1.005 --    10 C    0.977
    33   1 H    0.999 --    10 C    0.984
    34   1 H    0.999 --    10 C    0.984
    35   1 H    0.936 --    11 N    0.891
    36   1 H    0.989 --    17 C    0.971
    37   1 H    0.989 --    17 C    0.966
    38   1 H    0.992 --    17 C    0.978
    39   1 H    0.985 --    19 C    0.967
    40   1 H    0.987 --    19 C    0.961
    41   1 H    0.984 --    19 C    0.934
    42   1 H    0.924 --    21 N    0.882
    43   1 H    0.843 --    25 O    0.804
 ---------------------------------------------------------------------------

           -------------------------------------------------
          | TOTAL ENERGY              -83.181785623425 Eh   |
          | GRADIENT NORM               0.000375697906 Eh/α |
          | HOMO-LUMO GAP               2.142134062278 eV   |
           -------------------------------------------------

 * finished run on 2023/06/20 at 15:26:54.760
