   * xtb version 6.5.1 (579679a) compiled by 'ehlert@majestix' on 2022-07-11
          program call               : /lustre/hpc/kemi/ree/PhD/git/ReactivityQM/dep/xtb-6.5.1/bin/xtb --gfn 1 /lustre/hpc/kemi/ree/PhD/git/ReactivityQM/calculations/R03/reac01prodN03/conf05/R03_reac01prodN03_conf05_gfn1.xyz --opt --vfukui --chrg 1 --uhf 0 --alpb DMSO

   ID    Z sym.   atoms
    1    6 C      1-4, 6-9
    2    9 F      5
    3    7 N      10
    4    1 H      11-21

      * Solvation model:               ALPB
        Solvent                        DMSO
        Solvent mass                       7.8130E+01 g/mol
          :  Hamiltonian                  GFN1-xTB          :
 * total energy  :   -30.7608363 Eh     change       -0.1069367E-09 Eh
 * total energy  :   -30.7661970 Eh     change       -0.5360784E-02 Eh
 * total energy  :   -30.7680925 Eh     change       -0.1895422E-02 Eh
 * total energy  :   -30.7684540 Eh     change       -0.3614936E-03 Eh
 * total energy  :   -30.7687337 Eh     change       -0.2797084E-03 Eh
 * total energy  :   -30.7688842 Eh     change       -0.1505779E-03 Eh
 * total energy  :   -30.7690505 Eh     change       -0.1662708E-03 Eh
 * total energy  :   -30.7692317 Eh     change       -0.1812044E-03 Eh
 * total energy  :   -30.7693794 Eh     change       -0.1476619E-03 Eh
 * total energy  :   -30.7694934 Eh     change       -0.1140182E-03 Eh
 * total energy  :   -30.7702166 Eh     change       -0.1097434E-03 Eh
 * total energy  :   -30.7702148 Eh     change        0.1878467E-05 Eh
 * total energy  :   -30.7703371 Eh     change       -0.1223253E-03 Eh
 * total energy  :   -30.7702762 Eh     change        0.6089723E-04 Eh
 * total energy  :   -30.7703573 Eh     change       -0.8115023E-04 Eh
 * total energy  :   -30.7703693 Eh     change       -0.1193249E-04 Eh
 * total energy  :   -30.7703794 Eh     change       -0.1016857E-04 Eh
 * total energy  :   -30.7703846 Eh     change       -0.5155123E-05 Eh
 * total energy  :   -30.7703895 Eh     change       -0.4916212E-05 Eh
   *** GEOMETRY OPTIMIZATION CONVERGED AFTER 25 ITERATIONS ***

 final structure:
================
21
 xtb: 6.5.1 (579679a)
C            0.20300043355499        1.92304522968561        0.69473447839339
C            0.60219789723097        0.77253751533532       -0.25948178666511
C            1.93136496981987        0.22818830843546        0.08958270526865
C            2.15678784155727       -1.10848643432492        0.06540779154345
F            3.36409766454953       -1.58100609389904        0.35103935356963
C            1.14385598654210       -2.03921336544334       -0.23214624017365
C           -0.13420273775304       -1.59349199290023       -0.50974176535796
C           -0.45056303712687       -0.23749880276943       -0.52554481503467
C           -1.86473025500030        0.17634055612785       -0.74745371615433
N           -2.44935249073586       -0.07961214284894        0.56350481567379
H            0.01568180300558        1.51716082565002        1.68606390457092
H           -0.68873319414147        2.42621510601059        0.33089538648067
H            1.01715614161987        2.64324143885590        0.74940649510393
H            0.73684536873140        1.26743855139203       -1.24163644461113
H            2.71618414774058        0.92562577298257        0.35482990029444
H            1.37944842487902       -3.09699202615166       -0.23463632760012
H           -0.91088201035580       -2.31774394144412       -0.72702425233298
H           -2.36783032827105       -0.44577844938104       -1.48865284475611
H           -1.97547875538442        1.22930813609193       -1.00375725183399
H           -1.99234919600215        0.45291609918911        1.28947671272360
H           -2.43249967446061       -1.06219429059368        0.79513390089741

          :  Hamiltonian                  GFN1-xTB          :
         :: total energy             -30.770389506667 Eh    ::
         :: gradient norm              0.000496746135 Eh/a0 ::
         :: HOMO-LUMO gap              1.312899499576 eV    ::
         :: SCC energy               -31.162779648325 Eh    ::
         :: -> Gsolv                  -0.087710848989 Eh    ::
         :: repulsion energy           0.402969503152 Eh    ::

    * Orbital Energies and Occupations

         #    Occupation            Energy/Eh            Energy/eV
      -------------------------------------------------------------
         1        2.0000           -0.9090180             -24.7356
       ...           ...                  ...                  ...
        15        2.0000           -0.6025233             -16.3955
        16        2.0000           -0.5908206             -16.0770
        17        2.0000           -0.5800108             -15.7829
        18        2.0000           -0.5768416             -15.6967
        19        2.0000           -0.5698657             -15.5068
        20        2.0000           -0.5571053             -15.1596
        21        2.0000           -0.5484075             -14.9229
        22        2.0000           -0.5409290             -14.7194
        23        2.0000           -0.5366677             -14.6035
        24        2.0000           -0.5331231             -14.5070
        25        2.0000           -0.5177706             -14.0893
        26        2.0000           -0.4979379             -13.5496
        27        2.0000           -0.4569442             -12.4341 (HOMO)
        28                         -0.4086960             -11.1212 (LUMO)
        29                         -0.3211399              -8.7387
        30                         -0.2360337              -6.4228
        31                         -0.1594571              -4.3390
        32                         -0.1541101              -4.1935
        33                         -0.1468939              -3.9972
        34                         -0.1380769              -3.7573
        35                         -0.1326574              -3.6098
        36                         -0.1293439              -3.5196
        37                         -0.1105491              -3.0082
        38                         -0.0959681              -2.6114
       ...                                ...                  ...
        62                          0.5423495              14.7581
      -------------------------------------------------------------
                  HL-Gap            0.0482482 Eh            1.3129 eV

Wiberg/Mayer (AO) data.
largest (>0.10) Wiberg bond orders for each atom

     #   Z sym  total        # sym  WBO       # sym  WBO       # sym  WBO
 ---------------------------------------------------------------------------
     1   6 C    3.974 --    11 H    0.981    12 H    0.980    13 H    0.980
                             2 C    0.932
     2   6 C    3.991 --     3 C    1.075     8 C    1.073     1 C    0.932
                            14 H    0.838
     3   6 C    3.975 --     4 C    1.567     2 C    1.075    15 H    0.960
     4   6 C    3.882 --     3 C    1.567     6 C    1.262     5 F    0.962
     5   9 F    1.103 --     4 C    0.962
     6   6 C    3.964 --     7 C    1.471     4 C    1.262    16 H    0.961
     7   6 C    3.987 --     6 C    1.471     8 C    1.418    17 H    0.961
     8   6 C    3.923 --     7 C    1.418     2 C    1.073     9 C    1.022
                            10 N    0.156
     9   6 C    3.961 --     8 C    1.022    19 H    0.974    18 H    0.967
                            10 N    0.950
    10   7 N    3.145 --     9 C    0.950    20 H    0.926    21 H    0.923
                             8 C    0.156
    11   1 H    0.998 --     1 C    0.981
    12   1 H    0.995 --     1 C    0.980
    13   1 H    0.994 --     1 C    0.980
    14   1 H    0.983 --     2 C    0.838
    15   1 H    0.986 --     3 C    0.960
    16   1 H    0.988 --     6 C    0.961
    17   1 H    0.989 --     7 C    0.961
    18   1 H    1.000 --     9 C    0.967
    19   1 H    1.001 --     9 C    0.974
    20   1 H    0.945 --    10 N    0.926
    21   1 H    0.941 --    10 N    0.923
 ---------------------------------------------------------------------------

           -------------------------------------------------
          | TOTAL ENERGY              -30.770389506667 Eh   |
          | GRADIENT NORM               0.000496746135 Eh/α |
          | HOMO-LUMO GAP               1.312899499576 eV   |
           -------------------------------------------------

 * finished run on 2023/06/20 at 15:14:11.497
