   * xtb version 6.5.1 (579679a) compiled by 'ehlert@majestix' on 2022-07-11
          program call               : /lustre/hpc/kemi/ree/PhD/git/ReactivityQM/dep/xtb-6.5.1/bin/xtb --gfn 1 /lustre/hpc/kemi/ree/PhD/git/ReactivityQM/calculations/R03/reac01prodE03/conf03/R03_reac01prodE03_conf03_gfn1.xyz --opt --vfukui --chrg -1 --uhf 0 --alpb DMSO

   ID    Z sym.   atoms
    1    6 C      1-5, 7-9
    2    7 N      6
    3    9 F      10
    4    1 H      11-21

      * Solvation model:               ALPB
        Solvent                        DMSO
        Solvent mass                       7.8130E+01 g/mol
          :  Hamiltonian                  GFN1-xTB          :
 * total energy  :   -31.4503864 Eh     change       -0.3741008E-11 Eh
 * total energy  :   -31.4564463 Eh     change       -0.6059886E-02 Eh
 * total energy  :   -31.4577303 Eh     change       -0.1284045E-02 Eh
 * total energy  :   -31.4579437 Eh     change       -0.2133988E-03 Eh
 * total energy  :   -31.4580979 Eh     change       -0.1541434E-03 Eh
 * total energy  :   -31.4582209 Eh     change       -0.1229994E-03 Eh
 * total energy  :   -31.4583641 Eh     change       -0.1432409E-03 Eh
 * total energy  :   -31.4585156 Eh     change       -0.1514774E-03 Eh
 * total energy  :   -31.4585915 Eh     change       -0.7590028E-04 Eh
 * total energy  :   -31.4586195 Eh     change       -0.2804211E-04 Eh
 * total energy  :   -31.4586274 Eh     change       -0.7845619E-05 Eh
 * total energy  :   -31.4586270 Eh     change        0.3239994E-06 Eh
 * total energy  :   -31.4586308 Eh     change       -0.3750531E-05 Eh
   *** GEOMETRY OPTIMIZATION CONVERGED AFTER 13 ITERATIONS ***

 final structure:
================
21
 xtb: 6.5.1 (579679a)
C            2.28999642014490        1.31147358737853        0.71244845843553
C            1.38622033285234        0.73012450559241       -0.42474736523514
C           -0.08094346873160        0.76630246796107       -0.04463030455040
C           -0.80050420522428       -0.35575855272189        0.27861440705369
C           -2.23234794604509       -0.18690908782075        0.75668577476135
N           -3.03304407100200        0.59553852238855       -0.20321039136213
C           -0.27957213144585       -1.65905939461298        0.15069309636833
C            1.01417833402730       -1.79225529313178       -0.41430283594512
C            1.73888810797748       -0.69534726214069       -0.72244382293715
F            2.97405988195739       -0.85403816318211       -1.35279797941346
H            3.34180446919445        1.25923125325684        0.42646451708244
H            2.02785756895872        2.35291219821444        0.90358352411591
H            2.14577628875777        0.74124181034758        1.63076097379431
H            1.57837059522861        1.36416680635249       -1.31456104172653
H           -0.54037793846608        1.75068906702984        0.01128708549599
H           -2.70025718565089       -1.16992997016950        0.93090672823645
H           -2.24379329665816        0.35691581857837        1.71200723587004
H           -3.19178220311677        0.03256769905971       -1.02944560990030
H           -3.93832070233727        0.76625548707642        0.20870166605888
H           -0.86690858578358       -2.53526434142152        0.39710709174951
H            1.41070073536254       -2.77885815803580       -0.64190220795151

          :  Hamiltonian                  GFN1-xTB          :
         :: total energy             -31.458630795820 Eh    ::
         :: gradient norm              0.000887886967 Eh/a0 ::
         :: HOMO-LUMO gap              2.576861092138 eV    ::
         :: SCC energy               -31.829194783886 Eh    ::
         :: -> Gsolv                  -0.084701780622 Eh    ::
         :: repulsion energy           0.380440002447 Eh    ::

    * Orbital Energies and Occupations

         #    Occupation            Energy/Eh            Energy/eV
      -------------------------------------------------------------
         1        2.0000           -0.7809112             -21.2497
       ...           ...                  ...                  ...
        16        2.0000           -0.4845706             -13.1858
        17        2.0000           -0.4790057             -13.0344
        18        2.0000           -0.4712710             -12.8239
        19        2.0000           -0.4620305             -12.5725
        20        2.0000           -0.4561779             -12.4132
        21        2.0000           -0.4470498             -12.1648
        22        2.0000           -0.4338977             -11.8070
        23        2.0000           -0.4114655             -11.1965
        24        2.0000           -0.4033908             -10.9768
        25        2.0000           -0.3987355             -10.8501
        26        2.0000           -0.3750236             -10.2049
        27        2.0000           -0.3584959              -9.7552
        28        2.0000           -0.2713197              -7.3830 (HOMO)
        29                         -0.1766218              -4.8061 (LUMO)
        30                         -0.1116378              -3.0378
        31                         -0.0844436              -2.2978
        32                         -0.0796268              -2.1668
        33                         -0.0681507              -1.8545
        34                         -0.0540553              -1.4709
        35                         -0.0495103              -1.3472
        36                         -0.0447392              -1.2174
        37                         -0.0370443              -1.0080
        38                         -0.0240294              -0.6539
        39                         -0.0164227              -0.4469
       ...                                ...                  ...
        62                          0.6652797              18.1032
      -------------------------------------------------------------
                  HL-Gap            0.0946979 Eh            2.5769 eV

Wiberg/Mayer (AO) data.
largest (>0.10) Wiberg bond orders for each atom

     #   Z sym  total        # sym  WBO       # sym  WBO       # sym  WBO
 ---------------------------------------------------------------------------
     1   6 C    3.992 --    13 H    0.989    12 H    0.989    11 H    0.988
                             2 C    0.961
     2   6 C    3.993 --     9 C    1.008     3 C    1.002    14 H    0.967
                             1 C    0.961
     3   6 C    3.905 --     4 C    1.580     2 C    1.002    15 H    0.976
                             7 C    0.114
     4   6 C    3.986 --     3 C    1.580     7 C    1.319     5 C    0.993
     5   6 C    3.968 --     4 C    0.993     6 N    0.979    17 H    0.978
                            16 H    0.977
     6   7 N    2.940 --     5 C    0.979    18 H    0.958    19 H    0.958
     7   6 C    3.879 --     4 C    1.319     8 C    1.272    20 H    0.975
                             3 C    0.114     9 C    0.109
     8   6 C    3.989 --     9 C    1.626     7 C    1.272    21 H    0.972
     9   6 C    3.767 --     8 C    1.626     2 C    1.008    10 F    0.832
                             7 C    0.109
    10   9 F    0.939 --     9 C    0.832
    11   1 H    1.014 --     1 C    0.988
    12   1 H    1.016 --     1 C    0.989
    13   1 H    1.025 --     1 C    0.989
    14   1 H    1.024 --     2 C    0.967
    15   1 H    1.008 --     3 C    0.976
    16   1 H    1.010 --     5 C    0.977
    17   1 H    1.021 --     5 C    0.978
    18   1 H    0.974 --     6 N    0.958
    19   1 H    0.971 --     6 N    0.958
    20   1 H    1.004 --     7 C    0.975
    21   1 H    1.008 --     8 C    0.972
 ---------------------------------------------------------------------------

           -------------------------------------------------
          | TOTAL ENERGY              -31.458630795820 Eh   |
          | GRADIENT NORM               0.000887886967 Eh/α |
          | HOMO-LUMO GAP               2.576861092138 eV   |
           -------------------------------------------------

 * finished run on 2023/06/20 at 15:13:23.919
