   * xtb version 6.5.1 (579679a) compiled by 'ehlert@majestix' on 2022-07-11
          program call               : /lustre/hpc/kemi/ree/PhD/git/ReactivityQM/dep/xtb-6.5.1/bin/xtb --gfn 1 /lustre/hpc/kemi/ree/PhD/git/ReactivityQM/calculations/R02oxygendeprot/reac01prodE12/conf18/R02oxygendeprot_reac01prodE12_conf18_gfn1.xyz --opt --vfukui --chrg -2 --uhf 0 --alpb DMSO

   ID    Z sym.   atoms
    1    6 C      1, 3, 5, 6, 8, 9, 12-15, 17, 19, 22, 23
    2    8 O      2, 4, 7, 10, 18, 24
    3    7 N      11, 16, 20, 21, 25
    4    1 H      26-42

      * Solvation model:               ALPB
        Solvent                        DMSO
        Solvent mass                       7.8130E+01 g/mol
          :  Hamiltonian                  GFN1-xTB          :
 * total energy  :   -83.5999324 Eh     change       -0.1801794E-09 Eh
 * total energy  :   -83.6144410 Eh     change       -0.1450853E-01 Eh
 * total energy  :   -83.6206773 Eh     change       -0.6236302E-02 Eh
 * total energy  :   -83.6220597 Eh     change       -0.1382404E-02 Eh
 * total energy  :   -83.6234487 Eh     change       -0.1388988E-02 Eh
 * total energy  :   -83.6241664 Eh     change       -0.7177169E-03 Eh
 * total energy  :   -83.6248125 Eh     change       -0.6461236E-03 Eh
 * total energy  :   -83.6251974 Eh     change       -0.3848724E-03 Eh
 * total energy  :   -83.6253791 Eh     change       -0.1817457E-03 Eh
 * total energy  :   -83.6255626 Eh     change       -0.1834787E-03 Eh
 * total energy  :   -83.6453777 Eh     change       -0.1432939E-04 Eh
 * total energy  :   -83.6453882 Eh     change       -0.1049749E-04 Eh
 * total energy  :   -83.6453972 Eh     change       -0.8990494E-05 Eh
 * total energy  :   -83.6454090 Eh     change       -0.1175977E-04 Eh
 * total energy  :   -83.6454165 Eh     change       -0.7512707E-05 Eh
 * total energy  :   -83.6454219 Eh     change       -0.5426429E-05 Eh
 * total energy  :   -83.6454273 Eh     change       -0.5435244E-05 Eh
 * total energy  :   -83.6454328 Eh     change       -0.5499003E-05 Eh
 * total energy  :   -83.6454376 Eh     change       -0.4778954E-05 Eh
   *** GEOMETRY OPTIMIZATION CONVERGED AFTER 83 ITERATIONS ***

 final structure:
================
42
 xtb: 6.5.1 (579679a)
C           -5.52834063649774        2.67535535119034        1.29610985684118
O           -4.45578625983104        2.12504530272627        0.55677970897878
C           -3.61918512613949        1.28355970602945        1.26399899376734
O           -3.85509298564783        1.06868047112283        2.45800626202451
C           -2.55061557286895        0.72275471900820        0.50014308748885
C           -2.26447303798412        1.00721492427781       -0.84976930719909
O           -2.91122822812479        1.74020107656674       -1.62524467779334
C           -0.99246987009545        0.28460159976993       -1.40465789302236
C           -1.08796546257231        0.13008157255559       -2.92543159741041
O            0.19158760276088        0.99709097483992       -1.06602270137241
N           -0.95506392513044       -1.02916084353123       -0.78423417599395
C           -0.89436002891573       -0.88781734794135        0.62067895912760
C            0.28800330691737       -1.57597248539377        1.27998653727688
C            0.22274964080428       -3.09857426233295        1.07166722654514
C            0.30116273891936       -1.24687704557783        2.78014813196608
N            1.42736135287332       -0.97329022131663        0.56689941916981
C            2.63424130358314       -1.33257565400317        0.92513107912041
O            3.01829110573827       -2.14254044090408        1.80217271794679
C            3.70286275531558       -0.61476159680332        0.13139063704094
N            4.98705983876934       -0.66585773910625        0.33565785536364
N            5.57584956517351        0.14707162856931       -0.60426343049458
C            4.61267722197268        0.63636052943388       -1.31568870432255
C            4.73387793620283        1.56753683924430       -2.46350488470744
O            3.40933728243182        0.20230357278789       -0.90805350862630
N           -1.65874157293419       -0.09080080508443        1.25136361378833
H           -6.08089775765600        3.33357219265344        0.62506927967705
H           -5.16421029843148        3.25357134828607        2.15359329289022
H           -6.19830024720870        1.89064010632804        1.66693923051031
H           -1.95083737359819       -0.48206330042110       -3.18260709823167
H           -1.19664636545287        1.11247798485432       -3.38352197673106
H           -0.18463908286513       -0.34231867502421       -3.30538564179687
H           -0.15273751270770       -1.54995167608235       -1.12670625459787
H           -0.70753644200676       -3.48871121693386        1.48658082567414
H            0.26024611872876       -3.34161211673321        0.01018088203425
H            1.06025721582042       -3.58719168310036        1.56853181331769
H           -0.63221328865177       -1.58319832232053        3.23488209808403
H            0.38906340262349       -0.16920281382390        2.92666755615954
H            1.13297718931898       -1.74360114733622        3.27757568559129
H            0.80326920100917        0.36760064340808       -0.58520690005098
H            4.11799098589426        2.45198660506933       -2.30222786259665
H            5.77301870513850        1.86559856830163       -2.57706334786308
H            4.39945360528799        1.08277367673469       -3.38056378756760

          :  Hamiltonian                  GFN1-xTB          :
         :: total energy             -83.645437607309 Eh    ::
         :: gradient norm              0.000527803410 Eh/a0 ::
         :: HOMO-LUMO gap              2.335407468355 eV    ::
         :: SCC energy               -84.370856848777 Eh    ::
         :: -> Gsolv                  -0.266405042691 Eh    ::
         :: repulsion energy           0.751953356171 Eh    ::

    * Orbital Energies and Occupations

         #    Occupation            Energy/Eh            Energy/eV
      -------------------------------------------------------------
         1        2.0000           -0.8195623             -22.3014
       ...           ...                  ...                  ...
        56        2.0000           -0.4386269             -11.9356
        57        2.0000           -0.4328867             -11.7794
        58        2.0000           -0.4214539             -11.4683
        59        2.0000           -0.4160687             -11.3218
        60        2.0000           -0.4120842             -11.2134
        61        2.0000           -0.4107399             -11.1768
        62        2.0000           -0.3971337             -10.8066
        63        2.0000           -0.3834640             -10.4346
        64        2.0000           -0.3756710             -10.2225
        65        2.0000           -0.3646528              -9.9227
        66        2.0000           -0.3520283              -9.5792
        67        2.0000           -0.3500540              -9.5255
        68        2.0000           -0.3290062              -8.9527 (HOMO)
        69                         -0.2431815              -6.6173 (LUMO)
        70                         -0.2195352              -5.9739
        71                         -0.2190385              -5.9603
        72                         -0.2001055              -5.4451
        73                         -0.1273414              -3.4651
        74                         -0.1268892              -3.4528
        75                         -0.1132726              -3.0823
        76                         -0.1030217              -2.8034
        77                         -0.0904304              -2.4607
        78                         -0.0861827              -2.3452
        79                         -0.0800582              -2.1785
       ...                                ...                  ...
       134                          0.7574534              20.6114
      -------------------------------------------------------------
                  HL-Gap            0.0858246 Eh            2.3354 eV

Wiberg/Mayer (AO) data.
largest (>0.10) Wiberg bond orders for each atom

     #   Z sym  total        # sym  WBO       # sym  WBO       # sym  WBO
 ---------------------------------------------------------------------------
     1   6 C    3.913 --    26 H    0.987    28 H    0.981    27 H    0.980
                             2 O    0.942
     2   8 O    2.117 --     3 C    0.991     1 C    0.942
     3   6 C    3.853 --     4 O    1.520     5 C    1.211     2 O    0.991
     4   8 O    1.814 --     3 C    1.520
     5   6 C    3.892 --     6 C    1.318     3 C    1.211    25 N    1.045
                             7 O    0.117
     6   6 C    3.923 --     7 O    1.520     5 C    1.318     8 C    0.908
     7   8 O    1.823 --     6 C    1.520     5 C    0.117
     8   6 C    3.890 --     9 C    0.989    11 N    0.949    10 O    0.944
                             6 C    0.908
     9   6 C    3.997 --     8 C    0.989    29 H    0.988    31 H    0.987
                            30 H    0.984
    10   8 O    1.879 --     8 C    0.944    39 H    0.808
    11   7 N    3.130 --    12 C    1.042     8 C    0.949    32 H    0.932
                            25 N    0.100
    12   6 C    3.938 --    25 N    1.741    11 N    1.042    13 C    0.971
    13   6 C    3.970 --    15 C    0.990    14 C    0.981    12 C    0.971
                            16 N    0.967
    14   6 C    3.993 --    33 H    0.988    34 H    0.984    35 H    0.982
                            13 C    0.981
    15   6 C    3.995 --    13 C    0.990    36 H    0.987    37 H    0.986
                            38 H    0.984
    16   7 N    2.990 --    17 C    1.494    13 C    0.967    18 O    0.223
                            39 H    0.109
    17   6 C    3.941 --    16 N    1.494    18 O    1.418    19 C    0.956
    18   8 O    1.771 --    17 C    1.418    16 N    0.223
    19   6 C    3.831 --    20 N    1.623    24 O    1.044    17 C    0.956
    20   7 N    2.967 --    19 C    1.623    21 N    1.168
    21   7 N    2.974 --    22 C    1.637    20 N    1.168
    22   6 C    3.886 --    21 N    1.637    24 O    1.077    23 C    1.025
    23   6 C    3.993 --    22 C    1.025    41 H    0.985    40 H    0.971
                            42 H    0.968
    24   8 O    2.310 --    22 C    1.077    19 C    1.044
    25   7 N    3.016 --    12 C    1.741     5 C    1.045    11 N    0.100
    26   1 H    1.019 --     1 C    0.987
    27   1 H    1.019 --     1 C    0.980
    28   1 H    1.018 --     1 C    0.981
    29   1 H    1.012 --     9 C    0.988
    30   1 H    1.019 --     9 C    0.984
    31   1 H    1.009 --     9 C    0.987
    32   1 H    0.982 --    11 N    0.932
    33   1 H    1.008 --    14 C    0.988
    34   1 H    1.008 --    14 C    0.984
    35   1 H    1.020 --    14 C    0.982
    36   1 H    1.015 --    15 C    0.987
    37   1 H    1.018 --    15 C    0.986
    38   1 H    1.022 --    15 C    0.984
    39   1 H    0.940 --    10 O    0.808    16 N    0.109
    40   1 H    1.001 --    23 C    0.971
    41   1 H    1.003 --    23 C    0.985
    42   1 H    1.001 --    23 C    0.968
 ---------------------------------------------------------------------------

           -------------------------------------------------
          | TOTAL ENERGY              -83.645437607309 Eh   |
          | GRADIENT NORM               0.000527803410 Eh/α |
          | HOMO-LUMO GAP               2.335407468355 eV   |
           -------------------------------------------------

 * finished run on 2023/06/21 at 17:14:33.148
