   * xtb version 6.5.1 (579679a) compiled by 'ehlert@majestix' on 2022-07-11
          program call               : /lustre/hpc/kemi/ree/PhD/git/ReactivityQM/dep/xtb-6.5.1/bin/xtb --gfn 1 /lustre/hpc/kemi/ree/PhD/git/ReactivityQM/calculations/R02oxygendeprot/reac01prodE04/conf04/R02oxygendeprot_reac01prodE04_conf04_gfn1.xyz --opt --vfukui --chrg -2 --uhf 0 --alpb DMSO

   ID    Z sym.   atoms
    1    6 C      1, 3, 5, 6, 8-11, 13, 15, 18, 19, 22, 24
    2    8 O      2, 4, 14, 20, 23, 25
    3    7 N      7, 12, 16, 17, 21
    4    1 H      26-42

      * Solvation model:               ALPB
        Solvent                        DMSO
        Solvent mass                       7.8130E+01 g/mol
          :  Hamiltonian                  GFN1-xTB          :
 * total energy  :   -83.5737468 Eh     change       -0.1882938E-10 Eh
 * total energy  :   -83.5951080 Eh     change       -0.2136121E-01 Eh
 * total energy  :   -83.6023125 Eh     change       -0.7204464E-02 Eh
 * total energy  :   -83.6039415 Eh     change       -0.1629015E-02 Eh
 * total energy  :   -83.6050454 Eh     change       -0.1103922E-02 Eh
 * total energy  :   -83.6055389 Eh     change       -0.4934764E-03 Eh
 * total energy  :   -83.6058527 Eh     change       -0.3138202E-03 Eh
 * total energy  :   -83.6061190 Eh     change       -0.2662956E-03 Eh
 * total energy  :   -83.6063507 Eh     change       -0.2317226E-03 Eh
 * total energy  :   -83.6065898 Eh     change       -0.2390187E-03 Eh
 * total energy  :   -83.6147443 Eh     change       -0.1090988E-04 Eh
 * total energy  :   -83.6147553 Eh     change       -0.1103674E-04 Eh
 * total energy  :   -83.6147679 Eh     change       -0.1261888E-04 Eh
 * total energy  :   -83.6147833 Eh     change       -0.1534541E-04 Eh
 * total energy  :   -83.6148016 Eh     change       -0.1828401E-04 Eh
 * total energy  :   -83.6148179 Eh     change       -0.1636800E-04 Eh
 * total energy  :   -83.6148281 Eh     change       -0.1016677E-04 Eh
 * total energy  :   -83.6148345 Eh     change       -0.6429287E-05 Eh
 * total energy  :   -83.6148388 Eh     change       -0.4302091E-05 Eh
   *** GEOMETRY OPTIMIZATION CONVERGED AFTER 84 ITERATIONS ***

 final structure:
================
42
 xtb: 6.5.1 (579679a)
C           -4.58820303082306        0.70955213962543        1.77607108623483
O           -3.54563692585224        0.36409591533710        0.87430257800139
C           -3.89639481093363        0.30885006522441       -0.43813553871969
O           -5.04529876461864        0.53408780044463       -0.79543359651966
C           -2.72325563354021        0.08673196267391       -1.37744156811722
C           -3.21120786558979       -0.57441879237820       -2.66998083527707
N           -1.69803088944710       -0.73763311809250       -0.75807500847874
C           -0.84650040638329       -0.14937731139749       -0.00052384289315
C            0.10950431183951       -0.97974193249232        0.84385282953012
C           -0.46015076712711       -1.01204495029867        2.26938040819878
C            0.21423713093451       -2.40827172316652        0.29511219798762
N            1.41177241115803       -0.31807885516498        0.91040478310133
C            2.23027698221010       -0.27859726705327       -0.23408490707385
O            1.78230433335781       -0.43739404974993       -1.38590278350390
C            3.58465603801267        0.02690110753415        0.10079623635891
N            4.07509161358511        0.22904701738028        1.33021188395783
N            5.41259924706845        0.47425468293810        1.17704884423938
C            5.67489568727470        0.41268050053407       -0.08792135846560
C            6.99591892918785        0.60251613120599       -0.73772618232657
O            4.58587895906322        0.13830749200565       -0.84481620301367
N           -0.79978573606705        1.19402413872021        0.19413101079124
C           -1.36806147197617        2.11968878406528       -0.73950958265807
O           -0.92750877469952        3.30571946954960       -0.70018943550714
C           -2.31275148022269        1.56665053893361       -1.63507009379312
O           -2.86751769394494        2.18694817869636       -2.60505400336279
H           -4.15942836665641        0.71281659126060        2.77698864451100
H           -5.39831167221533       -0.02436696870744        1.72637904144663
H           -4.99524598129317        1.69895056543102        1.54312454336422
H           -2.39496371029075       -0.62634887783031       -3.39030741710053
H           -3.56497358748061       -1.58449814394699       -2.46646901587562
H           -4.02510126502848        0.00930880301054       -3.09981618643142
H           -1.47119998356843       -1.41813405210737        2.25254533512528
H           -0.49382991614091       -0.00523079897210        2.68438685399549
H            0.15815720019512       -1.63642051482404        2.91220552303884
H           -0.77059612941542       -2.87408984046009        0.31817557504007
H            0.89986873008494       -2.99450818621126        0.90442101035528
H            0.56871475953157       -2.39909755529417       -0.73520244588927
H            1.92275373231016       -0.50750476485860        1.76112945936672
H            6.95709999354735        1.42714729262439       -1.45019041945133
H            7.74496680230389        0.81816517968982        0.02015931455084
H            7.28443217220892       -0.29804356325916       -1.28040162245082
H           -0.04917217055806        1.55932690938719        0.76142588770598

          :  Hamiltonian                  GFN1-xTB          :
         :: total energy             -83.614838825477 Eh    ::
         :: gradient norm              0.000248207172 Eh/a0 ::
         :: HOMO-LUMO gap              0.034669737035 eV    ::
         :: SCC energy               -84.341287884838 Eh    ::
         :: -> Gsolv                  -0.289279941483 Eh    ::
         :: repulsion energy           0.753865628288 Eh    ::

    * Orbital Energies and Occupations

         #    Occupation            Energy/Eh            Energy/eV
      -------------------------------------------------------------
         1        2.0000           -0.8014871             -21.8096
       ...           ...                  ...                  ...
        56        2.0000           -0.4462869             -12.1441
        57        2.0000           -0.4441069             -12.0848
        58        2.0000           -0.4299477             -11.6995
        59        2.0000           -0.4246278             -11.5547
        60        2.0000           -0.4106809             -11.1752
        61        2.0000           -0.4050566             -11.0222
        62        2.0000           -0.4042627             -11.0005
        63        2.0000           -0.3980070             -10.8303
        64        2.0000           -0.3904456             -10.6246
        65        2.0000           -0.3778860             -10.2828
        66        2.0000           -0.3725875             -10.1386
        67        2.0000           -0.3448016              -9.3825
        68        1.3232           -0.2685919              -7.3088 (HOMO)
        69        0.6768           -0.2673178              -7.2741 (LUMO)
        70                         -0.2222651              -6.0481
        71                         -0.2104315              -5.7261
        72                         -0.1991926              -5.4203
        73                         -0.1403185              -3.8183
        74                         -0.1244801              -3.3873
        75                         -0.1230219              -3.3476
        76                         -0.1139710              -3.1013
        77                         -0.1064700              -2.8972
        78                         -0.0958438              -2.6080
        79                         -0.0879699              -2.3938
       ...                                ...                  ...
       134                          0.7142113              19.4347
      -------------------------------------------------------------
                  HL-Gap            0.0012741 Eh            0.0347 eV

Wiberg/Mayer (AO) data.
largest (>0.10) Wiberg bond orders for each atom

     #   Z sym  total        # sym  WBO       # sym  WBO       # sym  WBO
 ---------------------------------------------------------------------------
     1   6 C    3.898 --    26 H    0.987    27 H    0.981    28 H    0.981
                             2 O    0.922
     2   8 O    2.146 --     3 C    1.044     1 C    0.922     4 O    0.107
     3   6 C    3.775 --     4 O    1.593     2 O    1.044     5 C    0.946
     4   8 O    1.858 --     3 C    1.593     2 O    0.107
     5   6 C    3.959 --     6 C    0.991     7 N    0.981     3 C    0.946
                            24 C    0.876
     6   6 C    3.990 --     5 C    0.991    30 H    0.989    29 H    0.987
                            31 H    0.984
     7   7 N    2.936 --     8 C    1.654     5 C    0.981    21 N    0.145
     8   6 C    3.930 --     7 N    1.654    21 N    1.176     9 C    0.968
     9   6 C    3.952 --    11 C    0.991    10 C    0.986     8 C    0.968
                            12 N    0.947
    10   6 C    3.995 --    32 H    0.986    33 H    0.986     9 C    0.986
                            34 H    0.985
    11   6 C    3.993 --     9 C    0.991    36 H    0.988    35 H    0.985
                            37 H    0.980
    12   7 N    3.141 --    13 C    1.066     9 C    0.947    38 H    0.919
                            14 O    0.108
    13   6 C    3.750 --    14 O    1.464    15 C    1.153    12 N    1.066
    14   8 O    1.686 --    13 C    1.464    12 N    0.108
    15   6 C    3.692 --    16 N    1.392    13 C    1.153    20 O    0.977
    16   7 N    2.738 --    15 C    1.392    17 N    1.186
    17   7 N    2.980 --    18 C    1.627    16 N    1.186
    18   6 C    3.820 --    17 N    1.627    20 O    1.051    19 C    1.024
    19   6 C    3.994 --    18 C    1.024    40 H    0.986    39 H    0.971
                            41 H    0.971
    20   8 O    2.184 --    18 C    1.051    15 C    0.977
    21   7 N    3.326 --     8 C    1.176    22 C    0.966    42 H    0.911
                             7 N    0.145
    22   6 C    3.745 --    23 O    1.389    24 C    1.240    21 N    0.966
    23   8 O    1.600 --    22 C    1.389
    24   6 C    3.726 --    25 O    1.373    22 C    1.240     5 C    0.876
    25   8 O    1.573 --    24 C    1.373
    26   1 H    1.016 --     1 C    0.987
    27   1 H    1.014 --     1 C    0.981
    28   1 H    1.013 --     1 C    0.981
    29   1 H    1.012 --     6 C    0.987
    30   1 H    1.011 --     6 C    0.989
    31   1 H    1.027 --     6 C    0.984
    32   1 H    1.009 --    10 C    0.986
    33   1 H    1.007 --    10 C    0.986
    34   1 H    1.003 --    10 C    0.985
    35   1 H    1.019 --    11 C    0.985
    36   1 H    1.005 --    11 C    0.988
    37   1 H    1.022 --    11 C    0.980
    38   1 H    0.973 --    12 N    0.919
    39   1 H    1.001 --    19 C    0.971
    40   1 H    1.004 --    19 C    0.986
    41   1 H    1.001 --    19 C    0.971
    42   1 H    0.975 --    21 N    0.911
 ---------------------------------------------------------------------------

           -------------------------------------------------
          | TOTAL ENERGY              -83.614838825477 Eh   |
          | GRADIENT NORM               0.000248207172 Eh/α |
          | HOMO-LUMO GAP               0.034669737035 eV   |
           -------------------------------------------------

 * finished run on 2023/06/21 at 17:04:38.796
