   * xtb version 6.5.1 (579679a) compiled by 'ehlert@majestix' on 2022-07-11
          program call               : /lustre/hpc/kemi/ree/PhD/git/ReactivityQM/dep/xtb-6.5.1/bin/xtb --gfn 1 /lustre/hpc/kemi/ree/PhD/git/ReactivityQM/calculations/R02oxygendeprot/reac01prodN03/conf07/R02oxygendeprot_reac01prodN03_conf07_gfn1.xyz --opt --vfukui --chrg 0 --uhf 0 --alpb DMSO

   ID    Z sym.   atoms
    1    6 C      1, 3, 5, 6, 8-11, 13, 15, 18, 19, 22, 24
    2    8 O      2, 4, 14, 20, 23, 25
    3    7 N      7, 12, 16, 17, 21
    4    1 H      26-42

      * Solvation model:               ALPB
        Solvent                        DMSO
        Solvent mass                       7.8130E+01 g/mol
          :  Hamiltonian                  GFN1-xTB          :
 * total energy  :   -82.9820346 Eh     change       -0.7034373E-11 Eh
 * total energy  :   -82.9947228 Eh     change       -0.1268820E-01 Eh
 * total energy  :   -82.9998218 Eh     change       -0.5098997E-02 Eh
 * total energy  :   -83.0007882 Eh     change       -0.9663895E-03 Eh
 * total energy  :   -83.0012127 Eh     change       -0.4245230E-03 Eh
 * total energy  :   -83.0013837 Eh     change       -0.1710423E-03 Eh
 * total energy  :   -83.0015066 Eh     change       -0.1228198E-03 Eh
 * total energy  :   -83.0015925 Eh     change       -0.8593714E-04 Eh
 * total energy  :   -83.0016702 Eh     change       -0.7769857E-04 Eh
 * total energy  :   -83.0017587 Eh     change       -0.8850112E-04 Eh
 * total energy  :   -83.0027196 Eh     change       -0.1300586E-04 Eh
 * total energy  :   -83.0027316 Eh     change       -0.1201882E-04 Eh
 * total energy  :   -83.0027431 Eh     change       -0.1147760E-04 Eh
 * total energy  :   -83.0027528 Eh     change       -0.9735566E-05 Eh
 * total energy  :   -83.0027633 Eh     change       -0.1052558E-04 Eh
 * total energy  :   -83.0027709 Eh     change       -0.7593748E-05 Eh
 * total energy  :   -83.0027777 Eh     change       -0.6758867E-05 Eh
 * total energy  :   -83.0027838 Eh     change       -0.6176161E-05 Eh
 * total energy  :   -83.0027878 Eh     change       -0.3923415E-05 Eh
   *** GEOMETRY OPTIMIZATION CONVERGED AFTER 42 ITERATIONS ***

 final structure:
================
42
 xtb: 6.5.1 (579679a)
C           -3.89857850329683        2.57255314671308       -2.25288210273621
O           -3.59926197951416        1.88750352866646       -1.02581083752107
C           -2.75299021528801        0.88285775151586       -1.09038343084246
O           -2.21631941873436        0.48557035617608       -2.08943845931554
C           -2.54576331531320        0.21402069071829        0.30096815571803
C           -2.78780858583478        1.20034208316473        1.44384396246087
N           -1.17506758655767       -0.23894278592157        0.32550687016883
C           -0.85913928486100       -1.39422485657631       -0.09020529178214
C            0.59622172788766       -1.81850135047563       -0.13179724249690
C            0.81965204243763       -2.99198276788606        0.83270509368665
C            0.99721377006167       -2.18638369352113       -1.56759797338387
N            1.37287952641880       -0.66519697738886        0.30923461257412
C            2.71607743954627       -0.64548152002439        0.39098098160973
O            3.45821266526680       -1.58154661342600        0.14699063580726
C            3.19903274891086        0.69370231563623        0.81959181517903
N            2.45929989321382        1.72786647469932        1.08631579276666
N            3.30706194627378        2.74238514520946        1.41748571174496
C            4.51038985870819        2.26152470846718        1.33112919993816
C            5.78664680699074        2.96652616608014        1.58173044177677
O            4.50761347077411        0.97315600616113        0.95834337106443
N           -1.78192849588997       -2.34381587633621       -0.50688647330013
C           -3.13041425891997       -2.22120152088572       -0.35018401046262
O           -3.90741539674406       -3.08518147062897       -0.68494710337388
C           -3.56995318441968       -0.90714412656365        0.30734516681983
O           -4.67736852828533       -0.77331708452666        0.75631560507027
H           -4.41042233887155        1.89416324558665       -2.93794536063340
H           -2.97504607874176        2.92985934304602       -2.71160733171211
H           -4.54290319065012        3.40753334854866       -1.98807116276761
H           -2.55185837636488        0.71557267523942        2.38916416939936
H           -3.83087161826004        1.51053042666894        1.45097798717384
H           -2.15026838910684        2.07240819003867        1.31939103177049
H            1.86438120002978       -3.29616123630861        0.80307739555552
H            0.19879104397667       -3.83657473112425        0.54224167188860
H            0.56254793428646       -2.69167228132379        1.84724932866576
H            0.40072588996007       -3.02355630881012       -1.92311974168971
H            0.84437024391676       -1.33248102427710       -2.22613282347591
H            2.04691135574259       -2.47333402525623       -1.59039392996657
H            0.84785544107214        0.17116321727289        0.54076385175106
H            5.58514351148559        3.98640041307298        1.89954471414186
H            6.38776656272208        2.97987440665817        0.67223579353712
H            6.35431535034407        2.44709102387438        2.35298628443613
H           -1.45972968437178       -3.21590341195862       -0.89832536923924

          :  Hamiltonian                  GFN1-xTB          :
         :: total energy             -83.002787767397 Eh    ::
         :: gradient norm              0.000542382603 Eh/a0 ::
         :: HOMO-LUMO gap              2.410749270848 eV    ::
         :: SCC energy               -83.790573680836 Eh    ::
         :: -> Gsolv                  -0.049782802301 Eh    ::
         :: repulsion energy           0.814355852752 Eh    ::

    * Orbital Energies and Occupations

         #    Occupation            Energy/Eh            Energy/eV
      -------------------------------------------------------------
         1        2.0000           -0.8641050             -23.5135
       ...           ...                  ...                  ...
        55        2.0000           -0.5134813             -13.9725
        56        2.0000           -0.5062745             -13.7764
        57        2.0000           -0.5060518             -13.7704
        58        2.0000           -0.5043121             -13.7230
        59        2.0000           -0.4942160             -13.4483
        60        2.0000           -0.4832173             -13.1490
        61        2.0000           -0.4731749             -12.8757
        62        2.0000           -0.4644223             -12.6376
        63        2.0000           -0.4639562             -12.6249
        64        2.0000           -0.4602823             -12.5249
        65        2.0000           -0.4524814             -12.3126
        66        2.0000           -0.4478091             -12.1855
        67        2.0000           -0.4440587             -12.0835 (HOMO)
        68                         -0.3554653              -9.6727 (LUMO)
        69                         -0.3103833              -8.4460
        70                         -0.2992970              -8.1443
        71                         -0.2731740              -7.4334
        72                         -0.2574657              -7.0060
        73                         -0.2278157              -6.1992
        74                         -0.1983593              -5.3976
        75                         -0.1485770              -4.0430
        76                         -0.1433277              -3.9001
        77                         -0.1428210              -3.8864
        78                         -0.1283551              -3.4927
       ...                                ...                  ...
       134                          0.7571240              20.6024
      -------------------------------------------------------------
                  HL-Gap            0.0885934 Eh            2.4107 eV

Wiberg/Mayer (AO) data.
largest (>0.10) Wiberg bond orders for each atom

     #   Z sym  total        # sym  WBO       # sym  WBO       # sym  WBO
 ---------------------------------------------------------------------------
     1   6 C    3.852 --    28 H    0.985    27 H    0.980    26 H    0.979
                             2 O    0.874
     2   8 O    2.231 --     3 C    1.158     1 C    0.874     4 O    0.140
     3   6 C    3.846 --     4 O    1.697     2 O    1.158     5 C    0.864
     4   8 O    1.965 --     3 C    1.697     2 O    0.140
     5   6 C    3.963 --     6 C    0.981     7 N    0.980    24 C    0.949
                             3 C    0.864
     6   6 C    3.984 --    31 H    0.985    29 H    0.983    30 H    0.982
                             5 C    0.981
     7   7 N    3.049 --     8 C    1.751     5 C    0.980
     8   6 C    3.926 --     7 N    1.751    21 N    1.071     9 C    0.980
     9   6 C    3.939 --     8 C    0.980    11 C    0.978    10 C    0.977
                            12 N    0.937
    10   6 C    3.987 --    34 H    0.985    33 H    0.984    32 H    0.978
                             9 C    0.977
    11   6 C    3.988 --    36 H    0.985    35 H    0.982     9 C    0.978
                            37 H    0.977
    12   7 N    3.354 --    13 C    1.261     9 C    0.937    38 H    0.877
                            14 O    0.180
    13   6 C    3.918 --    14 O    1.587    12 N    1.261    15 C    0.988
    14   8 O    1.907 --    13 C    1.587    12 N    0.180
    15   6 C    3.875 --    16 N    1.612    20 O    1.064    13 C    0.988
    16   7 N    3.014 --    15 C    1.612    17 N    1.199
    17   7 N    2.980 --    18 C    1.606    16 N    1.199
    18   6 C    3.871 --    17 N    1.606    20 O    1.083    19 C    1.031
    19   6 C    3.986 --    18 C    1.031    39 H    0.983    41 H    0.964
                            40 H    0.962
    20   8 O    2.330 --    18 C    1.083    15 C    1.064
    21   7 N    3.429 --    22 C    1.184     8 C    1.071    42 H    0.880
                            23 O    0.149
    22   6 C    3.893 --    23 O    1.677    21 N    1.184    24 C    0.906
    23   8 O    1.961 --    22 C    1.677    21 N    0.149
    24   6 C    3.848 --    25 O    1.813     5 C    0.949    22 C    0.906
    25   8 O    2.028 --    24 C    1.813
    26   1 H    1.003 --     1 C    0.979
    27   1 H    1.004 --     1 C    0.980
    28   1 H    1.007 --     1 C    0.985
    29   1 H    1.001 --     6 C    0.983
    30   1 H    1.008 --     6 C    0.982
    31   1 H    1.003 --     6 C    0.985
    32   1 H    1.007 --    10 C    0.978
    33   1 H    0.999 --    10 C    0.984
    34   1 H    1.001 --    10 C    0.985
    35   1 H    0.998 --    11 C    0.982
    36   1 H    1.001 --    11 C    0.985
    37   1 H    1.007 --    11 C    0.977
    38   1 H    0.968 --    12 N    0.877
    39   1 H    0.998 --    19 C    0.983
    40   1 H    0.997 --    19 C    0.962
    41   1 H    0.997 --    19 C    0.964
    42   1 H    0.928 --    21 N    0.880
 ---------------------------------------------------------------------------

           -------------------------------------------------
          | TOTAL ENERGY              -83.002787767397 Eh   |
          | GRADIENT NORM               0.000542382603 Eh/α |
          | HOMO-LUMO GAP               2.410749270848 eV   |
           -------------------------------------------------

 * finished run on 2023/06/21 at 17:19:09.919
