                         Program Version 5.0.1 -  RELEASE  -
|  1> # ORCA input file
|  2> ! SP r2SCAN-3c CPCM
|  3>
|  4> %maxcore 1875.0
|  5> %pal nprocs 4 end
|  6> %cpcm smd true SMDsolvent "DMSO" end
|  7>
|  8> *xyz 0 1
|  9> C       6.575749   -0.647447    0.788333
| 10> O       5.356321    0.052780    0.526014
| 11> C       4.303162   -0.690042    0.195027
| 12> O       4.340279   -1.897073    0.118809
| 13> C       3.074932    0.113507   -0.083509
| 14> N       1.994045   -0.651704   -0.453051
| 15> C       0.872365   -0.090699   -0.743897
| 16> C      -0.284845   -0.926942   -1.253912
| 17> C      -0.375585   -0.621238   -2.759611
| 18> C      -0.019274   -2.414332   -1.006550
| 19> N      -1.514505   -0.518969   -0.536567
| 20> C      -1.368555   -0.147516    0.874315
| 21> C      -2.724539   -0.873261   -1.041803
| 22> O      -2.875876   -1.533882   -2.059957
| 23> C      -3.937214   -0.375115   -0.338199
| 24> N      -5.144010   -0.764127   -0.620583
| 25> N      -5.990582   -0.035410    0.156225
| 26> C      -5.253243    0.764157    0.861592
| 27> C      -5.696357    1.766085    1.855185
| 28> O      -3.946547    0.598991    0.598255
| 29> N       0.706919    1.268166   -0.714929
| 30> C       1.705637    2.132831   -0.342705
| 31> O       1.552009    3.344285   -0.299811
| 32> C       2.970082    1.475960   -0.013734
| 33> O       3.966099    2.295483    0.339201
| 34> H       6.877653   -1.218120   -0.093262
| 35> H       7.323174    0.107199    1.024432
| 36> H       6.443809   -1.328556    1.632496
| 37> H      -0.952430   -1.378885   -3.283988
| 38> H      -0.833788    0.352542   -2.918711
| 39> H       0.632403   -0.608153   -3.173022
| 40> H       0.091457   -2.604035    0.060035
| 41> H       0.898481   -2.709233   -1.513126
| 42> H      -0.849600   -3.003369   -1.392090
| 43> H      -0.182970    1.677991   -0.956506
| 44> H      -0.372710   -0.428494    1.211411
| 45> H      -1.500439    0.926581    0.998937
| 46> H      -2.104097   -0.678134    1.475870
| 47> H      -5.311257    1.507831    2.841543
| 48> H      -6.782960    1.795051    1.885551
| 49> H      -5.309466    2.749419    1.589436
| 50> H       3.646271    3.215882    0.314219
| 51> **                         ****END OF INPUT****

CARTESIAN COORDINATES (ANGSTROEM)
---------------------------------
  C      6.575749   -0.647447    0.788333
  O      5.356321    0.052780    0.526014
  C      4.303162   -0.690042    0.195027
  O      4.340279   -1.897073    0.118809
  C      3.074932    0.113507   -0.083509
  N      1.994045   -0.651704   -0.453051
  C      0.872365   -0.090699   -0.743897
  C     -0.284845   -0.926942   -1.253912
  C     -0.375585   -0.621238   -2.759611
  C     -0.019274   -2.414332   -1.006550
  N     -1.514505   -0.518969   -0.536567
  C     -1.368555   -0.147516    0.874315
  C     -2.724539   -0.873261   -1.041803
  O     -2.875876   -1.533882   -2.059957
  C     -3.937214   -0.375115   -0.338199
  N     -5.144010   -0.764127   -0.620583
  N     -5.990582   -0.035410    0.156225
  C     -5.253243    0.764157    0.861592
  C     -5.696357    1.766085    1.855185
  O     -3.946547    0.598991    0.598255
  N      0.706919    1.268166   -0.714929
  C      1.705637    2.132831   -0.342705
  O      1.552009    3.344285   -0.299811
  C      2.970082    1.475960   -0.013734
  O      3.966099    2.295483    0.339201
  H      6.877653   -1.218120   -0.093262
  H      7.323174    0.107199    1.024432
  H      6.443809   -1.328556    1.632496
  H     -0.952430   -1.378885   -3.283988
  H     -0.833788    0.352542   -2.918711
  H      0.632403   -0.608153   -3.173022
  H      0.091457   -2.604035    0.060035
  H      0.898481   -2.709233   -1.513126
  H     -0.849600   -3.003369   -1.392090
  H     -0.182970    1.677991   -0.956506
  H     -0.372710   -0.428494    1.211411
  H     -1.500439    0.926581    0.998937
  H     -2.104097   -0.678134    1.475870
  H     -5.311257    1.507831    2.841543
  H     -6.782960    1.795051    1.885551
  H     -5.309466    2.749419    1.589436
  H      3.646271    3.215882    0.314219

 Total Charge           Charge          ....    0
 Multiplicity           Mult            ....    1
 Number of Electrons    NEL             ....  184
 Basis Dimension        Dim             ....  615

ORBITAL ENERGIES
----------------

  NO   OCC          E(Eh)            E(eV)
   0   2.0000     -19.062503      -518.7171
   1   2.0000     -19.003567      -517.1133
   2   2.0000     -19.001268      -517.0508
   3   2.0000     -18.942607      -515.4546
   4   2.0000     -18.937461      -515.3145
   5   2.0000     -18.929870      -515.1079
   6   2.0000     -14.232528      -387.2868
   7   2.0000     -14.210647      -386.6914
   8   2.0000     -14.201830      -386.4514
   9   2.0000     -14.195639      -386.2830
  10   2.0000     -14.169009      -385.5583
  11   2.0000     -10.162188      -276.5272
  12   2.0000     -10.155839      -276.3544
  13   2.0000     -10.153998      -276.3043
  14   2.0000     -10.145171      -276.0641
  15   2.0000     -10.141652      -275.9684
  16   2.0000     -10.129570      -275.6396
  17   2.0000     -10.125646      -275.5328
  18   2.0000     -10.103994      -274.9436
  19   2.0000     -10.095201      -274.7044
  20   2.0000     -10.076630      -274.1991
  21   2.0000     -10.063070      -273.8301
  22   2.0000     -10.044921      -273.3362
  23   2.0000     -10.022203      -272.7180
  24   2.0000     -10.019010      -272.6311
  25   2.0000      -1.152423       -31.3590
  26   2.0000      -1.078400       -29.3447
  27   2.0000      -1.061551       -28.8863
  28   2.0000      -1.025132       -27.8953
  29   2.0000      -1.021127       -27.7863
  30   2.0000      -0.985441       -26.8152
  31   2.0000      -0.974272       -26.5113
  32   2.0000      -0.972320       -26.4582
  33   2.0000      -0.919318       -25.0159
  34   2.0000      -0.885195       -24.0874
  35   2.0000      -0.829585       -22.5741
  36   2.0000      -0.792713       -21.5708
  37   2.0000      -0.749367       -20.3913
  38   2.0000      -0.713516       -19.4158
  39   2.0000      -0.706062       -19.2129
  40   2.0000      -0.687623       -18.7112
  41   2.0000      -0.664853       -18.0916
  42   2.0000      -0.658417       -17.9164
  43   2.0000      -0.653222       -17.7751
  44   2.0000      -0.640148       -17.4193
  45   2.0000      -0.600659       -16.3448
  46   2.0000      -0.590191       -16.0599
  47   2.0000      -0.570440       -15.5224
  48   2.0000      -0.554061       -15.0768
  49   2.0000      -0.540013       -14.6945
  50   2.0000      -0.520964       -14.1762
  51   2.0000      -0.505129       -13.7453
  52   2.0000      -0.497900       -13.5485
  53   2.0000      -0.491866       -13.3844
  54   2.0000      -0.482116       -13.1191
  55   2.0000      -0.463807       -12.6208
  56   2.0000      -0.459866       -12.5136
  57   2.0000      -0.451184       -12.2774
  58   2.0000      -0.441076       -12.0023
  59   2.0000      -0.439824       -11.9682
  60   2.0000      -0.435067       -11.8388
  61   2.0000      -0.422231       -11.4895
  62   2.0000      -0.414279       -11.2731
  63   2.0000      -0.409052       -11.1309
  64   2.0000      -0.399225       -10.8635
  65   2.0000      -0.396448       -10.7879
  66   2.0000      -0.391824       -10.6621
  67   2.0000      -0.387739       -10.5509
  68   2.0000      -0.381184       -10.3725
  69   2.0000      -0.378083       -10.2882
  70   2.0000      -0.371351       -10.1050
  71   2.0000      -0.369780       -10.0622
  72   2.0000      -0.365164        -9.9366
  73   2.0000      -0.360254        -9.8030
  74   2.0000      -0.351913        -9.5760
  75   2.0000      -0.344671        -9.3790
  76   2.0000      -0.343840        -9.3564
  77   2.0000      -0.336923        -9.1681
  78   2.0000      -0.333843        -9.0843
  79   2.0000      -0.321011        -8.7352
  80   2.0000      -0.316842        -8.6217
  81   2.0000      -0.311774        -8.4838
  82   2.0000      -0.285768        -7.7761
  83   2.0000      -0.276136        -7.5141
  84   2.0000      -0.265898        -7.2355
  85   2.0000      -0.265302        -7.2192
  86   2.0000      -0.260957        -7.1010
  87   2.0000      -0.257736        -7.0134
  88   2.0000      -0.244585        -6.6555
  89   2.0000      -0.240250        -6.5375
  90   2.0000      -0.231221        -6.2918
  91   2.0000      -0.216234        -5.8840
  92   0.0000      -0.094836        -2.5806
  93   0.0000      -0.086581        -2.3560
  94   0.0000      -0.043761        -1.1908
  95   0.0000      -0.019394        -0.5277
  96   0.0000       0.010747         0.2924

MULLIKEN ATOMIC CHARGES
-----------------------
   0 C :   -0.311423
   1 O :   -0.160194
   2 C :    0.118464
   3 O :   -0.400466
   4 C :    0.180982
   5 N :   -0.120799
   6 C :    0.171568
   7 C :   -0.043981
   8 C :   -0.583928
   9 C :   -0.601023
  10 N :    0.175164
  11 C :   -0.444564
  12 C :   -0.098242
  13 O :   -0.425056
  14 C :    0.354654
  15 N :   -0.168209
  16 N :   -0.279503
  17 C :    0.384672
  18 C :   -0.636758
  19 O :   -0.038882
  20 N :   -0.010674
  21 C :    0.112591
  22 O :   -0.442902
  23 C :    0.060742
  24 O :   -0.348911
  25 H :    0.175801
  26 H :    0.176753
  27 H :    0.175572
  28 H :    0.203769
  29 H :    0.194727
  30 H :    0.186033
  31 H :    0.190421
  32 H :    0.190240
  33 H :    0.188983
  34 H :    0.332219
  35 H :    0.199188
  36 H :    0.199136
  37 H :    0.178598
  38 H :    0.201666
  39 H :    0.204430
  40 H :    0.199445
  41 H :    0.359699
Sum of atomic charges:   -0.0000000

LOEWDIN ATOMIC CHARGES
----------------------
   0 C :   -0.036621
   1 O :   -0.574139
   2 C :    0.399452
   3 O :   -0.411397
   4 C :    0.208145
   5 N :   -0.553991
   6 C :    0.340010
   7 C :    0.113197
   8 C :   -0.333511
   9 C :   -0.338764
  10 N :   -0.756403
  11 C :   -0.076850
  12 C :    0.390703
  13 O :   -0.464053
  14 C :    0.413742
  15 N :   -0.338319
  16 N :   -0.361312
  17 C :    0.377519
  18 C :   -0.318056
  19 O :   -0.401767
  20 N :   -0.434857
  21 C :    0.369650
  22 O :   -0.466799
  23 C :    0.279955
  24 O :   -0.433839
  25 H :    0.182697
  26 H :    0.185697
  27 H :    0.182267
  28 H :    0.186988
  29 H :    0.177019
  30 H :    0.173713
  31 H :    0.174654
  32 H :    0.177794
  33 H :    0.175069
  34 H :    0.312794
  35 H :    0.204628
  36 H :    0.190835
  37 H :    0.199166
  38 H :    0.191854
  39 H :    0.190844
  40 H :    0.190972
  41 H :    0.311314

  Mayer bond orders larger than 0.100000
B(  0-C ,  1-O ) :   0.8316 B(  0-C , 25-H ) :   0.9547 B(  0-C , 26-H ) :   0.9642
B(  0-C , 27-H ) :   0.9544 B(  1-O ,  2-C ) :   1.1816 B(  2-C ,  3-O ) :   1.9186
B(  2-C ,  4-C ) :   1.0056 B(  4-C ,  5-N ) :   0.9622 B(  4-C , 23-C ) :   1.3612
B(  5-N ,  6-C ) :   1.7436 B(  6-C ,  7-C ) :   0.7953 B(  6-C , 10-N ) :  -0.1702
B(  6-C , 20-N ) :   1.0489 B(  6-C , 23-C ) :   0.1137 B(  7-C ,  8-C ) :   0.8735
B(  7-C ,  9-C ) :   0.9421 B(  7-C , 10-N ) :   0.9672 B(  8-C , 28-H ) :   0.9585
B(  8-C , 29-H ) :   0.9647 B(  8-C , 30-H ) :   0.9499 B(  9-C , 31-H ) :   0.9577
B(  9-C , 32-H ) :   0.9616 B(  9-C , 33-H ) :   0.9643 B( 10-N , 11-C ) :   0.9041
B( 10-N , 12-C ) :   1.2640 B( 11-C , 35-H ) :   0.9172 B( 11-C , 36-H ) :   0.9427
B( 11-C , 37-H ) :   0.9346 B( 12-C , 13-O ) :   1.8483 B( 12-C , 14-C ) :   0.8355
B( 14-C , 15-N ) :   1.6683 B( 14-C , 17-C ) :   0.1053 B( 14-C , 19-O ) :   1.0798
B( 15-N , 16-N ) :   1.2731 B( 16-N , 17-C ) :   1.6348 B( 17-C , 18-C ) :   0.8302
B( 17-C , 19-O ) :   1.0596 B( 18-C , 38-H ) :   0.9388 B( 18-C , 39-H ) :   0.9891
B( 18-C , 40-H ) :   0.9462 B( 20-N , 21-C ) :   1.0579 B( 20-N , 34-H ) :   0.8794
B( 21-C , 22-O ) :   2.0034 B( 21-C , 23-C ) :   0.9422 B( 23-C , 24-O ) :   1.0882
B( 24-O , 41-H ) :   0.8228

Dispersion correction           -0.019352259
FINAL SINGLE POINT ENERGY     -1268.647969615933

DIPOLE MOMENT
-------------
                                X             Y             Z
Electronic contribution:     -0.84267       5.24101      -1.14519
Nuclear contribution   :      1.91664      -2.76056       3.32278
                        -----------------------------------------
Total Dipole Moment    :      1.07397       2.48044       2.17759
                        -----------------------------------------
Magnitude (a.u.)       :      3.47101
Magnitude (Debye)      :      8.82261

Rotational constants in cm-1:     0.016151     0.003392     0.003081
Rotational constants in MHz :   484.188164   101.676824    92.352189

                             ****ORCA TERMINATED NORMALLY****
TOTAL RUN TIME: 0 days 0 hours 2 minutes 15 seconds 507 msec
