   * xtb version 6.5.1 (579679a) compiled by 'ehlert@majestix' on 2022-07-11
          program call               : /lustre/hpc/kemi/ree/PhD/git/ReactivityQM/dep/xtb-6.5.1/bin/xtb --gfn 1 /lustre/hpc/kemi/ree/PhD/git/ReactivityQM/calculations/R02deprot/reac01prodN18/conf04/R02deprot_reac01prodN18_conf04_gfn1.xyz --opt --vfukui --chrg 0 --uhf 0 --alpb DMSO

   ID    Z sym.   atoms
    1    6 C      1, 3, 5, 7-10, 12, 13, 15, 18, 19, 22, 24
    2    8 O      2, 4, 14, 20, 23, 25
    3    7 N      6, 11, 16, 17, 21
    4    1 H      26-42

      * Solvation model:               ALPB
        Solvent                        DMSO
        Solvent mass                       7.8130E+01 g/mol
          :  Hamiltonian                  GFN1-xTB          :
 * total energy  :   -82.9342595 Eh     change       -0.7588596E-11 Eh
 * total energy  :   -82.9468258 Eh     change       -0.1256634E-01 Eh
 * total energy  :   -82.9505365 Eh     change       -0.3710642E-02 Eh
 * total energy  :   -82.9512649 Eh     change       -0.7283849E-03 Eh
 * total energy  :   -82.9517652 Eh     change       -0.5003040E-03 Eh
 * total energy  :   -82.9521065 Eh     change       -0.3413160E-03 Eh
 * total energy  :   -82.9524511 Eh     change       -0.3446560E-03 Eh
 * total energy  :   -82.9528347 Eh     change       -0.3835412E-03 Eh
 * total energy  :   -82.9532024 Eh     change       -0.3676912E-03 Eh
 * total energy  :   -82.9535049 Eh     change       -0.3025594E-03 Eh
 * total energy  :   -83.0066562 Eh     change       -0.7865461E-05 Eh
 * total energy  :   -83.0066726 Eh     change       -0.1638062E-04 Eh
 * total energy  :   -83.0066825 Eh     change       -0.9882997E-05 Eh
 * total energy  :   -83.0066990 Eh     change       -0.1656038E-04 Eh
 * total energy  :   -83.0067112 Eh     change       -0.1217163E-04 Eh
 * total energy  :   -83.0067197 Eh     change       -0.8533371E-05 Eh
 * total energy  :   -83.0067263 Eh     change       -0.6563603E-05 Eh
 * total energy  :   -83.0067314 Eh     change       -0.5092908E-05 Eh
 * total energy  :   -83.0067351 Eh     change       -0.3750989E-05 Eh
   *** GEOMETRY OPTIMIZATION CONVERGED AFTER 132 ITERATIONS ***

 final structure:
================
42
 xtb: 6.5.1 (579679a)
C            6.57574899299126       -0.64744699363298        0.78833348198052
O            5.35632092568139        0.05278039501388        0.52601432042133
C            4.30316222091366       -0.69004207545579        0.19502740904916
O            4.34027898588618       -1.89707265940038        0.11880873916127
C            3.07493186177824        0.11350670059190       -0.08350943092920
N            1.99404535199137       -0.65170363785029       -0.45305079237080
C            0.87236473998212       -0.09069868991637       -0.74389687739328
C           -0.28484508145236       -0.92694232690294       -1.25391171726397
C           -0.37558485822100       -0.62123800715183       -2.75961120113812
C           -0.01927399203605       -2.41433236318214       -1.00654963518886
N           -1.51450545227908       -0.51896857008519       -0.53656687545962
C           -1.36855451614070       -0.14751629887091        0.87431518653060
C           -2.72453930649293       -0.87326119996648       -1.04180292618011
O           -2.87587581813955       -1.53388219696032       -2.05995708122039
C           -3.93721387333184       -0.37511539794732       -0.33819948867320
N           -5.14400955793405       -0.76412713190889       -0.62058262146102
N           -5.99058185123964       -0.03541044215539        0.15622484984101
C           -5.25324345426082        0.76415691421237        0.86159222376791
C           -5.69635716402280        1.76608484879872        1.85518519009127
O           -3.94654719075883        0.59899050783892        0.59825453609694
N            0.70691879731283        1.26816567320687       -0.71492859808758
C            1.70563731247218        2.13283114890021       -0.34270470359201
O            1.55200929996413        3.34428496978743       -0.29981146022194
C            2.97008240107551        1.47595963960776       -0.01373378046571
O            3.96609926055201        2.29548322059358        0.33920056581290
H            6.87765275018749       -1.21812036359943       -0.09326202571434
H            7.32317386600817        0.10719864447278        1.02443215313712
H            6.44380936881533       -1.32855592928735        1.63249581115622
H           -0.95243039233108       -1.37888473972724       -3.28398771658552
H           -0.83378846726240        0.35254249703620       -2.91871112665821
H            0.63240299919463       -0.60815307427637       -3.17302193355518
H            0.09145665596429       -2.60403549195147        0.06003518390790
H            0.89848109780809       -2.70923337501009       -1.51312607512673
H           -0.84959991180087       -3.00336948377224       -1.39209048049096
H           -0.18296977604102        1.67799149051448       -0.95650554512527
H           -0.37271034508862       -0.42849390709619        1.21141103824580
H           -1.50043869699569        0.92658115921483        0.99893737190018
H           -2.10409667483373       -0.67813419333113        1.47587040124169
H           -5.31125652909684        1.50783070728375        2.84154332802553
H           -6.78295960391327        1.79505141095746        1.88555117393533
H           -5.30946645076176        2.74941867897269        1.58943557948281
H            3.64627107587488        3.21588194243456        0.31421854910798

          :  Hamiltonian                  GFN1-xTB          :
         :: total energy             -83.006735143682 Eh    ::
         :: gradient norm              0.000392542586 Eh/a0 ::
         :: HOMO-LUMO gap              2.908572179711 eV    ::
         :: SCC energy               -83.788513395195 Eh    ::
         :: -> Gsolv                  -0.057835993811 Eh    ::
         :: repulsion energy           0.808519884313 Eh    ::

    * Orbital Energies and Occupations

         #    Occupation            Energy/Eh            Energy/eV
      -------------------------------------------------------------
         1        2.0000           -0.8652235             -23.5439
       ...           ...                  ...                  ...
        55        2.0000           -0.5037271             -13.7071
        56        2.0000           -0.4990811             -13.5807
        57        2.0000           -0.4971443             -13.5280
        58        2.0000           -0.4895617             -13.3217
        59        2.0000           -0.4868236             -13.2471
        60        2.0000           -0.4785493             -13.0220
        61        2.0000           -0.4665596             -12.6957
        62        2.0000           -0.4610464             -12.5457
        63        2.0000           -0.4558319             -12.4038
        64        2.0000           -0.4527111             -12.3189
        65        2.0000           -0.4503667             -12.2551
        66        2.0000           -0.4388064             -11.9405
        67        2.0000           -0.4326832             -11.7739 (HOMO)
        68                         -0.3257951              -8.8653 (LUMO)
        69                         -0.3106967              -8.4545
        70                         -0.2860505              -7.7838
        71                         -0.2562400              -6.9726
        72                         -0.2417303              -6.5778
        73                         -0.2041761              -5.5559
        74                         -0.1602210              -4.3598
        75                         -0.1422760              -3.8715
        76                         -0.1380968              -3.7578
        77                         -0.1373252              -3.7368
        78                         -0.1305809              -3.5533
       ...                                ...                  ...
       134                          0.7308504              19.8875
      -------------------------------------------------------------
                  HL-Gap            0.1068881 Eh            2.9086 eV

Wiberg/Mayer (AO) data.
largest (>0.10) Wiberg bond orders for each atom

     #   Z sym  total        # sym  WBO       # sym  WBO       # sym  WBO
 ---------------------------------------------------------------------------
     1   6 C    3.871 --    27 H    0.986    26 H    0.980    28 H    0.979
                             2 O    0.896
     2   8 O    2.205 --     3 C    1.117     1 C    0.896     4 O    0.135
     3   6 C    3.852 --     4 O    1.657     2 O    1.117     5 C    0.997
     4   8 O    1.919 --     3 C    1.657     2 O    0.135
     5   6 C    3.963 --    24 C    1.508     6 N    1.172     3 C    0.997
     6   7 N    3.028 --     7 C    1.597     5 C    1.172
     7   6 C    3.928 --     6 N    1.597    21 N    1.154     8 C    0.978
     8   6 C    3.937 --    10 C    0.992     9 C    0.978     7 C    0.978
                            11 N    0.914
     9   6 C    3.987 --    31 H    0.984    30 H    0.984     8 C    0.978
                            29 H    0.976
    10   6 C    3.989 --     8 C    0.992    32 H    0.984    33 H    0.983
                            34 H    0.983
    11   7 N    3.361 --    13 C    1.244    12 C    0.935     8 C    0.914
                            14 O    0.171
    12   6 C    3.939 --    38 H    0.982    37 H    0.980    36 H    0.980
                            11 N    0.935
    13   6 C    3.918 --    14 O    1.577    11 N    1.244    15 C    0.994
    14   8 O    1.903 --    13 C    1.577    11 N    0.171
    15   6 C    3.873 --    16 N    1.618    20 O    1.047    13 C    0.994
    16   7 N    2.999 --    15 C    1.618    17 N    1.202
    17   7 N    2.983 --    18 C    1.609    16 N    1.202
    18   6 C    3.869 --    17 N    1.609    20 O    1.072    19 C    1.031
    19   6 C    3.986 --    18 C    1.031    40 H    0.982    41 H    0.964
                            39 H    0.962
    20   8 O    2.320 --    18 C    1.072    15 C    1.047
    21   7 N    3.465 --     7 C    1.154    22 C    1.141    35 H    0.883
                            23 O    0.135
    22   6 C    3.910 --    23 O    1.578    21 N    1.141    24 C    1.060
    23   8 O    1.902 --    22 C    1.578    21 N    0.135
    24   6 C    3.920 --     5 C    1.508    25 O    1.109    22 C    1.060
    25   8 O    2.087 --    24 C    1.109    42 H    0.806
    26   1 H    1.007 --     1 C    0.980
    27   1 H    1.011 --     1 C    0.986
    28   1 H    1.007 --     1 C    0.979
    29   1 H    1.013 --     9 C    0.976
    30   1 H    1.000 --     9 C    0.984
    31   1 H    1.002 --     9 C    0.984
    32   1 H    1.003 --    10 C    0.984
    33   1 H    1.008 --    10 C    0.983
    34   1 H    1.006 --    10 C    0.983
    35   1 H    0.927 --    21 N    0.883
    36   1 H    1.003 --    12 C    0.980
    37   1 H    1.011 --    12 C    0.980
    38   1 H    1.004 --    12 C    0.982
    39   1 H    0.997 --    19 C    0.962
    40   1 H    0.998 --    19 C    0.982
    41   1 H    0.996 --    19 C    0.964
    42   1 H    0.845 --    25 O    0.806
 ---------------------------------------------------------------------------

           -------------------------------------------------
          | TOTAL ENERGY              -83.006735143682 Eh   |
          | GRADIENT NORM               0.000392542586 Eh/α |
          | HOMO-LUMO GAP               2.908572179711 eV   |
           -------------------------------------------------

 * finished run on 2023/06/20 at 18:29:44.169
