   * xtb version 6.5.1 (579679a) compiled by 'ehlert@majestix' on 2022-07-11
          program call               : /lustre/hpc/kemi/ree/PhD/git/ReactivityQM/dep/xtb-6.5.1/bin/xtb --gfn 1 /lustre/hpc/kemi/ree/PhD/git/ReactivityQM/calculations/R02oxygendeprot/reac01prodE14/conf05/R02oxygendeprot_reac01prodE14_conf05_gfn1.xyz --opt --vfukui --chrg -2 --uhf 0 --alpb DMSO

   ID    Z sym.   atoms
    1    6 C      1, 3, 5, 7-10, 12, 14, 17, 18, 21, 23, 24
    2    8 O      2, 4, 13, 19, 22, 25
    3    7 N      6, 11, 15, 16, 20
    4    1 H      26-42

      * Solvation model:               ALPB
        Solvent                        DMSO
        Solvent mass                       7.8130E+01 g/mol
          :  Hamiltonian                  GFN1-xTB          :
 * total energy  :   -83.5866412 Eh     change       -0.8025864E-09 Eh
 * total energy  :   -83.6024431 Eh     change       -0.1580193E-01 Eh
 * total energy  :   -83.6093310 Eh     change       -0.6887919E-02 Eh
 * total energy  :   -83.6107289 Eh     change       -0.1397903E-02 Eh
 * total energy  :   -83.6115166 Eh     change       -0.7876691E-03 Eh
 * total energy  :   -83.6118682 Eh     change       -0.3515470E-03 Eh
 * total energy  :   -83.6121301 Eh     change       -0.2619425E-03 Eh
 * total energy  :   -83.6123255 Eh     change       -0.1954285E-03 Eh
 * total energy  :   -83.6124797 Eh     change       -0.1541808E-03 Eh
 * total energy  :   -83.6126366 Eh     change       -0.1569150E-03 Eh
 * total energy  :   -83.6147277 Eh     change       -0.2761729E-04 Eh
 * total energy  :   -83.6147513 Eh     change       -0.2361835E-04 Eh
 * total energy  :   -83.6147749 Eh     change       -0.2357177E-04 Eh
 * total energy  :   -83.6147943 Eh     change       -0.1944133E-04 Eh
 * total energy  :   -83.6148088 Eh     change       -0.1453885E-04 Eh
 * total energy  :   -83.6148229 Eh     change       -0.1404786E-04 Eh
 * total energy  :   -83.6148283 Eh     change       -0.5410912E-05 Eh
 * total energy  :   -83.6148343 Eh     change       -0.6030143E-05 Eh
 * total energy  :   -83.6148387 Eh     change       -0.4375154E-05 Eh
   *** GEOMETRY OPTIMIZATION CONVERGED AFTER 46 ITERATIONS ***

 final structure:
================
42
 xtb: 6.5.1 (579679a)
C           -3.27304617624731        2.58483867523750        2.79069623625331
O           -3.36663261506935        1.61290309731201        1.77418037337428
C           -2.13173549881575        1.14048417587487        1.28787873994746
O           -1.09151842878685        1.61748964495525        1.79710025633744
C           -2.20530908128414        0.14976792187566        0.29922565185902
N           -0.96769449929972       -0.20636559664721       -0.19543993483355
C           -0.81128259782481       -1.12589612250011       -1.07432386255028
C            0.56922668466791       -1.43295212318214       -1.62917531650318
C            0.60139875268166       -1.22197111830624       -3.15123298119231
C            1.00786703345327       -2.86393667451101       -1.27726246666598
N            1.46448283212577       -0.47793329253253       -0.97679935787964
C            2.78172620876515       -0.38839615068245       -1.17584189492663
O            3.44168981338462       -1.06795560903611       -1.95741778675567
C            3.38807547796724        0.66975831638633       -0.32307442299785
N            2.75959419534790        1.44434896471996        0.51054184146941
N            3.69703765328380        2.25939148670762        1.07613278802601
C            4.83550426285189        1.93153605449388        0.55316846844593
C            6.16166162342643        2.52353893731989        0.83783885569370
O            4.71313039152722        0.93518046889852       -0.33907749201850
N           -1.88182264518392       -1.90893545247280       -1.54407008776964
C           -3.13445585695184       -1.77495135951656       -1.00142845055777
O           -3.93599588405842       -2.70909268521693       -1.12953650399608
C           -3.48547128673555       -0.35047950424427       -0.44388876832419
C           -4.65869642597781       -0.57531153110598        0.57472195897591
O           -3.83570378572036        0.40590476550337       -1.49616702396664
H           -4.28963171588624        2.86742087758990        3.07136635038056
H           -2.75456111103590        2.19385968519824        3.67633828167999
H           -2.73576197294878        3.47936567166554        2.44725280326049
H           -0.12796045549986       -1.87739086717180       -3.62418783802371
H            1.58789468763984       -1.45393928457194       -3.54865250922228
H            0.35690334878536       -0.18703827744827       -3.39093686699709
H            2.01376179715171       -3.05455933850114       -1.64733441595286
H            0.33061338814127       -3.58237291012079       -1.73492136982840
H            0.99480385653776       -3.00328144626317       -0.19684655977367
H            1.00861175882174        0.12095259082043       -0.27902731943726
H            6.06566652877414        3.27694654996261        1.61564603792626
H            6.56897259943041        2.98202430853514       -0.06248416568017
H            6.85510432037358        1.74947273212677        1.16437233313412
H           -1.67042299051268       -2.79702860168727       -1.96638239288574
H           -4.29919632352484       -1.00473244800970        1.51079705131243
H           -5.15579542444604        0.37185295431824        0.77539947450239
H           -5.39103143932275       -1.25251748577466        0.13198128615235

          :  Hamiltonian                  GFN1-xTB          :
         :: total energy             -83.614838710797 Eh    ::
         :: gradient norm              0.000917313538 Eh/a0 ::
         :: HOMO-LUMO gap              0.196356651862 eV    ::
         :: SCC energy               -84.349576671770 Eh    ::
         :: -> Gsolv                  -0.303015104104 Eh    ::
         :: repulsion energy           0.760624559421 Eh    ::

    * Orbital Energies and Occupations

         #    Occupation            Energy/Eh            Energy/eV
      -------------------------------------------------------------
         1        2.0000           -0.8479561             -23.0741
       ...           ...                  ...                  ...
        56        2.0000           -0.4426932             -12.0463
        57        2.0000           -0.4365213             -11.8784
        58        2.0000           -0.4314912             -11.7415
        59        2.0000           -0.4248492             -11.5607
        60        2.0000           -0.4201563             -11.4330
        61        2.0000           -0.4151327             -11.2963
        62        2.0000           -0.3996085             -10.8739
        63        2.0000           -0.3926158             -10.6836
        64        2.0000           -0.3832336             -10.4283
        65        2.0000           -0.3724934             -10.1361
        66        2.0000           -0.3067011              -8.3458
        67        1.9962           -0.2993401              -8.1455
        68        1.9580           -0.2970459              -8.0830 (HOMO)
        69        0.0458           -0.2898299              -7.8867 (LUMO)
        70                         -0.2434519              -6.6247
        71                         -0.2125854              -5.7847
        72                         -0.1774130              -4.8277
        73                         -0.1718376              -4.6759
        74                         -0.1378665              -3.7515
        75                         -0.1139136              -3.0997
        76                         -0.1103824              -3.0037
        77                         -0.1047946              -2.8516
        78                         -0.1015172              -2.7624
        79                         -0.0753872              -2.0514
       ...                                ...                  ...
       134                          0.7262147              19.7613
      -------------------------------------------------------------
                  HL-Gap            0.0072160 Eh            0.1964 eV

Wiberg/Mayer (AO) data.
largest (>0.10) Wiberg bond orders for each atom

     #   Z sym  total        # sym  WBO       # sym  WBO       # sym  WBO
 ---------------------------------------------------------------------------
     1   6 C    3.923 --    26 H    0.987    27 H    0.980    28 H    0.980
                             2 O    0.954
     2   8 O    2.080 --     1 C    0.954     3 C    0.929
     3   6 C    3.850 --     4 O    1.437     5 C    1.344     2 O    0.929
     4   8 O    1.742 --     3 C    1.437     5 C    0.111
     5   6 C    3.833 --     3 C    1.344     6 N    1.174    23 C    0.919
                             4 O    0.111
     6   7 N    3.086 --     7 C    1.617     5 C    1.174
     7   6 C    3.901 --     6 N    1.617    20 N    1.013     8 C    0.974
     8   6 C    3.929 --     9 C    0.984    10 C    0.983     7 C    0.974
                            11 N    0.923
     9   6 C    3.991 --    31 H    0.986    29 H    0.986     8 C    0.984
                            30 H    0.983
    10   6 C    3.990 --    34 H    0.986    33 H    0.984     8 C    0.983
                            32 H    0.982
    11   7 N    3.380 --    12 C    1.301     8 C    0.923    35 H    0.868
                            13 O    0.184
    12   6 C    3.912 --    13 O    1.542    11 N    1.301    14 C    0.990
    13   8 O    1.858 --    12 C    1.542    11 N    0.184
    14   6 C    3.847 --    15 N    1.604    19 O    1.050    12 C    0.990
    15   7 N    2.987 --    14 C    1.604    16 N    1.189
    16   7 N    2.981 --    17 C    1.619    15 N    1.189
    17   6 C    3.870 --    16 N    1.619    19 O    1.077    18 C    1.029
    18   6 C    3.989 --    17 C    1.029    36 H    0.983    38 H    0.967
                            37 H    0.965
    19   8 O    2.307 --    17 C    1.077    14 C    1.050
    20   7 N    3.348 --    21 C    1.167     7 C    1.013    39 H    0.913
                            22 O    0.115
    21   6 C    3.814 --    22 O    1.562    20 N    1.167    23 C    0.880
    22   8 O    1.832 --    21 C    1.562    20 N    0.115
    23   6 C    3.964 --    25 O    1.123    24 C    0.945     5 C    0.919
                            21 C    0.880
    24   6 C    3.988 --    40 H    0.991    41 H    0.987    42 H    0.986
                            23 C    0.945
    25   8 O    1.424 --    23 C    1.123
    26   1 H    1.020 --     1 C    0.987
    27   1 H    1.023 --     1 C    0.980
    28   1 H    1.023 --     1 C    0.980
    29   1 H    1.006 --     9 C    0.986
    30   1 H    1.013 --     9 C    0.983
    31   1 H    1.008 --     9 C    0.986
    32   1 H    1.012 --    10 C    0.982
    33   1 H    1.005 --    10 C    0.984
    34   1 H    1.008 --    10 C    0.986
    35   1 H    0.992 --    11 N    0.868
    36   1 H    1.000 --    18 C    0.983
    37   1 H    0.998 --    18 C    0.965
    38   1 H    0.998 --    18 C    0.967
    39   1 H    0.968 --    20 N    0.913
    40   1 H    1.017 --    24 C    0.991
    41   1 H    1.034 --    24 C    0.987
    42   1 H    1.026 --    24 C    0.986
 ---------------------------------------------------------------------------

           -------------------------------------------------
          | TOTAL ENERGY              -83.614838710797 Eh   |
          | GRADIENT NORM               0.000917313538 Eh/α |
          | HOMO-LUMO GAP               0.196356651862 eV   |
           -------------------------------------------------

 * finished run on 2023/06/21 at 17:16:13.531
