   * xtb version 6.5.1 (579679a) compiled by 'ehlert@majestix' on 2022-07-11
          program call               : /lustre/hpc/kemi/ree/PhD/git/ReactivityQM/dep/xtb-6.5.1/bin/xtb --gfn 1 /lustre/hpc/kemi/ree/PhD/git/ReactivityQM/calculations/R02oxygendeprot/reac01prodN03/conf10/R02oxygendeprot_reac01prodN03_conf10_gfn1.xyz --opt --vfukui --chrg 0 --uhf 0 --alpb DMSO

   ID    Z sym.   atoms
    1    6 C      1, 3, 5, 6, 8-11, 13, 15, 18, 19, 22, 24
    2    8 O      2, 4, 14, 20, 23, 25
    3    7 N      7, 12, 16, 17, 21
    4    1 H      26-42

      * Solvation model:               ALPB
        Solvent                        DMSO
        Solvent mass                       7.8130E+01 g/mol
          :  Hamiltonian                  GFN1-xTB          :
 * total energy  :   -82.9823596 Eh     change       -0.7204903E-11 Eh
 * total energy  :   -82.9936206 Eh     change       -0.1126101E-01 Eh
 * total energy  :   -82.9983309 Eh     change       -0.4710287E-02 Eh
 * total energy  :   -82.9993336 Eh     change       -0.1002693E-02 Eh
 * total energy  :   -82.9998764 Eh     change       -0.5427812E-03 Eh
 * total energy  :   -83.0001052 Eh     change       -0.2287631E-03 Eh
 * total energy  :   -83.0002471 Eh     change       -0.1419484E-03 Eh
 * total energy  :   -83.0003612 Eh     change       -0.1141292E-03 Eh
 * total energy  :   -83.0004713 Eh     change       -0.1100890E-03 Eh
 * total energy  :   -83.0005788 Eh     change       -0.1074399E-03 Eh
 * total energy  :   -83.0030063 Eh     change       -0.1317491E-04 Eh
 * total energy  :   -83.0030192 Eh     change       -0.1291724E-04 Eh
 * total energy  :   -83.0030316 Eh     change       -0.1235758E-04 Eh
 * total energy  :   -83.0030437 Eh     change       -0.1219598E-04 Eh
 * total energy  :   -83.0030548 Eh     change       -0.1101085E-04 Eh
 * total energy  :   -83.0030640 Eh     change       -0.9245461E-05 Eh
 * total energy  :   -83.0030736 Eh     change       -0.9630107E-05 Eh
 * total energy  :   -83.0030815 Eh     change       -0.7836262E-05 Eh
 * total energy  :   -83.0030842 Eh     change       -0.2773810E-05 Eh
   *** GEOMETRY OPTIMIZATION CONVERGED AFTER 90 ITERATIONS ***

 final structure:
================
42
 xtb: 6.5.1 (579679a)
C            6.04025915128375        0.46892747140154        0.50624321093366
O            4.97504485758163       -0.26498461552241       -0.11836784933690
C            3.74459779418547        0.09260190779259        0.18156182637248
O            3.44167824921720        0.99305266761687        0.91800065928576
C            2.69159882589470       -0.77011732270283       -0.57292666804579
C            3.24721057452676       -2.14040853380993       -0.95903556780200
N            1.58335906344342       -0.92772726895061        0.33998539997266
C            0.65433934927918       -0.06457891534361        0.38425430271877
C           -0.42729983796263       -0.19747764410325        1.44772465547891
C           -0.21422170897467       -1.49583493002931        2.22777893143163
C           -0.36912969283927        1.00026101280430        2.40418638860363
N           -1.74492796781682       -0.29868460080279        0.80744901627478
C           -2.44785395055928        0.71275891550808        0.26208321890386
O           -2.05823581037140        1.86227193863649        0.12276165152834
C           -3.78086751568856        0.24801675721239       -0.19104996968960
N           -4.23323125500132       -0.96846942063078       -0.12216885223981
N           -5.48451457599269       -0.95240093725810       -0.65757884847364
C           -5.71725556272586        0.27419296432933       -1.01869334009657
C           -6.94099584549744        0.81248053296623       -1.65163573399548
O           -4.67778189535944        1.07792478810469       -0.75223486558771
N            0.56497929661967        1.02031462424339       -0.47189964629457
C            1.31778773956666        1.16858742857207       -1.59369420798959
O            1.16319047015781        2.07911599307167       -2.37725748913117
C            2.36655764002587        0.06775113416945       -1.79743658544100
O            2.91953839623253       -0.08555436606039       -2.85509891590709
H            5.94529515332622        1.53124080327178        0.27355215964175
H            6.96634729220589        0.06777146915311        0.10189739255990
H            6.00009317839960        0.32535167994318        1.58720858023441
H            2.45789400000517       -2.72693225537776       -1.42559959771257
H            3.59912981812729       -2.65893578250811       -0.07038662025327
H            4.06950070113737       -2.02356687926493       -1.66201929539394
H            0.75739834010138       -1.47257746415003        2.71822132293639
H           -0.24205886987222       -2.35176351521301        1.55546116604574
H           -0.99118532863779       -1.60524727355297        2.98161226047197
H           -1.16583904164846        0.91440770923481        3.14092505274589
H           -0.48038632532050        1.94267338009082        1.87297454178438
H            0.59199582382427        0.99711804185390        2.91664734489766
H           -2.19942158967956       -1.19871285136607        0.85920678863142
H           -7.67735923748362        0.01956236491313       -1.75637319885566
H           -6.70334547758352        1.22229719187809       -2.63345976339865
H           -7.35232315363888        1.61631651248315       -1.04158190803455
H           -0.18956307249343        1.68897328739078       -0.32671994776265

          :  Hamiltonian                  GFN1-xTB          :
         :: total energy             -83.003084244131 Eh    ::
         :: gradient norm              0.000375614983 Eh/a0 ::
         :: HOMO-LUMO gap              2.382540601152 eV    ::
         :: SCC energy               -83.788380337328 Eh    ::
         :: -> Gsolv                  -0.049258577635 Eh    ::
         :: repulsion energy           0.812023725565 Eh    ::

    * Orbital Energies and Occupations

         #    Occupation            Energy/Eh            Energy/eV
      -------------------------------------------------------------
         1        2.0000           -0.8668500             -23.5882
       ...           ...                  ...                  ...
        55        2.0000           -0.5114379             -13.9169
        56        2.0000           -0.5095870             -13.8666
        57        2.0000           -0.5091535             -13.8548
        58        2.0000           -0.5043874             -13.7251
        59        2.0000           -0.4908122             -13.3557
        60        2.0000           -0.4862611             -13.2318
        61        2.0000           -0.4748832             -12.9222
        62        2.0000           -0.4701027             -12.7921
        63        2.0000           -0.4620978             -12.5743
        64        2.0000           -0.4570443             -12.4368
        65        2.0000           -0.4561882             -12.4135
        66        2.0000           -0.4504612             -12.2577
        67        2.0000           -0.4383310             -11.9276 (HOMO)
        68                         -0.3507742              -9.5451 (LUMO)
        69                         -0.3165145              -8.6128
        70                         -0.2959641              -8.0536
        71                         -0.2694750              -7.3328
        72                         -0.2596869              -7.0664
        73                         -0.2217850              -6.0351
        74                         -0.2042771              -5.5587
        75                         -0.1470058              -4.0002
        76                         -0.1432712              -3.8986
        77                         -0.1314884              -3.5780
        78                         -0.1266172              -3.4454
       ...                                ...                  ...
       134                          0.7592750              20.6609
      -------------------------------------------------------------
                  HL-Gap            0.0875568 Eh            2.3825 eV

Wiberg/Mayer (AO) data.
largest (>0.10) Wiberg bond orders for each atom

     #   Z sym  total        # sym  WBO       # sym  WBO       # sym  WBO
 ---------------------------------------------------------------------------
     1   6 C    3.853 --    27 H    0.985    26 H    0.980    28 H    0.980
                             2 O    0.875
     2   8 O    2.230 --     3 C    1.156     1 C    0.875     4 O    0.139
     3   6 C    3.845 --     4 O    1.695     2 O    1.156     5 C    0.865
     4   8 O    1.964 --     3 C    1.695     2 O    0.139
     5   6 C    3.964 --     6 C    0.983     7 N    0.981    24 C    0.947
                             3 C    0.865
     6   6 C    3.985 --    30 H    0.985    29 H    0.984     5 C    0.983
                            31 H    0.982
     7   7 N    3.026 --     8 C    1.753     5 C    0.981
     8   6 C    3.929 --     7 N    1.753    21 N    1.082     9 C    0.966
     9   6 C    3.933 --    10 C    1.001    11 C    0.982     8 C    0.966
                            12 N    0.918
    10   6 C    3.990 --     9 C    1.001    34 H    0.985    33 H    0.983
                            32 H    0.982
    11   6 C    3.988 --    37 H    0.984    35 H    0.983     9 C    0.982
                            36 H    0.978
    12   7 N    3.347 --    13 C    1.264     9 C    0.918    38 H    0.891
                            14 O    0.175
    13   6 C    3.915 --    14 O    1.569    12 N    1.264    15 C    0.995
    14   8 O    1.924 --    13 C    1.569    12 N    0.175
    15   6 C    3.877 --    16 N    1.606    20 O    1.065    13 C    0.995
    16   7 N    3.019 --    15 C    1.606    17 N    1.204
    17   7 N    2.981 --    18 C    1.600    16 N    1.204
    18   6 C    3.869 --    17 N    1.600    20 O    1.084    19 C    1.032
    19   6 C    3.986 --    18 C    1.032    39 H    0.982    41 H    0.963
                            40 H    0.962
    20   8 O    2.333 --    18 C    1.084    15 C    1.065
    21   7 N    3.439 --    22 C    1.198     8 C    1.082    42 H    0.848
                            23 O    0.150
    22   6 C    3.897 --    23 O    1.665    21 N    1.198    24 C    0.906
    23   8 O    1.952 --    22 C    1.665    21 N    0.150
    24   6 C    3.845 --    25 O    1.810     5 C    0.947    22 C    0.906
    25   8 O    2.024 --    24 C    1.810
    26   1 H    1.004 --     1 C    0.980
    27   1 H    1.007 --     1 C    0.985
    28   1 H    1.003 --     1 C    0.980
    29   1 H    1.001 --     6 C    0.984
    30   1 H    1.003 --     6 C    0.985
    31   1 H    1.008 --     6 C    0.982
    32   1 H    1.007 --    10 C    0.982
    33   1 H    1.004 --    10 C    0.983
    34   1 H    0.999 --    10 C    0.985
    35   1 H    0.999 --    11 C    0.983
    36   1 H    1.008 --    11 C    0.978
    37   1 H    1.000 --    11 C    0.984
    38   1 H    0.948 --    12 N    0.891
    39   1 H    0.998 --    19 C    0.982
    40   1 H    0.996 --    19 C    0.962
    41   1 H    0.996 --    19 C    0.963
    42   1 H    0.929 --    21 N    0.848
 ---------------------------------------------------------------------------

           -------------------------------------------------
          | TOTAL ENERGY              -83.003084244131 Eh   |
          | GRADIENT NORM               0.000375614983 Eh/α |
          | HOMO-LUMO GAP               2.382540601152 eV   |
           -------------------------------------------------

 * finished run on 2023/06/21 at 17:19:06.165
