   * xtb version 6.5.1 (579679a) compiled by 'ehlert@majestix' on 2022-07-11
          program call               : /lustre/hpc/kemi/ree/PhD/git/ReactivityQM/dep/xtb-6.5.1/bin/xtb --gfn 1 /lustre/hpc/kemi/ree/PhD/git/ReactivityQM/calculations/R02methylcation/reac01prodE06/conf06/R02methylcation_reac01prodE06_conf06_gfn1.xyz --opt --vfukui --chrg -2 --uhf 0 --alpb DMSO

   ID    Z sym.   atoms
    1    6 C      1, 3, 5, 6, 8, 11-15, 17, 19, 22, 23
    2    8 O      2, 4, 7, 9, 18, 24
    3    7 N      10, 16, 20, 21, 25
    4    1 H      26-42

      * Solvation model:               ALPB
        Solvent                        DMSO
        Solvent mass                       7.8130E+01 g/mol
          :  Hamiltonian                  GFN1-xTB          :
 * total energy  :   -83.6068770 Eh     change       -0.4496599E-09 Eh
 * total energy  :   -83.6184458 Eh     change       -0.1156884E-01 Eh
 * total energy  :   -83.6225565 Eh     change       -0.4110712E-02 Eh
 * total energy  :   -83.6234344 Eh     change       -0.8778294E-03 Eh
 * total energy  :   -83.6239296 Eh     change       -0.4952425E-03 Eh
 * total energy  :   -83.6241909 Eh     change       -0.2612980E-03 Eh
 * total energy  :   -83.6244248 Eh     change       -0.2338587E-03 Eh
 * total energy  :   -83.6246402 Eh     change       -0.2154424E-03 Eh
 * total energy  :   -83.6248257 Eh     change       -0.1855002E-03 Eh
 * total energy  :   -83.6249857 Eh     change       -0.1600106E-03 Eh
 * total energy  :   -83.6255451 Eh     change       -0.1477553E-04 Eh
 * total energy  :   -83.6255531 Eh     change       -0.8013868E-05 Eh
 * total energy  :   -83.6255646 Eh     change       -0.1148688E-04 Eh
 * total energy  :   -83.6255740 Eh     change       -0.9383891E-05 Eh
 * total energy  :   -83.6255836 Eh     change       -0.9617387E-05 Eh
 * total energy  :   -83.6255928 Eh     change       -0.9262577E-05 Eh
 * total energy  :   -83.6256001 Eh     change       -0.7304238E-05 Eh
 * total energy  :   -83.6256058 Eh     change       -0.5624828E-05 Eh
 * total energy  :   -83.6256105 Eh     change       -0.4697189E-05 Eh
   *** GEOMETRY OPTIMIZATION CONVERGED AFTER 33 ITERATIONS ***

 final structure:
================
42
 xtb: 6.5.1 (579679a)
C            2.37804898049188        3.71667736564633        0.38869035781487
O            2.09320684481660        2.35146128243546        0.15348657933753
C            3.19229886221602        1.56705001214862       -0.15680742768657
O            4.30041003909477        2.09724143493184       -0.21652092870766
C            2.85254582863161        0.16832286583551       -0.35048948992635
C            3.89419724417544       -0.78345918476959       -0.57539295356025
O            5.11088425759233       -0.50768768181332       -0.80850923178468
C            3.48645415083597       -2.21333171479848       -0.44774592070167
O            4.27523089363340       -3.17109210380271       -0.44011324016417
N            2.15127773165665       -2.45102581732629       -0.21106026974687
C            1.13033843092290       -1.47170893437587       -0.55940322174260
C            0.83255362898926       -1.58170300311200       -2.08230035380844
C           -0.16157657433698       -1.76579986122224        0.27996499687742
C           -0.84557680407210       -3.07836010282807       -0.11472428937992
C            0.21159803445118       -1.78548128902872        1.77068662834597
N           -1.04440589141143       -0.63231225932110        0.01634875377423
C           -2.30276786746735       -0.49653310271270        0.52432681004068
O           -2.93910240593667       -1.40237197628398        1.08697889901226
C           -2.83844108898126        0.83369178688243        0.27789770537043
N           -2.21271307336017        1.83829399927190       -0.30939620706252
N           -3.08460338638379        2.89212359675695       -0.31521162031011
C           -4.17152416515999        2.48775578998058        0.25721896798922
C           -5.40940075460329        3.27119596158583        0.48681197582499
O           -4.10059749983661        1.20237920067234        0.66267400263084
N            1.52685925000332       -0.13424618355472       -0.23825553013294
H            1.43823733239780        4.20924059510919        0.63962313404697
H            3.08232544153215        3.83586729763342        1.22061987288184
H            2.81039017594095        4.19030827476160       -0.50070913196783
H            1.88157774355725       -3.41907308396386       -0.28772158232209
H           -0.03424545067757       -0.97259189509841       -2.33254853833499
H            0.64233611109360       -2.61432944981851       -2.36763431596018
H            1.69387750266802       -1.21800329155984       -2.64225469430918
H           -0.12307565711654       -3.89264062497109       -0.12540396208667
H           -1.29842821583326       -2.99772484051225       -1.10156339604280
H           -1.62800155008913       -3.33011960869535        0.59974694816542
H            0.87744669774681       -2.62324678753221        1.97506175084111
H           -0.68193831331580       -1.88745490215029        2.38486149984852
H            0.72188366437430       -0.85624776155085        2.03021032873992
H           -0.53954750881951        0.22696843406585       -0.21067119541734
H           -5.61019444456110        3.35901742828915        1.55462560605577
H           -5.29555998591881        4.26461985624164        0.05991955527348
H           -6.26227720894240        2.77433027853704        0.02467912830615

          :  Hamiltonian                  GFN1-xTB          :
         :: total energy             -83.625610466867 Eh    ::
         :: gradient norm              0.000444995422 Eh/a0 ::
         :: HOMO-LUMO gap              0.087335396165 eV    ::
         :: SCC energy               -84.347761811061 Eh    ::
         :: -> Gsolv                  -0.274609131792 Eh    ::
         :: repulsion energy           0.749540440546 Eh    ::

    * Orbital Energies and Occupations

         #    Occupation            Energy/Eh            Energy/eV
      -------------------------------------------------------------
         1        2.0000           -0.8192622             -22.2933
       ...           ...                  ...                  ...
        56        2.0000           -0.4441195             -12.0851
        57        2.0000           -0.4417499             -12.0206
        58        2.0000           -0.4217016             -11.4751
        59        2.0000           -0.4189911             -11.4013
        60        2.0000           -0.4133715             -11.2484
        61        2.0000           -0.4097450             -11.1497
        62        2.0000           -0.4049401             -11.0190
        63        2.0000           -0.3978575             -10.8263
        64        2.0000           -0.3924794             -10.6799
        65        2.0000           -0.3799730             -10.3396
        66        2.0000           -0.3668775              -9.9832
        67        2.0000           -0.3350934              -9.1184
        68        1.6882           -0.2762428              -7.5169 (HOMO)
        69        0.3118           -0.2730333              -7.4296 (LUMO)
        70                         -0.2385500              -6.4913
        71                         -0.2230024              -6.0682
        72                         -0.1645759              -4.4783
        73                         -0.1531085              -4.1663
        74                         -0.1298917              -3.5345
        75                         -0.1135220              -3.0891
        76                         -0.1060152              -2.8848
        77                         -0.0983077              -2.6751
        78                         -0.0868135              -2.3623
        79                         -0.0826548              -2.2492
       ...                                ...                  ...
       134                          0.7539050              20.5148
      -------------------------------------------------------------
                  HL-Gap            0.0032095 Eh            0.0873 eV

Wiberg/Mayer (AO) data.
largest (>0.10) Wiberg bond orders for each atom

     #   Z sym  total        # sym  WBO       # sym  WBO       # sym  WBO
 ---------------------------------------------------------------------------
     1   6 C    3.914 --    26 H    0.987    28 H    0.980    27 H    0.980
                             2 O    0.943
     2   8 O    2.115 --     3 C    0.990     1 C    0.943
     3   6 C    3.814 --     4 O    1.556     5 C    1.125     2 O    0.990
     4   8 O    1.830 --     3 C    1.556
     5   6 C    3.911 --    25 N    1.266     6 C    1.227     3 C    1.125
     6   6 C    3.877 --     7 O    1.417     5 C    1.227     8 C    1.008
     7   8 O    1.665 --     6 C    1.417
     8   6 C    3.860 --     9 O    1.528    10 N    1.156     6 C    1.008
     9   8 O    1.796 --     8 C    1.528    10 N    0.128
    10   7 N    3.250 --     8 C    1.156    11 C    0.929    29 H    0.916
                             9 O    0.128
    11   6 C    3.942 --    25 N    1.026    12 C    0.960    13 C    0.945
                            10 N    0.929
    12   6 C    3.977 --    31 H    0.986    30 H    0.985    32 H    0.985
                            11 C    0.960
    13   6 C    3.935 --    14 C    1.000    15 C    0.990    11 C    0.945
                            16 N    0.937
    14   6 C    3.994 --    13 C    1.000    34 H    0.984    33 H    0.983
                            35 H    0.979
    15   6 C    3.993 --    13 C    0.990    37 H    0.986    36 H    0.985
                            38 H    0.982
    16   7 N    3.269 --    17 C    1.194    13 C    0.937    39 H    0.888
                            18 O    0.145
    17   6 C    3.830 --    18 O    1.481    16 N    1.194    19 C    1.071
    18   8 O    1.758 --    17 C    1.481    16 N    0.145
    19   6 C    3.742 --    20 N    1.480    17 C    1.071    24 O    1.004
    20   7 N    2.843 --    19 C    1.480    21 N    1.185
    21   7 N    2.980 --    22 C    1.626    20 N    1.185
    22   6 C    3.837 --    21 N    1.626    24 O    1.061    23 C    1.026
    23   6 C    3.992 --    22 C    1.026    41 H    0.985    42 H    0.970
                            40 H    0.969
    24   8 O    2.228 --    22 C    1.061    19 C    1.004
    25   7 N    2.673 --     5 C    1.266    11 C    1.026
    26   1 H    1.019 --     1 C    0.987
    27   1 H    1.018 --     1 C    0.980
    28   1 H    1.018 --     1 C    0.980
    29   1 H    0.970 --    10 N    0.916
    30   1 H    1.015 --    12 C    0.985
    31   1 H    1.007 --    12 C    0.986
    32   1 H    1.011 --    12 C    0.985
    33   1 H    1.005 --    14 C    0.983
    34   1 H    1.008 --    14 C    0.984
    35   1 H    1.021 --    14 C    0.979
    36   1 H    1.013 --    15 C    0.985
    37   1 H    1.012 --    15 C    0.986
    38   1 H    1.024 --    15 C    0.982
    39   1 H    1.001 --    16 N    0.888
    40   1 H    1.000 --    23 C    0.969
    41   1 H    1.003 --    23 C    0.985
    42   1 H    1.000 --    23 C    0.970
 ---------------------------------------------------------------------------

           -------------------------------------------------
          | TOTAL ENERGY              -83.625610466867 Eh   |
          | GRADIENT NORM               0.000444995422 Eh/α |
          | HOMO-LUMO GAP               0.087335396165 eV   |
           -------------------------------------------------

 * finished run on 2023/06/21 at 17:15:28.126
