   * xtb version 6.5.1 (579679a) compiled by 'ehlert@majestix' on 2022-07-11
          program call               : /lustre/hpc/kemi/ree/PhD/git/ReactivityQM/dep/xtb-6.5.1/bin/xtb --gfn 1 /lustre/hpc/kemi/ree/PhD/git/ReactivityQM/calculations/R02/reac01prodE11/conf06/R02_reac01prodE11_conf06_gfn1.xyz --opt --vfukui --chrg -1 --uhf 0 --alpb DMSO

   ID    Z sym.   atoms
    1    6 C      1, 3, 5, 7-10, 12, 14, 17-19, 22, 24
    2    8 O      2, 4, 13, 20, 23, 25
    3    7 N      6, 11, 15, 16, 21
    4    1 H      26-43

      * Solvation model:               ALPB
        Solvent                        DMSO
        Solvent mass                       7.8130E+01 g/mol
          :  Hamiltonian                  GFN1-xTB          :
 * total energy  :   -83.8696373 Eh     change       -0.4204992E-10 Eh
 * total energy  :   -83.8798363 Eh     change       -0.1019892E-01 Eh
 * total energy  :   -83.8839427 Eh     change       -0.4106397E-02 Eh
 * total energy  :   -83.8848049 Eh     change       -0.8622195E-03 Eh
 * total energy  :   -83.8855394 Eh     change       -0.7345460E-03 Eh
 * total energy  :   -83.8858588 Eh     change       -0.3193184E-03 Eh
 * total energy  :   -83.8861165 Eh     change       -0.2577115E-03 Eh
 * total energy  :   -83.8862953 Eh     change       -0.1788542E-03 Eh
 * total energy  :   -83.8864388 Eh     change       -0.1435201E-03 Eh
 * total energy  :   -83.8865389 Eh     change       -0.1000622E-03 Eh
 * total energy  :   -83.8871618 Eh     change       -0.2861898E-04 Eh
 * total energy  :   -83.8871784 Eh     change       -0.1663706E-04 Eh
 * total energy  :   -83.8871910 Eh     change       -0.1262756E-04 Eh
 * total energy  :   -83.8872065 Eh     change       -0.1548225E-04 Eh
 * total energy  :   -83.8872162 Eh     change       -0.9667619E-05 Eh
 * total energy  :   -83.8872327 Eh     change       -0.1646050E-04 Eh
 * total energy  :   -83.8872429 Eh     change       -0.1020031E-04 Eh
 * total energy  :   -83.8872496 Eh     change       -0.6718487E-05 Eh
 * total energy  :   -83.8872541 Eh     change       -0.4565724E-05 Eh
   *** GEOMETRY OPTIMIZATION CONVERGED AFTER 28 ITERATIONS ***

 final structure:
================
43
 xtb: 6.5.1 (579679a)
C            6.26765765319374        2.35753111518678        0.56504843780016
O            5.32187369256348        1.28484653183459        0.47394375632826
C            4.20008681946604        1.55371659333192       -0.21770623432699
O            4.00404027137530        2.62956254899299       -0.73396785350774
C            3.24598203175559        0.41575832772927       -0.27192782815532
N            2.07847910494893        0.73543238805860       -0.92073436716008
C            1.15064884867473       -0.16242523514807       -1.02582752278301
C           -0.14766977600056        0.16354780532136       -1.75362405832385
C           -0.23046252828102       -0.67492867244094       -3.04073272454199
C           -0.16573069755415        1.65225217498669       -2.10982705566039
N           -1.30191257615488       -0.09396030373386       -0.90414498471992
C           -1.66163704981612       -1.32817990448266       -0.37092024168882
O           -1.05605120240612       -2.39606441792744       -0.69694377771919
C           -2.73746943724215       -1.28006125594604        0.52203344608958
N           -3.28039671697054       -2.29384658956149        1.19312911363272
N           -4.22905902671179       -1.88555965388838        1.96639487882050
C           -4.34971738304365       -0.42693869179525        1.80804006322204
C           -4.07366981168388        0.26380487248259        3.15215042336328
C           -5.75009500882121       -0.07633327187317        1.28384040095485
O           -3.36082828806935       -0.06176547661453        0.85386515113507
N            1.28538777763598       -1.41351916435584       -0.53126277277438
C            2.39360559360491       -1.85820087896218        0.13647542186467
O            2.47089025371536       -2.99557196986345        0.58417971353247
C            3.44831362295463       -0.83780791379211        0.24993512279987
O            4.55182958090930       -1.25557420011769        0.89306788163567
H            5.80227358936446        3.22561566812905        1.03736565158120
H            7.09527282229829        1.99635708569018        1.17014182307896
H            6.61790163402657        2.63141914843998       -0.43264251791368
H            0.61770043651321       -0.44341759713932       -3.68350896297698
H           -0.22204839092491       -1.73986668689460       -2.81528322907301
H           -1.15167125157950       -0.43413626173614       -3.56921804761761
H           -1.09495045619434        1.90014311170276       -2.61958608641039
H            0.67269893940954        1.88593988868922       -2.76418248122324
H           -0.07946768849472        2.25839734734724       -1.20894790388603
H           -1.70086753059770        0.71453178681350       -0.45268744867034
H           -3.06954669182454        0.01100847091889        3.48890761689911
H           -4.14963424534789        1.34368029450913        3.04145814769430
H           -4.79409034413531       -0.07458574202895        3.89410878752322
H           -6.50334188053400       -0.41284525112109        1.99357080704330
H           -5.83979807715990        0.99929059290184        1.14467827894841
H           -5.91257094595233       -0.57267441789712        0.32843761689358
H            0.40532920285212       -2.02232975090448       -0.61295132155074
H            5.23271813022070       -0.56693844481738        0.95585487983391

          :  Hamiltonian                  GFN1-xTB          :
         :: total energy             -83.887254143203 Eh    ::
         :: gradient norm              0.000359867905 Eh/a0 ::
         :: HOMO-LUMO gap              0.455886879104 eV    ::
         :: SCC energy               -84.639393877834 Eh    ::
         :: -> Gsolv                  -0.114548747120 Eh    ::
         :: repulsion energy           0.778546048318 Eh    ::

    * Orbital Energies and Occupations

         #    Occupation            Energy/Eh            Energy/eV
      -------------------------------------------------------------
         1        2.0000           -0.8361082             -22.7517
       ...           ...                  ...                  ...
        56        2.0000           -0.4741697             -12.9028
        57        2.0000           -0.4737881             -12.8924
        58        2.0000           -0.4632971             -12.6070
        59        2.0000           -0.4519410             -12.2979
        60        2.0000           -0.4425469             -12.0423
        61        2.0000           -0.4417450             -12.0205
        62        2.0000           -0.4303812             -11.7113
        63        2.0000           -0.4219770             -11.4826
        64        2.0000           -0.4142691             -11.2728
        65        2.0000           -0.4104167             -11.1680
        66        2.0000           -0.4013083             -10.9202
        67        2.0000           -0.3765812             -10.2473
        68        1.9997           -0.3244031              -8.8275 (HOMO)
        69        0.0003           -0.3076496              -8.3716 (LUMO)
        70                         -0.2622472              -7.1361
        71                         -0.2477418              -6.7414
        72                         -0.2245089              -6.1092
        73                         -0.1414977              -3.8503
        74                         -0.1346885              -3.6651
        75                         -0.1336986              -3.6381
        76                         -0.1126010              -3.0640
        77                         -0.1102793              -3.0009
        78                         -0.1057982              -2.8789
        79                         -0.0999501              -2.7198
       ...                                ...                  ...
       136                          0.7372503              20.0616
      -------------------------------------------------------------
                  HL-Gap            0.0167535 Eh            0.4559 eV

Wiberg/Mayer (AO) data.
largest (>0.10) Wiberg bond orders for each atom

     #   Z sym  total        # sym  WBO       # sym  WBO       # sym  WBO
 ---------------------------------------------------------------------------
     1   6 C    3.867 --    27 H    0.986    28 H    0.980    26 H    0.980
                             2 O    0.890
     2   8 O    2.196 --     3 C    1.078     1 C    0.890     4 O    0.126
     3   6 C    3.842 --     4 O    1.665     2 O    1.078     5 C    1.014
     4   8 O    1.926 --     3 C    1.665     2 O    0.126
     5   6 C    3.964 --    24 C    1.498     6 N    1.181     3 C    1.014
     6   7 N    3.015 --     7 C    1.557     5 C    1.181
     7   6 C    3.928 --     6 N    1.557    21 N    1.219     8 C    0.967
     8   6 C    3.957 --    10 C    1.001     9 C    0.980     7 C    0.967
                            11 N    0.949
     9   6 C    3.991 --    29 H    0.987    31 H    0.984     8 C    0.980
                            30 H    0.979
    10   6 C    3.994 --     8 C    1.001    32 H    0.986    33 H    0.985
                            34 H    0.984
    11   7 N    3.220 --    12 C    1.100     8 C    0.949    35 H    0.906
    12   6 C    3.923 --    13 O    1.339    14 C    1.279    11 N    1.100
                            16 N    0.105
    13   8 O    1.831 --    12 C    1.339    42 H    0.157
    14   6 C    3.847 --    15 N    1.358    12 C    1.279    20 O    0.928
                            16 N    0.139
    15   7 N    3.025 --    16 N    1.513    14 C    1.358
    16   7 N    2.902 --    15 N    1.513    17 C    0.978    14 C    0.139
                            12 C    0.105
    17   6 C    3.897 --    19 C    0.979    18 C    0.979    16 N    0.978
                            20 O    0.920
    18   6 C    3.994 --    38 H    0.988    37 H    0.986    36 H    0.985
                            17 C    0.979
    19   6 C    3.994 --    39 H    0.988    40 H    0.986    41 H    0.985
                            17 C    0.979
    20   8 O    2.054 --    14 C    0.928    17 C    0.920
    21   7 N    3.459 --     7 C    1.219    22 C    1.162    42 H    0.726
                            23 O    0.135
    22   6 C    3.917 --    23 O    1.568    21 N    1.162    24 C    1.057
    23   8 O    1.862 --    22 C    1.568    21 N    0.135
    24   6 C    3.913 --     5 C    1.498    25 O    1.092    22 C    1.057
    25   8 O    2.074 --    24 C    1.092    43 H    0.809
    26   1 H    1.008 --     1 C    0.980
    27   1 H    1.010 --     1 C    0.986
    28   1 H    1.008 --     1 C    0.980
    29   1 H    1.004 --     9 C    0.987
    30   1 H    1.016 --     9 C    0.979
    31   1 H    1.005 --     9 C    0.984
    32   1 H    1.002 --    10 C    0.986
    33   1 H    1.011 --    10 C    0.985
    34   1 H    1.007 --    10 C    0.984
    35   1 H    0.956 --    11 N    0.906
    36   1 H    1.013 --    18 C    0.985
    37   1 H    1.007 --    18 C    0.986
    38   1 H    1.009 --    18 C    0.988
    39   1 H    1.009 --    19 C    0.988
    40   1 H    1.007 --    19 C    0.986
    41   1 H    1.013 --    19 C    0.985
    42   1 H    0.918 --    21 N    0.726    13 O    0.157
    43   1 H    0.860 --    25 O    0.809
 ---------------------------------------------------------------------------

           -------------------------------------------------
          | TOTAL ENERGY              -83.887254143203 Eh   |
          | GRADIENT NORM               0.000359867905 Eh/α |
          | HOMO-LUMO GAP               0.455886879104 eV   |
           -------------------------------------------------

 * finished run on 2023/06/20 at 15:13:26.058
