   * xtb version 6.5.1 (579679a) compiled by 'ehlert@majestix' on 2022-07-11
          program call               : /lustre/hpc/kemi/ree/PhD/git/ReactivityQM/dep/xtb-6.5.1/bin/xtb --gfn 1 /lustre/hpc/kemi/ree/PhD/git/ReactivityQM/calculations/R02oxygendeprot/reac01prodN06/conf14/R02oxygendeprot_reac01prodN06_conf14_gfn1.xyz --opt --vfukui --chrg 0 --uhf 0 --alpb DMSO

   ID    Z sym.   atoms
    1    6 C      1, 3, 5, 7-10, 12, 14, 16, 17, 20, 22, 24
    2    8 O      2, 4, 13, 15, 23, 25
    3    7 N      6, 11, 18, 19, 21
    4    1 H      26-42

      * Solvation model:               ALPB
        Solvent                        DMSO
        Solvent mass                       7.8130E+01 g/mol
          :  Hamiltonian                  GFN1-xTB          :
 * total energy  :   -82.9558666 Eh     change       -0.9563337E-09 Eh
 * total energy  :   -82.9702515 Eh     change       -0.1438489E-01 Eh
 * total energy  :   -82.9767737 Eh     change       -0.6522260E-02 Eh
 * total energy  :   -82.9781217 Eh     change       -0.1347937E-02 Eh
 * total energy  :   -82.9792726 Eh     change       -0.1150880E-02 Eh
 * total energy  :   -82.9798063 Eh     change       -0.5337440E-03 Eh
 * total energy  :   -82.9802477 Eh     change       -0.4413651E-03 Eh
 * total energy  :   -82.9805727 Eh     change       -0.3250479E-03 Eh
 * total energy  :   -82.9807737 Eh     change       -0.2010058E-03 Eh
 * total energy  :   -82.9809095 Eh     change       -0.1357876E-03 Eh
 * total energy  :   -82.9816804 Eh     change       -0.9474213E-05 Eh
 * total energy  :   -82.9816944 Eh     change       -0.1399625E-04 Eh
 * total energy  :   -82.9817020 Eh     change       -0.7618749E-05 Eh
 * total energy  :   -82.9817092 Eh     change       -0.7207722E-05 Eh
 * total energy  :   -82.9817171 Eh     change       -0.7908077E-05 Eh
 * total energy  :   -82.9817240 Eh     change       -0.6898040E-05 Eh
 * total energy  :   -82.9817305 Eh     change       -0.6447086E-05 Eh
 * total energy  :   -82.9817336 Eh     change       -0.3102300E-05 Eh
 * total energy  :   -82.9817384 Eh     change       -0.4784553E-05 Eh
   *** GEOMETRY OPTIMIZATION CONVERGED AFTER 34 ITERATIONS ***

 final structure:
================
42
 xtb: 6.5.1 (579679a)
C            5.99047207383292        0.83912103322784        2.02588514634208
O            4.79944335597225        0.61756643050146        1.28059764132073
C            4.73763321693303        1.23780658365435        0.06614973118465
O            5.66183883786584        1.93090077822722       -0.32325119631782
C            3.49274174814115        0.95928168130488       -0.63812171235724
N            2.59841041389043        0.15707840877420        0.03942005225325
C            1.47466059777412       -0.15668738758287       -0.48789845558469
C            0.51685183266667       -1.07368061656821        0.23977346142394
C            0.89072827698926       -1.15653033334476        1.72137753001285
C            0.53665663341938       -2.45801386355965       -0.42275504133987
N           -0.83760313767718       -0.48888663988915        0.11507834578903
C           -1.93572061008371       -1.08534490134091        0.57702601092120
O           -2.02506374162150       -2.16029902287763        1.14333800694048
C           -3.17531385926065       -0.27839012676801        0.33133163116020
O           -3.19283278588991        0.90935587263761       -0.25936580870535
C           -4.48050256558461        1.29997311159335       -0.27195531833014
C           -4.86870371258999        2.59210400218022       -0.86209091606340
N           -5.24594001874413        0.40728190266866        0.28418050708266
N           -4.41349791422841       -0.58071659282922        0.66322584533607
C           -4.94551457945248       -1.76361476856420        1.30578483017902
N            1.11230640843411        0.26625498926151       -1.75177492669518
C            1.89785584835210        1.08016012450178       -2.53606432470611
O            1.49861884026096        1.42482433169718       -3.64210857035967
C            3.22998550687467        1.47897372560586       -1.93635711441874
O            3.98596862436552        2.20724309010757       -2.59743422267367
H            5.89436622142629        0.27400249120065        2.95189966258155
H            6.11263544049915        1.90314050309114        2.25227106375805
H            6.86646713051634        0.49178324541050        1.46840545078417
H            0.79961678293783       -0.17402784648198        2.18190298455396
H            0.23902999756191       -1.85715865142489        2.23833261684482
H            1.92388140717609       -1.49150717299224        1.80783066982135
H           -0.09324277763388       -3.15626649960370        0.12387579392417
H            1.55910286671676       -2.83429545240242       -0.42783396569587
H            0.17882462985921       -2.38505476704852       -1.44799262830244
H           -0.92678849170235        0.43012175971867       -0.28870259104830
H           -5.94579921683895        2.72098243852797       -0.79170290746801
H           -4.55643290572419        2.62721525364023       -1.90649415568551
H           -4.36327645287503        3.40251491815507       -0.33508822962799
H           -4.23396458291557       -2.10900524503805        2.05306120965842
H           -5.08713174906455       -2.53675717839886        0.55087756069929
H           -5.89803505223599       -1.50072299766897        1.75833724571684
H            0.22726746164575       -0.01072761130071       -2.13720191291184

          :  Hamiltonian                  GFN1-xTB          :
         :: total energy             -82.981738368909 Eh    ::
         :: gradient norm              0.000824991239 Eh/a0 ::
         :: HOMO-LUMO gap              0.184196820066 eV    ::
         :: SCC energy               -83.770235844925 Eh    ::
         :: -> Gsolv                  -0.115333817761 Eh    ::
         :: repulsion energy           0.813632244335 Eh    ::

    * Orbital Energies and Occupations

         #    Occupation            Energy/Eh            Energy/eV
      -------------------------------------------------------------
         1        2.0000           -0.9288539             -25.2754
       ...           ...                  ...                  ...
        55        2.0000           -0.5094401             -13.8626
        56        2.0000           -0.5052943             -13.7498
        57        2.0000           -0.5013324             -13.6419
        58        2.0000           -0.4914812             -13.3739
        59        2.0000           -0.4851709             -13.2022
        60        2.0000           -0.4714887             -12.8299
        61        2.0000           -0.4696164             -12.7789
        62        2.0000           -0.4648608             -12.6495
        63        2.0000           -0.4496095             -12.2345
        64        2.0000           -0.4438355             -12.0774
        65        2.0000           -0.4270739             -11.6213
        66        2.0000           -0.3861038             -10.5064
        67        1.9448           -0.3743959             -10.1878 (HOMO)
        68        0.0552           -0.3676268             -10.0036 (LUMO)
        69                         -0.3165250              -8.6131
        70                         -0.2776704              -7.5558
        71                         -0.2507647              -6.8237
        72                         -0.2454847              -6.6800
        73                         -0.2037363              -5.5439
        74                         -0.1658611              -4.5133
        75                         -0.1632798              -4.4431
        76                         -0.1276040              -3.4723
        77                         -0.1255434              -3.4162
        78                         -0.1242703              -3.3816
       ...                                ...                  ...
       134                          0.7645568              20.8046
      -------------------------------------------------------------
                  HL-Gap            0.0067691 Eh            0.1842 eV

Wiberg/Mayer (AO) data.
largest (>0.10) Wiberg bond orders for each atom

     #   Z sym  total        # sym  WBO       # sym  WBO       # sym  WBO
 ---------------------------------------------------------------------------
     1   6 C    3.896 --    26 H    0.987    27 H    0.980    28 H    0.980
                             2 O    0.923
     2   8 O    2.142 --     3 C    1.035     1 C    0.923     4 O    0.112
     3   6 C    3.848 --     4 O    1.603     5 C    1.104     2 O    1.035
     4   8 O    1.872 --     3 C    1.603     2 O    0.112
     5   6 C    3.885 --    24 C    1.254     6 N    1.167     3 C    1.104
                            25 O    0.122
     6   7 N    3.029 --     7 C    1.623     5 C    1.167
     7   6 C    3.918 --     6 N    1.623    21 N    1.094     8 C    0.980
     8   6 C    3.910 --     9 C    0.991    10 C    0.981     7 C    0.980
                            11 N    0.892
     9   6 C    3.987 --     8 C    0.991    29 H    0.985    30 H    0.984
                            31 H    0.981
    10   6 C    3.985 --    34 H    0.985    33 H    0.984     8 C    0.981
                            32 H    0.980
    11   7 N    3.391 --    12 C    1.314     8 C    0.892    35 H    0.888
                            13 O    0.199
    12   6 C    3.920 --    13 O    1.568    11 N    1.314    14 C    0.964
    13   8 O    1.922 --    12 C    1.568    11 N    0.199
    14   6 C    3.802 --    19 N    1.430    15 O    1.116    12 C    0.964
    15   8 O    2.355 --    14 C    1.116    16 C    1.066
    16   6 C    3.839 --    18 N    1.581    15 O    1.066    17 C    1.042
    17   6 C    3.971 --    16 C    1.042    36 H    0.978    37 H    0.951
                            38 H    0.950
    18   7 N    2.962 --    16 C    1.581    19 N    1.151
    19   7 N    3.625 --    14 C    1.430    18 N    1.151    20 C    0.911
    20   6 C    3.883 --    41 H    0.978    39 H    0.969    40 H    0.960
                            19 N    0.911
    21   7 N    3.415 --    22 C    1.146     7 C    1.094    42 H    0.896
                            23 O    0.133
    22   6 C    3.870 --    23 O    1.595    21 N    1.146    24 C    0.963
    23   8 O    1.867 --    22 C    1.595    21 N    0.133
    24   6 C    3.934 --    25 O    1.540     5 C    1.254    22 C    0.963
    25   8 O    1.827 --    24 C    1.540     5 C    0.122
    26   1 H    1.015 --     1 C    0.987
    27   1 H    1.012 --     1 C    0.980
    28   1 H    1.013 --     1 C    0.980
    29   1 H    1.005 --     9 C    0.985
    30   1 H    1.006 --     9 C    0.984
    31   1 H    1.013 --     9 C    0.981
    32   1 H    1.007 --    10 C    0.980
    33   1 H    1.002 --    10 C    0.984
    34   1 H    1.001 --    10 C    0.985
    35   1 H    0.931 --    11 N    0.888
    36   1 H    0.991 --    17 C    0.978
    37   1 H    0.989 --    17 C    0.951
    38   1 H    0.989 --    17 C    0.950
    39   1 H    1.004 --    20 C    0.969
    40   1 H    0.991 --    20 C    0.960
    41   1 H    0.995 --    20 C    0.978
    42   1 H    0.942 --    21 N    0.896
 ---------------------------------------------------------------------------

           -------------------------------------------------
          | TOTAL ENERGY              -82.981738368909 Eh   |
          | GRADIENT NORM               0.000824991239 Eh/α |
          | HOMO-LUMO GAP               0.184196820066 eV   |
           -------------------------------------------------

 * finished run on 2023/06/21 at 17:21:45.448
