   * xtb version 6.5.1 (579679a) compiled by 'ehlert@majestix' on 2022-07-11
          program call               : /lustre/hpc/kemi/ree/PhD/git/ReactivityQM/dep/xtb-6.5.1/bin/xtb --gfn 1 /lustre/hpc/kemi/ree/PhD/git/ReactivityQM/calculations/R02deprot/reac01prodN04/conf10/R02deprot_reac01prodN04_conf10_gfn1.xyz --opt --vfukui --chrg 0 --uhf 0 --alpb DMSO

   ID    Z sym.   atoms
    1    6 C      1, 3, 5, 6, 8-11, 13, 15, 18, 19, 22, 24
    2    8 O      2, 4, 14, 20, 23, 25
    3    7 N      7, 12, 16, 17, 21
    4    1 H      26-42

      * Solvation model:               ALPB
        Solvent                        DMSO
        Solvent mass                       7.8130E+01 g/mol
          :  Hamiltonian                  GFN1-xTB          :
 * total energy  :   -82.9337035 Eh     change       -0.6011192E-10 Eh
 * total energy  :   -82.9543728 Eh     change       -0.2066933E-01 Eh
 * total energy  :   -82.9621323 Eh     change       -0.7759466E-02 Eh
 * total energy  :   -82.9639577 Eh     change       -0.1825387E-02 Eh
 * total energy  :   -82.9648392 Eh     change       -0.8815205E-03 Eh
 * total energy  :   -82.9651297 Eh     change       -0.2905386E-03 Eh
 * total energy  :   -82.9652968 Eh     change       -0.1670397E-03 Eh
 * total energy  :   -82.9654098 Eh     change       -0.1129822E-03 Eh
 * total energy  :   -82.9655046 Eh     change       -0.9484123E-04 Eh
 * total energy  :   -82.9656001 Eh     change       -0.9548284E-04 Eh
 * total energy  :   -82.9690551 Eh     change       -0.1028935E-04 Eh
 * total energy  :   -82.9690683 Eh     change       -0.1321828E-04 Eh
 * total energy  :   -82.9690835 Eh     change       -0.1519059E-04 Eh
 * total energy  :   -82.9690984 Eh     change       -0.1488166E-04 Eh
 * total energy  :   -82.9691105 Eh     change       -0.1204736E-04 Eh
 * total energy  :   -82.9691205 Eh     change       -0.1004697E-04 Eh
 * total energy  :   -82.9691293 Eh     change       -0.8813544E-05 Eh
 * total energy  :   -82.9691378 Eh     change       -0.8443807E-05 Eh
 * total energy  :   -82.9691418 Eh     change       -0.4007804E-05 Eh
   *** GEOMETRY OPTIMIZATION CONVERGED AFTER 94 ITERATIONS ***

 final structure:
================
42
 xtb: 6.5.1 (579679a)
C           -6.39702385102773        0.68997052784119        0.17846922749316
O           -5.07458962492359        0.59938655519972        0.73977355103833
C           -4.04332407618934        0.52820823589899       -0.05831827534502
O           -4.33601287130754        0.56034974226932       -1.32234290077399
C           -3.41011945958631        0.49363721922362       -2.41483397593236
C           -2.74290835623270        0.42076100861340        0.52235908866255
N           -1.68807228175027        0.33763624044249       -0.35372280536246
C           -0.47926904281444        0.22116054923488        0.15661120754971
C            0.65916590929645        0.14254272202290       -0.85223615162070
C            0.40402702930802       -1.01172606487643       -1.82989977121619
C            0.75864703133671        1.48084236912752       -1.59746216130477
N            1.88665815797822       -0.10561600418513       -0.10496886580830
C            3.09312767287974       -0.28295303184880       -0.65883215860771
O            3.35369267782340       -0.20775994510392       -1.85048950047064
C            4.11550543178154       -0.60363391906888        0.37739323404383
N            3.91961144153733       -0.66854173675883        1.65910808879714
N            5.10928440418651       -1.02853378477863        2.22189619567001
C            5.95320305603686       -1.16224773522817        1.24569104503440
C            7.37819756227074       -1.55211256751598        1.33026197870760
O            5.38782496909694       -0.90582003761139        0.05637350484571
N           -0.15568072908571        0.17648606255268        1.44049410949903
C           -1.11457405541471        0.25849898787331        2.39735820408197
O           -0.86944822505685        0.22609551042789        3.60309089066563
C           -2.50895774969146        0.39148536884648        1.89723675051968
O           -3.43522812657094        0.46961998412862        2.84670735225801
H           -6.47616335167386        1.59454888875142       -0.42504645214973
H           -7.07943163661695        0.72738086151748        1.02361000304146
H           -6.59158500986593       -0.18753951653539       -0.43869235158621
H           -4.01939923589369        0.57137876052409       -3.31483931395029
H           -2.69890914740405        1.31769924517721       -2.35768855193407
H           -2.87519715989518       -0.45592738386674       -2.39315560826124
H           -0.55908593063609       -0.86328166573612       -2.31367346299362
H            0.38733929388847       -1.95914446224371       -1.29224768901617
H            1.18138975411999       -1.04456632492662       -2.59141525199921
H            1.53663003039030        1.43425676007794       -2.35791434127989
H           -0.19574920079520        1.69347600154085       -2.07567604189751
H            0.98920074714750        2.28204250572472       -0.89618603929549
H            1.77400506492354       -0.18483674730092        0.90411438234379
H            7.65147492654391       -1.71561650870451        2.36964656329441
H            7.54792302998541       -2.46551433125955        0.76050489202642
H            8.00618607989779       -0.76919962114313        0.90593537555101
H           -4.34236314799396        0.55710928167386        2.52070302568826

          :  Hamiltonian                  GFN1-xTB          :
         :: total energy             -82.969141777682 Eh    ::
         :: gradient norm              0.000203502693 Eh/a0 ::
         :: HOMO-LUMO gap              1.520851336734 eV    ::
         :: SCC energy               -83.738217368013 Eh    ::
         :: -> Gsolv                  -0.072779272399 Eh    ::
         :: repulsion energy           0.794870391087 Eh    ::

    * Orbital Energies and Occupations

         #    Occupation            Energy/Eh            Energy/eV
      -------------------------------------------------------------
         1        2.0000           -0.8891271             -24.1944
       ...           ...                  ...                  ...
        55        2.0000           -0.5009178             -13.6307
        56        2.0000           -0.4923037             -13.3963
        57        2.0000           -0.4895747             -13.3220
        58        2.0000           -0.4775462             -12.9947
        59        2.0000           -0.4652405             -12.6598
        60        2.0000           -0.4605795             -12.5330
        61        2.0000           -0.4574976             -12.4491
        62        2.0000           -0.4537394             -12.3469
        63        2.0000           -0.4458362             -12.1318
        64        2.0000           -0.4359650             -11.8632
        65        2.0000           -0.4318315             -11.7507
        66        2.0000           -0.4048263             -11.0159
        67        2.0000           -0.4042959             -11.0015 (HOMO)
        68                         -0.3484057              -9.4806 (LUMO)
        69                         -0.3022303              -8.2241
        70                         -0.2599509              -7.0736
        71                         -0.2531186              -6.8877
        72                         -0.2385510              -6.4913
        73                         -0.1908639              -5.1937
        74                         -0.1574690              -4.2850
        75                         -0.1494680              -4.0672
        76                         -0.1455243              -3.9599
        77                         -0.1413613              -3.8466
        78                         -0.1211674              -3.2971
       ...                                ...                  ...
       134                          0.7265987              19.7718
      -------------------------------------------------------------
                  HL-Gap            0.0558903 Eh            1.5209 eV

Wiberg/Mayer (AO) data.
largest (>0.10) Wiberg bond orders for each atom

     #   Z sym  total        # sym  WBO       # sym  WBO       # sym  WBO
 ---------------------------------------------------------------------------
     1   6 C    3.832 --    27 H    0.983    28 H    0.976    26 H    0.976
                             2 O    0.858
     2   8 O    2.273 --     3 C    1.191     1 C    0.858
     3   6 C    3.807 --     4 O    1.219     2 O    1.191     6 C    1.187
     4   8 O    2.288 --     3 C    1.219     5 C    0.860
     5   6 C    3.828 --    29 H    0.981    30 H    0.972    31 H    0.971
                             4 O    0.860
     6   6 C    3.954 --    24 C    1.359     3 C    1.187     7 N    1.170
     7   7 N    3.007 --     8 C    1.447     6 C    1.170
     8   6 C    3.950 --     7 N    1.447    21 N    1.374     9 C    0.975
     9   6 C    3.936 --    10 C    0.984    11 C    0.980     8 C    0.975
                            12 N    0.929
    10   6 C    3.992 --    33 H    0.986     9 C    0.984    32 H    0.982
                            34 H    0.981
    11   6 C    3.992 --    37 H    0.986    36 H    0.984    35 H    0.982
                             9 C    0.980
    12   7 N    3.374 --    13 C    1.287     9 C    0.929    38 H    0.872
                            14 O    0.185
    13   6 C    3.922 --    14 O    1.572    12 N    1.287    15 C    0.982
    14   8 O    1.892 --    13 C    1.572    12 N    0.185
    15   6 C    3.871 --    16 N    1.617    20 O    1.062    13 C    0.982
    16   7 N    3.011 --    15 C    1.617    17 N    1.193
    17   7 N    2.980 --    18 C    1.612    16 N    1.193
    18   6 C    3.873 --    17 N    1.612    20 O    1.081    19 C    1.030
    19   6 C    3.987 --    18 C    1.030    39 H    0.983    41 H    0.964
                            40 H    0.964
    20   8 O    2.326 --    18 C    1.081    15 C    1.062
    21   7 N    3.023 --     8 C    1.374    22 C    1.228    23 O    0.132
    22   6 C    3.929 --    23 O    1.545    21 N    1.228    24 C    1.028
    23   8 O    1.839 --    22 C    1.545    21 N    0.132
    24   6 C    3.886 --     6 C    1.359    25 O    1.141    22 C    1.028
    25   8 O    2.130 --    24 C    1.141    42 H    0.805
    26   1 H    1.001 --     1 C    0.976
    27   1 H    1.004 --     1 C    0.983
    28   1 H    1.001 --     1 C    0.976
    29   1 H    1.005 --     5 C    0.981
    30   1 H    1.021 --     5 C    0.972
    31   1 H    1.021 --     5 C    0.971
    32   1 H    1.012 --    10 C    0.982
    33   1 H    1.003 --    10 C    0.986
    34   1 H    1.010 --    10 C    0.981
    35   1 H    1.010 --    11 C    0.982
    36   1 H    1.009 --    11 C    0.984
    37   1 H    1.004 --    11 C    0.986
    38   1 H    0.975 --    12 N    0.872
    39   1 H    0.999 --    19 C    0.983
    40   1 H    0.997 --    19 C    0.964
    41   1 H    0.997 --    19 C    0.964
    42   1 H    0.851 --    25 O    0.805
 ---------------------------------------------------------------------------

           -------------------------------------------------
          | TOTAL ENERGY              -82.969141777682 Eh   |
          | GRADIENT NORM               0.000203502693 Eh/α |
          | HOMO-LUMO GAP               1.520851336734 eV   |
           -------------------------------------------------

 * finished run on 2023/06/20 at 18:09:52.899
