   * xtb version 6.5.1 (579679a) compiled by 'ehlert@majestix' on 2022-07-11
          program call               : /lustre/hpc/kemi/ree/PhD/git/ReactivityQM/dep/xtb-6.5.1/bin/xtb --gfn 1 /lustre/hpc/kemi/ree/PhD/git/ReactivityQM/calculations/R02oxygendeprot/reac01/conf12/R02oxygendeprot_reac01_conf12_gfn1.xyz --opt --vfukui --chrg -1 --uhf 0 --alpb DMSO

   ID    Z sym.   atoms
    1    6 C      1, 3, 5, 7-10, 12, 14, 17, 18, 21, 23
    2    8 O      2, 4, 13, 19, 22, 24
    3    7 N      6, 11, 15, 16, 20
    4    1 H      25-38

      * Solvation model:               ALPB
        Solvent                        DMSO
        Solvent mass                       7.8130E+01 g/mol
          :  Hamiltonian                  GFN1-xTB          :
 * total energy  :   -79.6045105 Eh     change       -0.4416734E-10 Eh
 * total energy  :   -79.6157089 Eh     change       -0.1119835E-01 Eh
 * total energy  :   -79.6196608 Eh     change       -0.3951892E-02 Eh
 * total energy  :   -79.6206242 Eh     change       -0.9634155E-03 Eh
 * total energy  :   -79.6216299 Eh     change       -0.1005716E-02 Eh
 * total energy  :   -79.6223515 Eh     change       -0.7216385E-03 Eh
 * total energy  :   -79.6230033 Eh     change       -0.6517100E-03 Eh
 * total energy  :   -79.6234568 Eh     change       -0.4535558E-03 Eh
 * total energy  :   -79.6236913 Eh     change       -0.2345263E-03 Eh
 * total energy  :   -79.6238135 Eh     change       -0.1221282E-03 Eh
 * total energy  :   -79.6267325 Eh     change       -0.1232611E-04 Eh
 * total energy  :   -79.6267441 Eh     change       -0.1161125E-04 Eh
 * total energy  :   -79.6267547 Eh     change       -0.1063546E-04 Eh
 * total energy  :   -79.6267640 Eh     change       -0.9287567E-05 Eh
 * total energy  :   -79.6267720 Eh     change       -0.8012062E-05 Eh
 * total energy  :   -79.6267790 Eh     change       -0.6950789E-05 Eh
 * total energy  :   -79.6267849 Eh     change       -0.5892248E-05 Eh
 * total energy  :   -79.6267902 Eh     change       -0.5289676E-05 Eh
 * total energy  :   -79.6267951 Eh     change       -0.4888672E-05 Eh
   *** GEOMETRY OPTIMIZATION CONVERGED AFTER 89 ITERATIONS ***

 final structure:
================
38
 xtb: 6.5.1 (579679a)
C           -5.87761062780907        0.45071759605635       -1.10829091517892
O           -4.54186125655085        0.31268373098400       -0.64720132498787
C           -4.33708677027008        0.61989632742973        0.67228008418436
O           -5.26776854935228        1.00503813220050        1.36364836142892
C           -2.95878850092384        0.42003834050258        1.08363028954783
N           -2.10051602468185       -0.01520752691520        0.08851794494429
C           -0.87112508289528       -0.24777928912502        0.35425851618937
C            0.07170692706430       -0.77211072211462       -0.70978748519535
C            0.23389563266256       -2.28604145972445       -0.53881345972445
C           -0.46363176612644       -0.43847682910199       -2.10469850250433
N            1.39697351021759       -0.16884230191162       -0.51674293777718
C            1.59634856153518        1.16366499750519       -0.50759987356207
O            0.72288703588549        2.00747760735360       -0.62559961634439
C            3.02234348453431        1.53023588548046       -0.29941744615812
N            3.52653567218718        2.72132949183201       -0.20608856036004
N            4.86433978048982        2.56670215415781        0.01092901801712
C            5.09267907484572        1.29132602274862        0.03769089027330
C            6.38593399252698        0.60453932143813        0.24395858337529
O            3.96970015008326        0.57862795311125       -0.15106452114600
N           -0.35129512695109       -0.10046430205616        1.62379257330527
C           -1.07870354338423        0.34031718269619        2.69834715586309
O           -0.53884267203816        0.45393730391428        3.79678464291063
C           -2.53465489823993        0.64687799347576        2.42065890744324
O           -3.24587876950958        1.05697666263966        3.35568955147909
H           -6.22139774954260        1.48554024843387       -1.00684022230930
H           -6.55229117238199       -0.20166798326650       -0.54409966405537
H           -5.88405119323880        0.16298076732768       -2.15875010688213
H           -0.73316289852577       -2.77351244434989       -0.65498803627898
H            0.62634949635136       -2.51266782779720        0.45105673457516
H            0.91874423687030       -2.67850960304970       -1.28781569117728
H            0.21492817527639       -0.81875580664929       -2.86511072119904
H           -0.56845570320022        0.63964418560348       -2.22189639734292
H           -1.44183811522420       -0.90099260183768       -2.23039463481295
H            2.19258615513453       -0.78027134975162       -0.48381157035597
H            6.61481373206327       -0.02201809094670       -0.61750055828285
H            7.17444142323555        1.34037188624427        0.38027608725140
H            6.32962593409274       -0.03927104459754        1.12138381175786
H            0.61412844578973       -0.33428560794089        1.78360609308796

          :  Hamiltonian                  GFN1-xTB          :
         :: total energy             -79.626795069786 Eh    ::
         :: gradient norm              0.000157252981 Eh/a0 ::
         :: HOMO-LUMO gap              1.620987372373 eV    ::
         :: SCC energy               -80.355171030219 Eh    ::
         :: -> Gsolv                  -0.144356051764 Eh    ::
         :: repulsion energy           0.751671777139 Eh    ::

    * Orbital Energies and Occupations

         #    Occupation            Energy/Eh            Energy/eV
      -------------------------------------------------------------
         1        2.0000           -0.8608986             -23.4262
       ...           ...                  ...                  ...
        52        2.0000           -0.4818307             -13.1113
        53        2.0000           -0.4751850             -12.9304
        54        2.0000           -0.4642825             -12.6338
        55        2.0000           -0.4595054             -12.5038
        56        2.0000           -0.4547660             -12.3748
        57        2.0000           -0.4540852             -12.3563
        58        2.0000           -0.4468766             -12.1601
        59        2.0000           -0.4430039             -12.0548
        60        2.0000           -0.4375092             -11.9052
        61        2.0000           -0.4352879             -11.8448
        62        2.0000           -0.4142075             -11.2712
        63        2.0000           -0.3761520             -10.2356
        64        2.0000           -0.3638449              -9.9007 (HOMO)
        65                         -0.3042748              -8.2797 (LUMO)
        66                         -0.2687429              -7.3129
        67                         -0.2526368              -6.8746
        68                         -0.2364804              -6.4350
        69                         -0.1950718              -5.3082
        70                         -0.1921169              -5.2278
        71                         -0.1395402              -3.7971
        72                         -0.1244103              -3.3854
        73                         -0.1219922              -3.3196
        74                         -0.1138809              -3.0989
        75                         -0.1070646              -2.9134
       ...                                ...                  ...
       124                          0.7664580              20.8564
      -------------------------------------------------------------
                  HL-Gap            0.0595702 Eh            1.6210 eV

Wiberg/Mayer (AO) data.
largest (>0.10) Wiberg bond orders for each atom

     #   Z sym  total        # sym  WBO       # sym  WBO       # sym  WBO
 ---------------------------------------------------------------------------
     1   6 C    3.900 --    27 H    0.987    26 H    0.980    25 H    0.980
                             2 O    0.928
     2   8 O    2.135 --     3 C    1.023     1 C    0.928     4 O    0.108
     3   6 C    3.849 --     4 O    1.590     5 C    1.122     2 O    1.023
     4   8 O    1.867 --     3 C    1.590     2 O    0.108
     5   6 C    3.916 --    23 C    1.268     6 N    1.150     3 C    1.122
                            24 O    0.130
     6   7 N    3.028 --     7 C    1.638     5 C    1.150
     7   6 C    3.933 --     6 N    1.638    20 N    1.093     8 C    0.973
     8   6 C    3.932 --    10 C    0.992     9 C    0.988     7 C    0.973
                            11 N    0.917
     9   6 C    3.990 --     8 C    0.988    29 H    0.984    28 H    0.984
                            30 H    0.984
    10   6 C    3.991 --     8 C    0.992    31 H    0.987    33 H    0.984
                            32 H    0.981
    11   7 N    3.355 --    12 C    1.264     8 C    0.917    34 H    0.895
                            13 O    0.179
    12   6 C    3.919 --    13 O    1.583    11 N    1.264    14 C    0.988
    13   8 O    1.887 --    12 C    1.583    11 N    0.179
    14   6 C    3.870 --    15 N    1.625    19 O    1.048    12 C    0.988
    15   7 N    2.997 --    14 C    1.625    16 N    1.195
    16   7 N    2.981 --    17 C    1.614    15 N    1.195
    17   6 C    3.870 --    16 N    1.614    19 O    1.072    18 C    1.031
    18   6 C    3.987 --    17 C    1.031    36 H    0.983    35 H    0.963
                            37 H    0.963
    19   8 O    2.316 --    17 C    1.072    14 C    1.048
    20   7 N    3.428 --    21 C    1.163     7 C    1.093    38 H    0.898
                            22 O    0.135
    21   6 C    3.878 --    22 O    1.576    20 N    1.163    23 C    0.967
    22   8 O    1.854 --    21 C    1.576    20 N    0.135
    23   6 C    3.943 --    24 O    1.523     5 C    1.268    21 C    0.967
    24   8 O    1.826 --    23 C    1.523     5 C    0.130
    25   1 H    1.014 --     1 C    0.980
    26   1 H    1.014 --     1 C    0.980
    27   1 H    1.016 --     1 C    0.987
    28   1 H    1.003 --     9 C    0.984
    29   1 H    1.000 --     9 C    0.984
    30   1 H    0.998 --     9 C    0.984
    31   1 H    1.003 --    10 C    0.987
    32   1 H    1.014 --    10 C    0.981
    33   1 H    1.014 --    10 C    0.984
    34   1 H    0.937 --    11 N    0.895
    35   1 H    0.997 --    18 C    0.963
    36   1 H    0.999 --    18 C    0.983
    37   1 H    0.997 --    18 C    0.963
    38   1 H    0.949 --    20 N    0.898
 ---------------------------------------------------------------------------

           -------------------------------------------------
          | TOTAL ENERGY              -79.626795069786 Eh   |
          | GRADIENT NORM               0.000157252981 Eh/α |
          | HOMO-LUMO GAP               1.620987372373 eV   |
           -------------------------------------------------

 * finished run on 2023/06/21 at 17:00:39.325
