   * xtb version 6.5.1 (579679a) compiled by 'ehlert@majestix' on 2022-07-11
          program call               : /lustre/hpc/kemi/ree/PhD/git/ReactivityQM/dep/xtb-6.5.1/bin/xtb --gfn 1 /lustre/hpc/kemi/ree/PhD/git/ReactivityQM/calculations/R02oxygendeprot/reac01prodN04/conf07/R02oxygendeprot_reac01prodN04_conf07_gfn1.xyz --opt --vfukui --chrg 0 --uhf 0 --alpb DMSO

   ID    Z sym.   atoms
    1    6 C      1, 3, 5, 6, 8-11, 13, 15, 18, 19, 22, 24
    2    8 O      2, 4, 14, 20, 23, 25
    3    7 N      7, 12, 16, 17, 21
    4    1 H      26-42

      * Solvation model:               ALPB
        Solvent                        DMSO
        Solvent mass                       7.8130E+01 g/mol
          :  Hamiltonian                  GFN1-xTB          :
 * total energy  :   -82.9643973 Eh     change       -0.9492851E-11 Eh
 * total energy  :   -82.9811728 Eh     change       -0.1677548E-01 Eh
 * total energy  :   -82.9871957 Eh     change       -0.6022902E-02 Eh
 * total energy  :   -82.9884535 Eh     change       -0.1257810E-02 Eh
 * total energy  :   -82.9889836 Eh     change       -0.5301395E-03 Eh
 * total energy  :   -82.9892068 Eh     change       -0.2231809E-03 Eh
 * total energy  :   -82.9894501 Eh     change       -0.2432476E-03 Eh
 * total energy  :   -82.9896407 Eh     change       -0.1905978E-03 Eh
 * total energy  :   -82.9898329 Eh     change       -0.1922819E-03 Eh
 * total energy  :   -82.9899982 Eh     change       -0.1652548E-03 Eh
 * total energy  :   -82.9909231 Eh     change       -0.5619764E-05 Eh
 * total energy  :   -82.9909312 Eh     change       -0.8142327E-05 Eh
 * total energy  :   -82.9909455 Eh     change       -0.1430752E-04 Eh
 * total energy  :   -82.9909390 Eh     change        0.6539019E-05 Eh
 * total energy  :   -82.9909504 Eh     change       -0.1143035E-04 Eh
 * total energy  :   -82.9909582 Eh     change       -0.7738659E-05 Eh
 * total energy  :   -82.9909632 Eh     change       -0.5016049E-05 Eh
 * total energy  :   -82.9909699 Eh     change       -0.6768183E-05 Eh
 * total energy  :   -82.9909725 Eh     change       -0.2510837E-05 Eh
   *** GEOMETRY OPTIMIZATION CONVERGED AFTER 59 ITERATIONS ***

 final structure:
================
42
 xtb: 6.5.1 (579679a)
C           -2.19387686032505        3.13920646456970        0.63207863757482
O           -1.88218761123163        1.74444625754750        0.59227864423607
C           -2.84567909970894        0.87177608556612        0.35437895962620
O           -4.03692940415748        1.41160295834683        0.22477370282229
C           -5.14796325786952        0.82253243037992       -0.45863999061990
C           -2.47251775384569       -0.47782030349336        0.25289357053109
N           -1.09289107240555       -0.65617628984336        0.14632108124747
C           -0.58841194824970       -1.82450574081097        0.03305949038578
C            0.91158821508078       -2.00259547128483       -0.09772879036914
C            1.24942900459920       -2.62362219712117       -1.46127616062673
C            1.44224416030225       -2.86711478522325        1.05492417133417
N            1.49014653339854       -0.66498481574252       -0.01319220946830
C            2.80618129867510       -0.40520016170750       -0.09346537959166
O            3.68975076447373       -1.23456408943884       -0.23522260372684
C            3.06855431545668        1.05491892972208        0.01762022579782
N            2.18008079258695        1.98830235782446        0.18119711123562
N            2.85783930530287        3.17028211216528        0.23569409463518
C            4.11669725394000        2.88115516314741        0.10185796108542
C            5.26273844353938        3.81704737956959        0.08864586338009
O            4.31378541512684        1.56224833803587       -0.03982875870993
N           -1.36064474337860       -2.96448106019065        0.01037484354552
C           -2.72340930363239       -2.96523189387446        0.15483465977151
O           -3.35823848190440       -4.00126062653348        0.09670856014245
C           -3.35528498407752       -1.60255176109369        0.38665535025557
O           -4.53965101406234       -1.54561068359683        0.71285012854338
H           -1.25093955014945        3.65480838232093        0.80496017925680
H           -2.63128300912551        3.45647836775249       -0.31654962701224
H           -2.89309327799532        3.34797032239798        1.44449844798612
H           -5.79987988488234        0.31800967854817        0.25630803615686
H           -4.80712529083686        0.12011557179846       -1.21965611388814
H           -5.68222070555258        1.65063713958188       -0.92568371099654
H            0.89493374119616       -1.97608360552890       -2.26171952551441
H            0.77393367448589       -3.59767819179253       -1.55395866177976
H            2.32688430172563       -2.74888213350062       -1.55324396859839
H            0.98093912308041       -3.85179185048173        1.02386465302790
H            2.52069265403911       -2.98319368153900        0.96296738418658
H            1.21258724508519       -2.39518579838046        2.00926735803299
H            0.83303966156352        0.10217320185236        0.09179792387938
H            5.74996640565220        3.79494034034322       -0.88673334831895
H            4.91366176066257        4.82560948038727        0.29621432809470
H            5.99629031005075        3.51986640327271        0.83847136515428
H           -0.92973512662455       -3.86559422395036       -0.12820888271176

          :  Hamiltonian                  GFN1-xTB          :
         :: total energy             -82.990972456658 Eh    ::
         :: gradient norm              0.000700286515 Eh/a0 ::
         :: HOMO-LUMO gap              2.333719535511 eV    ::
         :: SCC energy               -83.769527600829 Eh    ::
         :: -> Gsolv                  -0.052043367164 Eh    ::
         :: repulsion energy           0.804228393069 Eh    ::

    * Orbital Energies and Occupations

         #    Occupation            Energy/Eh            Energy/eV
      -------------------------------------------------------------
         1        2.0000           -0.8640489             -23.5120
       ...           ...                  ...                  ...
        55        2.0000           -0.5054180             -13.7531
        56        2.0000           -0.5024099             -13.6713
        57        2.0000           -0.5021037             -13.6629
        58        2.0000           -0.4932724             -13.4226
        59        2.0000           -0.4822152             -13.1217
        60        2.0000           -0.4787346             -13.0270
        61        2.0000           -0.4644664             -12.6388
        62        2.0000           -0.4597936             -12.5116
        63        2.0000           -0.4544810             -12.3671
        64        2.0000           -0.4505011             -12.2588
        65        2.0000           -0.4457125             -12.1285
        66        2.0000           -0.4255782             -11.5806
        67        2.0000           -0.4165667             -11.3354 (HOMO)
        68                         -0.3308040              -9.0016 (LUMO)
        69                         -0.3087731              -8.4021
        70                         -0.2750157              -7.4836
        71                         -0.2569976              -6.9933
        72                         -0.2537645              -6.9053
        73                         -0.1968062              -5.3554
        74                         -0.1618655              -4.4046
        75                         -0.1498219              -4.0769
        76                         -0.1428948              -3.8884
        77                         -0.1388726              -3.7789
        78                         -0.1373662              -3.7379
       ...                                ...                  ...
       134                          0.7502667              20.4158
      -------------------------------------------------------------
                  HL-Gap            0.0857626 Eh            2.3337 eV

Wiberg/Mayer (AO) data.
largest (>0.10) Wiberg bond orders for each atom

     #   Z sym  total        # sym  WBO       # sym  WBO       # sym  WBO
 ---------------------------------------------------------------------------
     1   6 C    3.861 --    26 H    0.984    28 H    0.978    27 H    0.978
                             2 O    0.888
     2   8 O    2.227 --     3 C    1.145     1 C    0.888
     3   6 C    3.830 --     6 C    1.315     4 O    1.150     2 O    1.145
     4   8 O    2.227 --     3 C    1.150     5 C    0.872
     5   6 C    3.843 --    30 H    0.982    31 H    0.980    29 H    0.969
                             4 O    0.872
     6   6 C    3.922 --     3 C    1.315    24 C    1.184     7 N    1.102
     7   7 N    3.049 --     8 C    1.659     6 C    1.102
     8   6 C    3.932 --     7 N    1.659    21 N    1.106     9 C    0.981
     9   6 C    3.939 --     8 C    0.981    11 C    0.980    10 C    0.979
                            12 N    0.934
    10   6 C    3.987 --    32 H    0.985    33 H    0.984     9 C    0.979
                            34 H    0.979
    11   6 C    3.987 --    37 H    0.985    35 H    0.983     9 C    0.980
                            36 H    0.979
    12   7 N    3.360 --    13 C    1.269     9 C    0.934    38 H    0.876
                            14 O    0.181
    13   6 C    3.920 --    14 O    1.583    12 N    1.269    15 C    0.986
    14   8 O    1.903 --    13 C    1.583    12 N    0.181
    15   6 C    3.874 --    16 N    1.613    20 O    1.063    13 C    0.986
    16   7 N    3.013 --    15 C    1.613    17 N    1.197
    17   7 N    2.980 --    18 C    1.607    16 N    1.197
    18   6 C    3.871 --    17 N    1.607    20 O    1.083    19 C    1.031
    19   6 C    3.987 --    18 C    1.031    40 H    0.983    41 H    0.966
                            39 H    0.962
    20   8 O    2.329 --    18 C    1.083    15 C    1.063
    21   7 N    3.433 --    22 C    1.159     8 C    1.106    42 H    0.886
                            23 O    0.138
    22   6 C    3.885 --    23 O    1.639    21 N    1.159    24 C    0.942
    23   8 O    1.915 --    22 C    1.639    21 N    0.138
    24   6 C    3.920 --    25 O    1.602     6 C    1.184    22 C    0.942
    25   8 O    1.924 --    24 C    1.602
    26   1 H    1.009 --     1 C    0.984
    27   1 H    1.004 --     1 C    0.978
    28   1 H    1.005 --     1 C    0.978
    29   1 H    1.022 --     5 C    0.969
    30   1 H    1.006 --     5 C    0.982
    31   1 H    1.008 --     5 C    0.980
    32   1 H    1.002 --    10 C    0.985
    33   1 H    0.999 --    10 C    0.984
    34   1 H    1.007 --    10 C    0.979
    35   1 H    1.000 --    11 C    0.983
    36   1 H    1.008 --    11 C    0.979
    37   1 H    1.002 --    11 C    0.985
    38   1 H    0.971 --    12 N    0.876
    39   1 H    0.997 --    19 C    0.962
    40   1 H    0.999 --    19 C    0.983
    41   1 H    0.997 --    19 C    0.966
    42   1 H    0.934 --    21 N    0.886
 ---------------------------------------------------------------------------

           -------------------------------------------------
          | TOTAL ENERGY              -82.990972456658 Eh   |
          | GRADIENT NORM               0.000700286515 Eh/α |
          | HOMO-LUMO GAP               2.333719535511 eV   |
           -------------------------------------------------

 * finished run on 2023/06/21 at 17:20:03.281
