   * xtb version 6.5.1 (579679a) compiled by 'ehlert@majestix' on 2022-07-11
          program call               : /lustre/hpc/kemi/ree/PhD/git/ReactivityQM/dep/xtb-6.5.1/bin/xtb --gfn 1 /lustre/hpc/kemi/ree/PhD/git/ReactivityQM/calculations/R02/reac01prodN01/conf20/R02_reac01prodN01_conf20_gfn1.xyz --opt --vfukui --chrg 1 --uhf 0 --alpb DMSO

   ID    Z sym.   atoms
    1    6 C      1, 3, 5, 7-10, 12, 14, 17, 18, 20, 22, 24
    2    8 O      2, 4, 13, 19, 23, 25
    3    7 N      6, 11, 15, 16, 21
    4    1 H      26-43

      * Solvation model:               ALPB
        Solvent                        DMSO
        Solvent mass                       7.8130E+01 g/mol
          :  Hamiltonian                  GFN1-xTB          :
 * total energy  :   -83.0795843 Eh     change       -0.4050094E-11 Eh
 * total energy  :   -83.0990176 Eh     change       -0.1943328E-01 Eh
 * total energy  :   -83.1085365 Eh     change       -0.9518953E-02 Eh
 * total energy  :   -83.1114010 Eh     change       -0.2864441E-02 Eh
 * total energy  :   -83.1131627 Eh     change       -0.1761730E-02 Eh
 * total energy  :   -83.1139279 Eh     change       -0.7652219E-03 Eh
 * total energy  :   -83.1143206 Eh     change       -0.3927204E-03 Eh
 * total energy  :   -83.1145494 Eh     change       -0.2287290E-03 Eh
 * total energy  :   -83.1146994 Eh     change       -0.1500458E-03 Eh
 * total energy  :   -83.1148093 Eh     change       -0.1098670E-03 Eh
 * total energy  :   -83.1160078 Eh     change       -0.1297175E-03 Eh
 * total energy  :   -83.1160395 Eh     change       -0.3174111E-04 Eh
 * total energy  :   -83.1160920 Eh     change       -0.5252096E-04 Eh
 * total energy  :   -83.1161137 Eh     change       -0.2162177E-04 Eh
 * total energy  :   -83.1161325 Eh     change       -0.1884302E-04 Eh
 * total energy  :   -83.1161410 Eh     change       -0.8541355E-05 Eh
 * total energy  :   -83.1161463 Eh     change       -0.5240996E-05 Eh
 * total energy  :   -83.1161504 Eh     change       -0.4097204E-05 Eh
 * total energy  :   -83.1161546 Eh     change       -0.4187732E-05 Eh
   *** GEOMETRY OPTIMIZATION CONVERGED AFTER 42 ITERATIONS ***

 final structure:
================
43
 xtb: 6.5.1 (579679a)
C            6.73320571619699       -1.44262849787211       -1.18855808841926
O            5.52848261255017       -0.66290369608456       -1.26163259521157
C            4.59019070495885       -0.94594884010587       -0.34816768763487
O            4.72854754210613       -1.80421418576454        0.48956503796411
C            3.37151023101759       -0.09779208108064       -0.47366506774907
N            2.41968087929995       -0.39417829863766        0.47411217667213
C            1.31232451054899        0.26124067036966        0.49793471259304
C            0.29392167610240       -0.05656730704528        1.58104795928476
C            0.05190612327291        1.16736347106760        2.47122971826163
C            0.79332727236953       -1.23264561977324        2.42158746248860
N           -0.97529479274904       -0.49643676981938        0.96050812558664
C           -1.87150084185225        0.29707450086145        0.37482504269978
O           -1.76937290031610        1.49045926097103        0.14558762739111
C           -3.09402351665564       -0.46329219991557       -0.02438691452003
N           -3.32202540622024       -1.72041515254913        0.03451554439992
N           -4.57469646094389       -1.96441243708511       -0.45561002379474
C           -5.10567510863846       -0.85691050201426       -0.81037399988350
C           -6.43483458504829       -0.60107457480686       -1.38498591952330
O           -4.20294139871499        0.18548833100129       -0.56504176400199
C           -4.34782095027890        1.62461024383226       -0.80397341153117
N            1.04377856822741        1.25906317683962       -0.38785861114493
C            1.90026841890696        1.64268124477346       -1.40095053226956
O            1.59508997514117        2.52457449486710       -2.18274379943561
C            3.16159134441135        0.88582216864032       -1.40691327967582
O            4.01354061839862        1.24864253186876       -2.36877164148578
H            6.49228505759383       -2.50475512874692       -1.27061534743610
H            7.23748122156141       -1.25378964385992       -0.23839185908824
H            7.35857196342837       -1.12855445249943       -2.02051716361942
H           -0.25120031116473        2.03173575297273        1.88572641434604
H           -0.72802447567793        0.94072489513332        3.19581601628276
H            0.97294972836505        1.40760933165588        3.00092022583515
H            0.06119797683789       -1.47573221597909        3.18889577502476
H            1.73511514999883       -0.96391616438850        2.89797107238100
H            0.95974375967691       -2.10434929452219        1.79012685211948
H           -1.22149685802092       -1.46757371516360        1.08351804954168
H           -6.34386725913818       -0.12169402406045       -2.36016715082703
H           -6.95577406441889       -1.55113607353413       -1.49260118989680
H           -7.00996332413560        0.05717374844934       -0.73281464762729
H           -5.35763011201358        1.77850927875354       -1.17153255159713
H           -3.59964016982854        1.90745371791753       -1.54118607088410
H           -4.18139228066658        2.12766430445943        0.14611238266531
H            0.15359941651268        1.74097326957489       -0.34563454362896
H            4.83886534900657        0.73205948129634       -2.35189533464155

          :  Hamiltonian                  GFN1-xTB          :
         :: total energy             -83.116154561192 Eh    ::
         :: gradient norm              0.000912719448 Eh/a0 ::
         :: HOMO-LUMO gap              1.833533215409 eV    ::
         :: SCC energy               -83.918573648547 Eh    ::
         :: -> Gsolv                  -0.126433045510 Eh    ::
         :: repulsion energy           0.828942134019 Eh    ::

    * Orbital Energies and Occupations

         #    Occupation            Energy/Eh            Energy/eV
      -------------------------------------------------------------
         1        2.0000           -0.9710025             -26.4223
       ...           ...                  ...                  ...
        55        2.0000           -0.5227831             -14.2257
        56        2.0000           -0.5198238             -14.1451
        57        2.0000           -0.5189739             -14.1220
        58        2.0000           -0.5174876             -14.0816
        59        2.0000           -0.5120266             -13.9330
        60        2.0000           -0.5030043             -13.6874
        61        2.0000           -0.4986706             -13.5695
        62        2.0000           -0.4919129             -13.3856
        63        2.0000           -0.4906321             -13.3508
        64        2.0000           -0.4886465             -13.2967
        65        2.0000           -0.4635543             -12.6140
        66        2.0000           -0.4552676             -12.3885
        67        2.0000           -0.4370238             -11.8920 (HOMO)
        68                         -0.3696427             -10.0585 (LUMO)
        69                         -0.3295222              -8.9668
        70                         -0.3169684              -8.6251
        71                         -0.2912665              -7.9258
        72                         -0.2514822              -6.8432
        73                         -0.2457627              -6.6875
        74                         -0.1914033              -5.2083
        75                         -0.1768417              -4.8121
        76                         -0.1652205              -4.4959
        77                         -0.1422001              -3.8695
        78                         -0.1395890              -3.7984
       ...                                ...                  ...
       136                          0.7300259              19.8650
      -------------------------------------------------------------
                  HL-Gap            0.0673811 Eh            1.8335 eV

Wiberg/Mayer (AO) data.
largest (>0.10) Wiberg bond orders for each atom

     #   Z sym  total        # sym  WBO       # sym  WBO       # sym  WBO
 ---------------------------------------------------------------------------
     1   6 C    3.859 --    28 H    0.986    26 H    0.980    27 H    0.980
                             2 O    0.882
     2   8 O    2.205 --     3 C    1.091     1 C    0.882     4 O    0.130
     3   6 C    3.848 --     4 O    1.672     2 O    1.091     5 C    1.005
     4   8 O    1.934 --     3 C    1.672     2 O    0.130
     5   6 C    3.960 --    24 C    1.502     6 N    1.169     3 C    1.005
     6   7 N    3.030 --     7 C    1.598     5 C    1.169
     7   6 C    3.937 --     6 N    1.598    21 N    1.180     8 C    0.968
     8   6 C    3.916 --    10 C    1.001     9 C    0.984     7 C    0.968
                            11 N    0.896
     9   6 C    3.985 --     8 C    0.984    30 H    0.983    31 H    0.983
                            29 H    0.978
    10   6 C    3.988 --     8 C    1.001    32 H    0.984    34 H    0.982
                            33 H    0.980
    11   7 N    3.391 --    12 C    1.316     8 C    0.896    35 H    0.887
                            13 O    0.193
    12   6 C    3.927 --    13 O    1.562    11 N    1.316    14 C    0.973
    13   8 O    1.946 --    12 C    1.562    11 N    0.193
    14   6 C    3.805 --    15 N    1.702    12 C    0.973    19 O    0.889
    15   7 N    3.045 --    14 C    1.702    16 N    1.149
    16   7 N    3.024 --    17 C    1.694    15 N    1.149
    17   6 C    3.801 --    16 N    1.694    18 C    1.044    19 O    0.877
    18   6 C    3.968 --    17 C    1.044    37 H    0.969    36 H    0.950
                            38 H    0.949
    19   8 O    2.656 --    14 C    0.889    17 C    0.877    20 C    0.743
    20   6 C    3.719 --    39 H    0.974    41 H    0.967    40 H    0.967
                            19 O    0.743
    21   7 N    3.465 --     7 C    1.180    22 C    1.125    42 H    0.860
                            23 O    0.135
    22   6 C    3.909 --    23 O    1.606    21 N    1.125    24 C    1.051
    23   8 O    1.901 --    22 C    1.606    21 N    0.135
    24   6 C    3.918 --     5 C    1.502    25 O    1.116    22 C    1.051
    25   8 O    2.096 --    24 C    1.116    43 H    0.797
    26   1 H    1.006 --     1 C    0.980
    27   1 H    1.006 --     1 C    0.980
    28   1 H    1.008 --     1 C    0.986
    29   1 H    1.005 --     9 C    0.978
    30   1 H    0.997 --     9 C    0.983
    31   1 H    0.999 --     9 C    0.983
    32   1 H    0.997 --    10 C    0.984
    33   1 H    1.006 --    10 C    0.980
    34   1 H    1.004 --    10 C    0.982
    35   1 H    0.934 --    11 N    0.887
    36   1 H    0.988 --    18 C    0.950
    37   1 H    0.989 --    18 C    0.969
    38   1 H    0.987 --    18 C    0.949
    39   1 H    0.990 --    20 C    0.974
    40   1 H    0.998 --    20 C    0.967
    41   1 H    0.997 --    20 C    0.967
    42   1 H    0.931 --    21 N    0.860
    43   1 H    0.850 --    25 O    0.797
 ---------------------------------------------------------------------------

           -------------------------------------------------
          | TOTAL ENERGY              -83.116154561192 Eh   |
          | GRADIENT NORM               0.000912719448 Eh/α |
          | HOMO-LUMO GAP               1.833533215409 eV   |
           -------------------------------------------------

 * finished run on 2023/06/20 at 15:18:19.625
