   * xtb version 6.5.1 (579679a) compiled by 'ehlert@majestix' on 2022-07-11
          program call               : /lustre/hpc/kemi/ree/PhD/git/ReactivityQM/dep/xtb-6.5.1/bin/xtb --gfn 1 /lustre/hpc/kemi/ree/PhD/git/ReactivityQM/calculations/R02deprot/reac01prodN11/conf14/R02deprot_reac01prodN11_conf14_gfn1.xyz --opt --vfukui --chrg 0 --uhf 0 --alpb DMSO

   ID    Z sym.   atoms
    1    6 C      1, 3, 5, 6, 8, 11-15, 17, 19, 22, 23
    2    8 O      2, 4, 7, 9, 18, 24
    3    7 N      10, 16, 20, 21, 25
    4    1 H      26-42

      * Solvation model:               ALPB
        Solvent                        DMSO
        Solvent mass                       7.8130E+01 g/mol
          :  Hamiltonian                  GFN1-xTB          :
 * total energy  :   -82.9194412 Eh     change       -0.8583356E-11 Eh
 * total energy  :   -82.9321307 Eh     change       -0.1268954E-01 Eh
 * total energy  :   -82.9368957 Eh     change       -0.4765004E-02 Eh
 * total energy  :   -82.9380558 Eh     change       -0.1160140E-02 Eh
 * total energy  :   -82.9391164 Eh     change       -0.1060607E-02 Eh
 * total energy  :   -82.9398664 Eh     change       -0.7499670E-03 Eh
 * total energy  :   -82.9405931 Eh     change       -0.7266367E-03 Eh
 * total energy  :   -82.9411565 Eh     change       -0.5634579E-03 Eh
 * total energy  :   -82.9414689 Eh     change       -0.3124096E-03 Eh
 * total energy  :   -82.9417085 Eh     change       -0.2395868E-03 Eh
 * total energy  :   -82.9729640 Eh     change       -0.1792220E-04 Eh
 * total energy  :   -82.9729768 Eh     change       -0.1277792E-04 Eh
 * total energy  :   -82.9729869 Eh     change       -0.1011658E-04 Eh
 * total energy  :   -82.9729945 Eh     change       -0.7586705E-05 Eh
 * total energy  :   -82.9730002 Eh     change       -0.5722242E-05 Eh
 * total energy  :   -82.9730101 Eh     change       -0.9914097E-05 Eh
 * total energy  :   -82.9730191 Eh     change       -0.8999749E-05 Eh
 * total energy  :   -82.9730244 Eh     change       -0.5303187E-05 Eh
 * total energy  :   -82.9730285 Eh     change       -0.4045472E-05 Eh
   *** GEOMETRY OPTIMIZATION CONVERGED AFTER 50 ITERATIONS ***

 final structure:
================
42
 xtb: 6.5.1 (579679a)
C           -3.69588047095746        3.53523844253437       -1.28169136408979
O           -3.52072197538025        2.22628330084610       -0.72507080025190
C           -2.28111167350890        1.81807289291116       -0.52893059187646
O           -1.29784975384283        2.46448275029063       -0.79298670508538
C           -2.20124250711887        0.42572359712315        0.06616004718437
C           -3.37926445202028       -0.44405074799699        0.27378138714032
O           -4.54466989688063       -0.13756036063518        0.14061837076820
C           -3.00964298759653       -1.83895346839361        0.66569594680822
O           -4.01797724368731       -2.70876719000917        0.70491201688772
N           -1.82526560330290       -2.21231235785326        0.94763492371678
C           -0.75239266685835       -1.26079249276123        0.92701908175350
C           -0.35706721455579       -0.98493339043120        2.39007640227903
C            0.42515554774676       -1.88098684652063        0.10718598612640
C            0.91980183675312       -3.16805808498583        0.76875049543778
C           -0.04942883829813       -2.14916264221619       -1.32588753746019
N            1.47892056679167       -0.86801701894244        0.08646500707122
C            2.69933935622402       -1.07410851990130       -0.44726990140831
O            3.11827537600300       -2.13732488416884       -0.87540521564951
C            3.53656968593735        0.15374687561380       -0.44374062545901
N            4.74852730917725        0.28394857195822       -0.88671189195800
N            5.10973280854570        1.58016364075484       -0.67041302707755
C            4.09570916414616        2.16191461862471       -0.10919982559915
C            3.98807187744739        3.57114342437092        0.32618206875526
O            3.06679643413890        1.31543312169487        0.06158176521534
N           -1.02154215865446        0.02271862326096        0.35135034172256
H           -3.09116027650815        3.64182562591441       -2.18471652908451
H           -4.75393666230774        3.63334093066717       -1.51500675867089
H           -3.39535131229225        4.28946681426298       -0.55150351440971
H           -4.85132208694328       -2.25436100624490        0.49115194237243
H           -1.15177744647773       -0.41324038034116        2.86443002858776
H           -0.23423241715578       -1.92767927986222        2.91737935472602
H            0.56809621090262       -0.41538761490930        2.42839034878340
H            1.57127111548426       -3.71289221201812        0.08747312911272
H            1.47650019901842       -2.94455328592620        1.67693020119792
H            0.06534296452902       -3.79637594106262        1.01659442092004
H            0.77339457472093       -2.55073633029934       -1.91563119285858
H           -0.86413682341683       -2.87125877456210       -1.31419906355984
H           -0.39843439562736       -1.22521856663429       -1.78439773506751
H            1.18857539374564        0.08319197393491        0.26759441121459
H            3.22971385102245        4.08685756275984       -0.26305371106703
H            3.68839592745011        3.61465821478599        1.37252137231261
H            4.94621766361688        4.06851841437170        0.19671494052164

          :  Hamiltonian                  GFN1-xTB          :
         :: total energy             -82.973028459058 Eh    ::
         :: gradient norm              0.000421584454 Eh/a0 ::
         :: HOMO-LUMO gap              1.493439677899 eV    ::
         :: SCC energy               -83.747370592393 Eh    ::
         :: -> Gsolv                  -0.051958849766 Eh    ::
         :: repulsion energy           0.801522605470 Eh    ::

    * Orbital Energies and Occupations

         #    Occupation            Energy/Eh            Energy/eV
      -------------------------------------------------------------
         1        2.0000           -0.8649021             -23.5352
       ...           ...                  ...                  ...
        55        2.0000           -0.5047087             -13.7338
        56        2.0000           -0.5017747             -13.6540
        57        2.0000           -0.4992510             -13.5853
        58        2.0000           -0.4960585             -13.4984
        59        2.0000           -0.4888173             -13.3014
        60        2.0000           -0.4877648             -13.2728
        61        2.0000           -0.4796440             -13.0518
        62        2.0000           -0.4694438             -12.7742
        63        2.0000           -0.4631297             -12.6024
        64        2.0000           -0.4586712             -12.4811
        65        2.0000           -0.4512641             -12.2795
        66        2.0000           -0.4458892             -12.1333
        67        2.0000           -0.4257172             -11.5844 (HOMO)
        68                         -0.3708343             -10.0909 (LUMO)
        69                         -0.3192663              -8.6877
        70                         -0.3100245              -8.4362
        71                         -0.2565300              -6.9805
        72                         -0.2464216              -6.7055
        73                         -0.1983220              -5.3966
        74                         -0.1887233              -5.1354
        75                         -0.1422912              -3.8719
        76                         -0.1384005              -3.7661
        77                         -0.1349957              -3.6734
        78                         -0.1214865              -3.3058
       ...                                ...                  ...
       134                          0.7459622              20.2987
      -------------------------------------------------------------
                  HL-Gap            0.0548829 Eh            1.4934 eV

Wiberg/Mayer (AO) data.
largest (>0.10) Wiberg bond orders for each atom

     #   Z sym  total        # sym  WBO       # sym  WBO       # sym  WBO
 ---------------------------------------------------------------------------
     1   6 C    3.861 --    27 H    0.985    26 H    0.979    28 H    0.978
                             2 O    0.887
     2   8 O    2.228 --     3 C    1.147     1 C    0.887     4 O    0.146
     3   6 C    3.853 --     4 O    1.679     2 O    1.147     5 C    0.950
     4   8 O    1.943 --     3 C    1.679     2 O    0.146
     5   6 C    3.955 --    25 N    1.759     6 C    1.020     3 C    0.950
     6   6 C    3.881 --     7 O    1.731     5 C    1.020     8 C    0.974
     7   8 O    1.998 --     6 C    1.731
     8   6 C    3.904 --    10 N    1.692     9 O    1.110     6 C    0.974
     9   8 O    2.089 --     8 C    1.110    29 H    0.806    10 N    0.119
    10   7 N    3.039 --     8 C    1.692    11 C    0.995     9 O    0.119
    11   6 C    3.932 --    25 N    0.996    10 N    0.995    12 C    0.932
                            13 C    0.912
    12   6 C    3.983 --    30 H    0.983    32 H    0.982    31 H    0.980
                            11 C    0.932
    13   6 C    3.931 --    14 C    0.999    15 C    0.990    16 N    0.931
                            11 C    0.912
    14   6 C    3.989 --    13 C    0.999    34 H    0.984    35 H    0.983
                            33 H    0.977
    15   6 C    3.990 --    13 C    0.990    38 H    0.984    37 H    0.984
                            36 H    0.982
    16   7 N    3.353 --    17 C    1.259    13 C    0.931    39 H    0.887
                            18 O    0.176
    17   6 C    3.917 --    18 O    1.584    16 N    1.259    19 C    0.991
    18   8 O    1.899 --    17 C    1.584    16 N    0.176
    19   6 C    3.872 --    20 N    1.623    24 O    1.048    17 C    0.991
    20   7 N    2.999 --    19 C    1.623    21 N    1.198
    21   7 N    2.981 --    22 C    1.611    20 N    1.198
    22   6 C    3.869 --    21 N    1.611    24 O    1.073    23 C    1.032
    23   6 C    3.986 --    22 C    1.032    42 H    0.982    41 H    0.965
                            40 H    0.961
    24   8 O    2.317 --    22 C    1.073    19 C    1.048
    25   7 N    3.050 --     5 C    1.759    11 C    0.996
    26   1 H    1.006 --     1 C    0.979
    27   1 H    1.009 --     1 C    0.985
    28   1 H    1.004 --     1 C    0.978
    29   1 H    0.841 --     9 O    0.806
    30   1 H    1.001 --    12 C    0.983
    31   1 H    1.003 --    12 C    0.980
    32   1 H    1.001 --    12 C    0.982
    33   1 H    1.011 --    14 C    0.977
    34   1 H    1.002 --    14 C    0.984
    35   1 H    1.011 --    14 C    0.983
    36   1 H    1.005 --    15 C    0.982
    37   1 H    1.004 --    15 C    0.984
    38   1 H    1.004 --    15 C    0.984
    39   1 H    0.957 --    16 N    0.887
    40   1 H    0.997 --    23 C    0.961
    41   1 H    0.997 --    23 C    0.965
    42   1 H    0.999 --    23 C    0.982
 ---------------------------------------------------------------------------

           -------------------------------------------------
          | TOTAL ENERGY              -82.973028459058 Eh   |
          | GRADIENT NORM               0.000421584454 Eh/α |
          | HOMO-LUMO GAP               1.493439677899 eV   |
           -------------------------------------------------

 * finished run on 2023/06/20 at 18:18:15.326
