   * xtb version 6.5.1 (579679a) compiled by 'ehlert@majestix' on 2022-07-11
          program call               : /lustre/hpc/kemi/ree/PhD/git/ReactivityQM/dep/xtb-6.5.1/bin/xtb --gfn 1 /lustre/hpc/kemi/ree/PhD/git/ReactivityQM/calculations/R02/reac01prodN05/conf03/R02_reac01prodN05_conf03_gfn1.xyz --opt --vfukui --chrg 1 --uhf 0 --alpb DMSO

   ID    Z sym.   atoms
    1    6 C      1, 3, 5, 6, 8, 11-14, 16, 18, 21, 22, 25
    2    8 O      2, 4, 7, 9, 17, 23
    3    7 N      10, 15, 19, 20, 24
    4    1 H      26-43

      * Solvation model:               ALPB
        Solvent                        DMSO
        Solvent mass                       7.8130E+01 g/mol
          :  Hamiltonian                  GFN1-xTB          :
 * total energy  :   -83.1398500 Eh     change       -0.1197975E-10 Eh
 * total energy  :   -83.1586198 Eh     change       -0.1876982E-01 Eh
 * total energy  :   -83.1653910 Eh     change       -0.6771225E-02 Eh
 * total energy  :   -83.1666248 Eh     change       -0.1233833E-02 Eh
 * total energy  :   -83.1672982 Eh     change       -0.6733954E-03 Eh
 * total energy  :   -83.1676736 Eh     change       -0.3753865E-03 Eh
 * total energy  :   -83.1680520 Eh     change       -0.3784032E-03 Eh
 * total energy  :   -83.1683420 Eh     change       -0.2899373E-03 Eh
 * total energy  :   -83.1685061 Eh     change       -0.1640942E-03 Eh
 * total energy  :   -83.1686039 Eh     change       -0.9781730E-04 Eh
 * total energy  :   -83.1700776 Eh     change       -0.7074489E-05 Eh
 * total energy  :   -83.1700865 Eh     change       -0.8870493E-05 Eh
 * total energy  :   -83.1700976 Eh     change       -0.1107257E-04 Eh
 * total energy  :   -83.1701077 Eh     change       -0.1012300E-04 Eh
 * total energy  :   -83.1701163 Eh     change       -0.8623913E-05 Eh
 * total energy  :   -83.1701248 Eh     change       -0.8431843E-05 Eh
 * total energy  :   -83.1701323 Eh     change       -0.7556428E-05 Eh
 * total energy  :   -83.1701375 Eh     change       -0.5144904E-05 Eh
 * total energy  :   -83.1701408 Eh     change       -0.3379614E-05 Eh
   *** GEOMETRY OPTIMIZATION CONVERGED AFTER 52 ITERATIONS ***

 final structure:
================
43
 xtb: 6.5.1 (579679a)
C            4.07328460053567        2.86589356751403        1.46621001591399
O            3.21470033442113        1.79071340996612        1.03384728354219
C            3.34210418050535        1.40127780274048       -0.21448372490736
O            4.13855154080822        1.89122972116750       -0.98801483418645
C            2.51409552383874        0.22076868840926       -0.62421625570339
C            2.99026808758544       -0.54299127898021       -1.66270332737849
O            4.03633550839937       -0.24433673806356       -2.39774310760460
C            2.35280421838503       -1.82681651975846       -1.99207826050216
O            2.68983555650053       -2.60483229911137       -2.84535902780577
N            1.26303229479032       -2.10211585198003       -1.16350437746808
C            0.73369876786967       -1.30811024474542       -0.22339740831611
C           -0.49416165699334       -1.83819254956678        0.51918664639849
C           -1.04380118076658       -3.13292370742357       -0.09401600070012
C           -0.08795117974399       -2.09947389152416        1.97988821992146
N           -1.54279823387707       -0.82170544497799        0.40951881519461
C           -2.71276666900679       -0.90004023050589        1.11352814144665
O           -2.94585418922670       -1.69703174888356        1.99790218142159
C           -3.66840922243515        0.14678131672785        0.69634514252659
N           -4.86052433295624        0.37001037601062        1.15292544255117
N           -5.35005750028687        1.43839901124962        0.46895756964758
C           -4.42759926718831        1.80530553886211       -0.36599703941991
C           -4.46667028994050        2.92315905504568       -1.33259872097422
O           -3.33549758107710        1.02791969876849       -0.27345628498500
N            1.34053062174929       -0.16206994496092        0.04696832771092
C            0.77901247533351        0.80364648218380        1.00207736381877
H            5.11642523222765        2.57618066604438        1.32972954111847
H            3.84761094043590        3.02607147805898        2.51755301791913
H            3.85703076190797        3.76078369242574        0.88081845977120
H            4.41189774937645        0.63880712662938       -2.14699351752660
H            0.81820722022194       -2.98767567451163       -1.37085950590492
H           -0.33112102618561       -3.94938652513565        0.00733281159076
H           -1.94829813062598       -3.40251787100701        0.45052117075770
H           -1.30424074793532       -2.98664782953981       -1.14037120372900
H           -0.86418599420430       -2.67973664848629        2.47517772195051
H            0.05486733204336       -1.17133926903343        2.52593649293556
H            0.84028479188801       -2.66845325837972        1.99367704550633
H           -1.56099174992665       -0.28814241226686       -0.44406851803624
H           -5.44321295571392        3.40170392041290       -1.30531225730950
H           -3.69500364810414        3.65181256810553       -1.08420681755677
H           -4.26412869537410        2.55126562718887       -2.33654261165290
H           -0.27297916411135        0.59326508887052        1.15654882160159
H            1.31933055777701        0.72908870816571        1.94305330030931
H            0.88634311907528        1.80045439429023        0.58379126811383

          :  Hamiltonian                  GFN1-xTB          :
         :: total energy             -83.170140836767 Eh    ::
         :: gradient norm              0.000396953200 Eh/a0 ::
         :: HOMO-LUMO gap              2.548177460377 eV    ::
         :: SCC energy               -83.967188737863 Eh    ::
         :: -> Gsolv                  -0.126238633444 Eh    ::
         :: repulsion energy           0.824621646999 Eh    ::

    * Orbital Energies and Occupations

         #    Occupation            Energy/Eh            Energy/eV
      -------------------------------------------------------------
         1        2.0000           -0.8939362             -24.3252
       ...           ...                  ...                  ...
        55        2.0000           -0.5341281             -14.5344
        56        2.0000           -0.5324968             -14.4900
        57        2.0000           -0.5274794             -14.3534
        58        2.0000           -0.5251312             -14.2895
        59        2.0000           -0.5218966             -14.2015
        60        2.0000           -0.5145187             -14.0008
        61        2.0000           -0.4991684             -13.5831
        62        2.0000           -0.4903833             -13.3440
        63        2.0000           -0.4821371             -13.1196
        64        2.0000           -0.4812583             -13.0957
        65        2.0000           -0.4755905             -12.9415
        66        2.0000           -0.4623110             -12.5801
        67        2.0000           -0.4612694             -12.5518 (HOMO)
        68                         -0.3676256             -10.0036 (LUMO)
        69                         -0.3577493              -9.7349
        70                         -0.3263421              -8.8802
        71                         -0.2857751              -7.7763
        72                         -0.2646648              -7.2019
        73                         -0.2200070              -5.9867
        74                         -0.2128612              -5.7922
        75                         -0.1655024              -4.5035
        76                         -0.1571766              -4.2770
        77                         -0.1500708              -4.0836
        78                         -0.1458940              -3.9700
       ...                                ...                  ...
       136                          0.7261730              19.7602
      -------------------------------------------------------------
                  HL-Gap            0.0936438 Eh            2.5482 eV

Wiberg/Mayer (AO) data.
largest (>0.10) Wiberg bond orders for each atom

     #   Z sym  total        # sym  WBO       # sym  WBO       # sym  WBO
 ---------------------------------------------------------------------------
     1   6 C    3.836 --    27 H    0.984    26 H    0.977    28 H    0.977
                             2 O    0.862
     2   8 O    2.240 --     3 C    1.162     1 C    0.862     4 O    0.136
     3   6 C    3.864 --     4 O    1.623     2 O    1.162     5 C    1.001
     4   8 O    1.977 --     3 C    1.623     2 O    0.136
     5   6 C    3.917 --     6 C    1.501    24 N    1.067     3 C    1.001
                             7 O    0.111
     6   6 C    3.926 --     5 C    1.501     7 O    1.189     8 C    1.024
     7   8 O    2.141 --     6 C    1.189    29 H    0.740     5 C    0.111
     8   6 C    3.898 --     9 O    1.688    10 N    1.061     6 C    1.024
     9   8 O    1.976 --     8 C    1.688    10 N    0.118
    10   7 N    3.488 --    11 C    1.282     8 C    1.061    30 H    0.861
                             9 O    0.118
    11   6 C    3.897 --    24 N    1.410    10 N    1.282    12 C    0.969
    12   6 C    3.928 --    13 C    0.991    14 C    0.971    11 C    0.969
                            15 N    0.935
    13   6 C    3.982 --    12 C    0.991    33 H    0.980    31 H    0.978
                            32 H    0.972
    14   6 C    3.978 --    36 H    0.983    35 H    0.980    34 H    0.971
                            12 C    0.971
    15   7 N    3.306 --    16 C    1.188    12 C    0.935    37 H    0.889
                            17 O    0.160
    16   6 C    3.907 --    17 O    1.624    15 N    1.188    18 C    1.003
    17   8 O    1.935 --    16 C    1.624    15 N    0.160
    18   6 C    3.876 --    19 N    1.617    23 O    1.044    16 C    1.003
    19   7 N    3.005 --    18 C    1.617    20 N    1.206
    20   7 N    2.984 --    21 C    1.603    19 N    1.206
    21   6 C    3.865 --    20 N    1.603    23 O    1.072    22 C    1.033
    22   6 C    3.985 --    21 C    1.033    38 H    0.982    40 H    0.963
                            39 H    0.960
    23   8 O    2.315 --    21 C    1.072    18 C    1.044
    24   7 N    3.582 --    11 C    1.410     5 C    1.067    25 C    0.904
    25   6 C    3.885 --    43 H    0.973    42 H    0.966    41 H    0.963
                            24 N    0.904
    26   1 H    1.002 --     1 C    0.977
    27   1 H    1.005 --     1 C    0.984
    28   1 H    1.001 --     1 C    0.977
    29   1 H    0.826 --     7 O    0.740
    30   1 H    0.917 --    10 N    0.861
    31   1 H    0.994 --    13 C    0.978
    32   1 H    0.999 --    13 C    0.972
    33   1 H    0.994 --    13 C    0.980
    34   1 H    1.007 --    14 C    0.971
    35   1 H    0.997 --    14 C    0.980
    36   1 H    0.997 --    14 C    0.983
    37   1 H    0.931 --    15 N    0.889
    38   1 H    0.997 --    22 C    0.982
    39   1 H    0.996 --    22 C    0.960
    40   1 H    0.996 --    22 C    0.963
    41   1 H    1.002 --    25 C    0.963
    42   1 H    1.002 --    25 C    0.966
    43   1 H    0.996 --    25 C    0.973
 ---------------------------------------------------------------------------

           -------------------------------------------------
          | TOTAL ENERGY              -83.170140836767 Eh   |
          | GRADIENT NORM               0.000396953200 Eh/α |
          | HOMO-LUMO GAP               2.548177460377 eV   |
           -------------------------------------------------

 * finished run on 2023/06/20 at 15:23:53.211
