   * xtb version 6.5.1 (579679a) compiled by 'ehlert@majestix' on 2022-07-11
          program call               : /lustre/hpc/kemi/ree/PhD/git/ReactivityQM/dep/xtb-6.5.1/bin/xtb --gfn 1 /lustre/hpc/kemi/ree/PhD/git/ReactivityQM/calculations/RaltegravirCLI/reac02prodE09/conf18/RaltegravirCLI_reac02prodE09_conf18_gfn1.xyz --opt --vfukui --chrg -1 --uhf 0 --alpb DMSO

   ID    Z sym.   atoms
    1    6 C      1, 3-6, 9, 10, 13-18, 20-22, 24
    2    7 N      2, 7, 8, 12
    3    8 O      11, 23, 25
    4    9 F      19
    5    1 H      26-47

      * Solvation model:               ALPB
        Solvent                        DMSO
        Solvent mass                       7.8130E+01 g/mol
          :  Hamiltonian                  GFN1-xTB          :
 * total energy  :   -80.1892640 Eh     change       -0.1124931E-09 Eh
 * total energy  :   -80.1991947 Eh     change       -0.9930724E-02 Eh
 * total energy  :   -80.2034261 Eh     change       -0.4231450E-02 Eh
 * total energy  :   -80.2049972 Eh     change       -0.1571015E-02 Eh
 * total energy  :   -80.2066423 Eh     change       -0.1645180E-02 Eh
 * total energy  :   -80.2082384 Eh     change       -0.1596107E-02 Eh
 * total energy  :   -80.2105047 Eh     change       -0.2266219E-02 Eh
 * total energy  :   -80.2134257 Eh     change       -0.2921032E-02 Eh
 * total energy  :   -80.2160762 Eh     change       -0.2650509E-02 Eh
 * total energy  :   -80.2182199 Eh     change       -0.2143731E-02 Eh
 * total energy  :   -80.2324789 Eh     change       -0.1872702E-04 Eh
 * total energy  :   -80.2324863 Eh     change       -0.7343651E-05 Eh
 * total energy  :   -80.2325075 Eh     change       -0.2125898E-04 Eh
 * total energy  :   -80.2325151 Eh     change       -0.7531287E-05 Eh
 * total energy  :   -80.2325234 Eh     change       -0.8342321E-05 Eh
 * total energy  :   -80.2325216 Eh     change        0.1828023E-05 Eh
 * total energy  :   -80.2325300 Eh     change       -0.8415863E-05 Eh
 * total energy  :   -80.2325361 Eh     change       -0.6045548E-05 Eh
 * total energy  :   -80.2325404 Eh     change       -0.4340977E-05 Eh
   *** GEOMETRY OPTIMIZATION CONVERGED AFTER 66 ITERATIONS ***

 final structure:
================
47
 xtb: 6.5.1 (579679a)
C           -4.86989142745695        1.03583694610468        0.54259559658213
N           -3.53299610903112        0.76636473809069        0.01143226154816
C           -3.03303458813785       -0.49831523343537       -0.18414732607623
C           -3.82547562588110       -1.75322715974066        0.16333998240800
C           -3.67245296618547       -2.03094315123740        1.66657538840976
C           -3.25733120458618       -2.93986237337937       -0.63414898763466
N           -5.23909970864193       -1.58002253033749       -0.15458373884041
N           -1.83279585981287       -0.69513088295334       -0.62646789877194
C           -0.99899908418302        0.33727107552681       -0.95522561939256
C            0.36448941561085       -0.11046982818480       -1.40446177464468
O            0.69927632889443       -1.28774441670781       -1.33335207054061
N            1.17369310772421        0.84660854120174       -1.89140212831448
C            2.55258811900573        0.53347906697553       -2.26969250376021
C            3.44983781436117        0.56474384936682       -1.05066128644415
C            3.67862492711656       -0.59296206095309       -0.31113855758766
C            4.47075513908156       -0.55521722697546        0.82617927437864
C            5.05130247337113        0.63881708090838        1.25534181429778
C            5.93528863621225        0.66974264432393        2.46475771656566
F            8.74289124162238       -0.08982194936617        1.58500521296534
C            4.81291876558810        1.79574781585939        0.51438820964653
C            4.01989175540164        1.76072495813031       -0.62339273932914
C           -1.45119963490156        1.61724795149617       -0.82094211744445
O           -0.72770680356062        2.72056299300999       -1.11221210893784
C           -2.78735074964003        1.88076591121423       -0.32126413315048
O           -3.21015754706460        3.03002226263714       -0.19239241354132
H           -5.61285353385179        0.89396450156233       -0.24048923872702
H           -4.89470587592131        2.06920315401535        0.88835633849501
H           -5.08864362864957        0.36704431525279        1.36897449975776
H           -4.10989858976752       -1.22985059353942        2.25978646100931
H           -4.17708474521991       -2.96249907800498        1.91823273308434
H           -2.61664211787904       -2.12140433553788        1.92182667082457
H           -3.84362143542832       -3.83108442628421       -0.41975273930842
H           -2.21763785984008       -3.12113833170611       -0.36211908438870
H           -3.30994536486017       -2.73141365871094       -1.70194045576566
H           -5.77036521367544       -2.32972586367219        0.26508064185156
H           -5.37433783404425       -1.63393586080679       -1.15562602328055
H            0.89191083581799        1.81093805707058       -1.91838559256957
H            2.86921468647602        1.27494715539073       -3.00688537304708
H            2.56257266349443       -0.45927308824818       -2.73189448868087
H            3.22590879406766       -1.52792828030709       -0.62511051380317
H            4.63247014612830       -1.46775863199108        1.39230991771203
H            5.95747571183755        1.66541763127018        2.90794237402541
H            6.96426656696887        0.39976389510917        2.17320571487400
H            5.59722203254150       -0.04643229639967        3.21445324209960
H            5.24347091917925        2.74017201286024        0.83180799906870
H            3.84140931583941        2.67229888271836       -1.18311139169276
H           -1.28325288813551        3.50447481831979       -0.94078974386340

          :  Hamiltonian                  GFN1-xTB          :
         :: total energy             -80.232540396829 Eh    ::
         :: gradient norm              0.000798272557 Eh/a0 ::
         :: HOMO-LUMO gap              0.660147879935 eV    ::
         :: SCC energy               -81.126293585856 Eh    ::
         :: -> Gsolv                  -0.161812449374 Eh    ::
         :: repulsion energy           0.923059293857 Eh    ::

    * Orbital Energies and Occupations

         #    Occupation            Energy/Eh            Energy/eV
      -------------------------------------------------------------
         1        2.0000           -0.8240288             -22.4230
       ...           ...                  ...                  ...
        56        2.0000           -0.4624833             -12.5848
        57        2.0000           -0.4592150             -12.4959
        58        2.0000           -0.4494400             -12.2299
        59        2.0000           -0.4438775             -12.0785
        60        2.0000           -0.4324445             -11.7674
        61        2.0000           -0.4277574             -11.6399
        62        2.0000           -0.4238407             -11.5333
        63        2.0000           -0.4180041             -11.3745
        64        2.0000           -0.4120770             -11.2132
        65        2.0000           -0.4091773             -11.1343
        66        2.0000           -0.3325118              -9.0481
        67        2.0000           -0.3325091              -9.0480
        68        2.0000           -0.3319770              -9.0336 (HOMO)
        69        0.0000           -0.3077171              -8.3734 (LUMO)
        70                         -0.2714141              -7.3856
        71                         -0.2456879              -6.6855
        72                         -0.2441758              -6.6444
        73                         -0.2224262              -6.0525
        74                         -0.1456562              -3.9635
        75                         -0.1314319              -3.5764
        76                         -0.1234359              -3.3589
        77                         -0.1233482              -3.3565
        78                         -0.1158738              -3.1531
        79                         -0.1115381              -3.0351
       ...                                ...                  ...
       144                          0.7191996              19.5704
      -------------------------------------------------------------
                  HL-Gap            0.0242600 Eh            0.6601 eV

Wiberg/Mayer (AO) data.
largest (>0.10) Wiberg bond orders for each atom

     #   Z sym  total        # sym  WBO       # sym  WBO       # sym  WBO
 ---------------------------------------------------------------------------
     1   6 C    3.923 --    28 H    0.978    27 H    0.976    26 H    0.976
                             2 N    0.928
     2   7 N    3.514 --     3 C    1.169    24 C    1.139     1 C    0.928
                            25 O    0.132
     3   6 C    3.923 --     8 N    1.568     2 N    1.169     4 C    0.976
     4   6 C    3.966 --     6 C    0.988     7 N    0.985     5 C    0.981
                             3 C    0.976
     5   6 C    3.994 --    31 H    0.985    30 H    0.983     4 C    0.981
                            29 H    0.980
     6   6 C    3.994 --     4 C    0.988    32 H    0.986    34 H    0.985
                            33 H    0.982
     7   7 N    2.977 --     4 C    0.985    36 H    0.941    35 H    0.939
     8   7 N    3.032 --     3 C    1.568     9 C    1.196
     9   6 C    3.963 --    22 C    1.510     8 N    1.196    10 C    0.987
    10   6 C    3.910 --    11 O    1.569    12 N    1.274     9 C    0.987
    11   8 O    1.873 --    10 C    1.569    12 N    0.173
    12   7 N    3.353 --    10 C    1.274    13 C    0.934    37 H    0.890
                            11 O    0.173
    13   6 C    3.945 --    14 C    0.992    38 H    0.978    39 H    0.974
                            12 N    0.934
    14   6 C    3.985 --    21 C    1.416    15 C    1.413    13 C    0.992
                            17 C    0.106
    15   6 C    3.995 --    16 C    1.454    14 C    1.413    40 H    0.971
                            20 C    0.107
    16   6 C    3.995 --    15 C    1.454    17 C    1.403    41 H    0.974
                            21 C    0.108
    17   6 C    3.986 --    20 C    1.406    16 C    1.403    18 C    1.032
                            14 C    0.106
    18   6 C    3.988 --    17 C    1.032    42 H    0.985    44 H    0.983
                            43 H    0.926
    19   9 F    0.101
    20   6 C    3.995 --    21 C    1.450    17 C    1.406    45 H    0.973
                            15 C    0.107
    21   6 C    3.995 --    20 C    1.450    14 C    1.416    46 H    0.973
                            16 C    0.108
    22   6 C    3.916 --     9 C    1.510    24 C    1.094    23 O    1.067
    23   8 O    2.061 --    22 C    1.067    47 H    0.802
    24   6 C    3.917 --    25 O    1.532     2 N    1.139    22 C    1.094
    25   8 O    1.883 --    24 C    1.532     2 N    0.132
    26   1 H    1.019 --     1 C    0.976
    27   1 H    1.010 --     1 C    0.976
    28   1 H    1.022 --     1 C    0.978
    29   1 H    1.005 --     5 C    0.980
    30   1 H    1.000 --     5 C    0.983
    31   1 H    1.004 --     5 C    0.985
    32   1 H    1.004 --     6 C    0.986
    33   1 H    1.015 --     6 C    0.982
    34   1 H    1.007 --     6 C    0.985
    35   1 H    0.954 --     7 N    0.939
    36   1 H    0.957 --     7 N    0.941
    37   1 H    0.948 --    12 N    0.890
    38   1 H    1.005 --    13 C    0.978
    39   1 H    1.011 --    13 C    0.974
    40   1 H    1.013 --    15 C    0.971
    41   1 H    1.003 --    16 C    0.974
    42   1 H    1.006 --    18 C    0.985
    43   1 H    1.038 --    18 C    0.926
    44   1 H    1.006 --    18 C    0.983
    45   1 H    1.003 --    20 C    0.973
    46   1 H    1.002 --    21 C    0.973
    47   1 H    0.848 --    23 O    0.802
 ---------------------------------------------------------------------------

           -------------------------------------------------
          | TOTAL ENERGY              -80.232540396829 Eh   |
          | GRADIENT NORM               0.000798272557 Eh/α |
          | HOMO-LUMO GAP               0.660147879935 eV   |
           -------------------------------------------------

 * finished run on 2023/06/20 at 15:10:04.092
