                         Program Version 5.0.1 -  RELEASE  -
|  1> # ORCA input file
|  2> ! SP r2SCAN-3c CPCM
|  3>
|  4> %maxcore 1875.0
|  5> %pal nprocs 4 end
|  6> %cpcm smd true SMDsolvent "DMSO" end
|  7>
|  8> *xyz 0 1
|  9> C       4.969198   -2.256782    0.036254
| 10> O       3.839712   -1.380967    0.147478
| 11> C       4.056277   -0.101003   -0.103552
| 12> O       5.124224    0.358948   -0.422971
| 13> C       2.780597    0.716304    0.025525
| 14> N       1.752299    0.085359    0.761288
| 15> C       0.571691    0.558045    0.695131
| 16> C      -0.527895   -0.004309    1.571734
| 17> C      -0.811885    0.990931    2.700248
| 18> C      -0.124207   -1.372384    2.126952
| 19> N      -1.744677   -0.130113    0.766887
| 20> C      -1.731607   -0.790384   -0.414456
| 21> O      -0.719257   -1.189762   -0.965043
| 22> C      -3.080125   -0.946928   -1.006284
| 23> N      -3.392513   -1.494370   -2.139623
| 24> N      -4.746551   -1.409787   -2.256884
| 25> C      -5.178675   -0.816249   -1.187737
| 26> C      -6.575515   -0.485488   -0.834029
| 27> O      -4.174442   -0.496627   -0.355216
| 28> N       0.197712    1.588034   -0.142457
| 29> C       0.978426    2.034448   -1.180017
| 30> O       0.505937    2.609925   -2.137267
| 31> C       2.441323    1.740133   -1.022249
| 32> C       3.298815    2.014191   -2.233921
| 33> O       2.958529    2.085285    0.238858
| 34> H       5.739836   -1.962379    0.751433
| 35> H       4.607651   -3.258183    0.257578
| 36> H       5.376303   -2.211567   -0.975963
| 37> H      -1.610354    0.610674    3.333887
| 38> H      -1.114021    1.951936    2.287759
| 39> H       0.083584    1.128388    3.304400
| 40> H       0.095808   -2.056393    1.308197
| 41> H       0.764910   -1.265394    2.746381
| 42> H      -0.935116   -1.777969    2.727644
| 43> H      -2.624931    0.078936    1.205116
| 44> H      -6.681382    0.592128   -0.710673
| 45> H      -7.244971   -0.831851   -1.617660
| 46> H      -6.840033   -0.958744    0.111133
| 47> H      -0.788028    1.793533   -0.209799
| 48> H       3.118982    1.257415   -2.996191
| 49> H       3.033275    2.989314   -2.642324
| 50> H       4.351095    2.013709   -1.960325
| 51> **                         ****END OF INPUT****

CARTESIAN COORDINATES (ANGSTROEM)
---------------------------------
  C      4.969198   -2.256782    0.036254
  O      3.839712   -1.380967    0.147478
  C      4.056277   -0.101003   -0.103552
  O      5.124224    0.358948   -0.422971
  C      2.780597    0.716304    0.025525
  N      1.752299    0.085359    0.761288
  C      0.571691    0.558045    0.695131
  C     -0.527895   -0.004309    1.571734
  C     -0.811885    0.990931    2.700248
  C     -0.124207   -1.372384    2.126952
  N     -1.744677   -0.130113    0.766887
  C     -1.731607   -0.790384   -0.414456
  O     -0.719257   -1.189762   -0.965043
  C     -3.080125   -0.946928   -1.006284
  N     -3.392513   -1.494370   -2.139623
  N     -4.746551   -1.409787   -2.256884
  C     -5.178675   -0.816249   -1.187737
  C     -6.575515   -0.485488   -0.834029
  O     -4.174442   -0.496627   -0.355216
  N      0.197712    1.588034   -0.142457
  C      0.978426    2.034448   -1.180017
  O      0.505937    2.609925   -2.137267
  C      2.441323    1.740133   -1.022249
  C      3.298815    2.014191   -2.233921
  O      2.958529    2.085285    0.238858
  H      5.739836   -1.962379    0.751433
  H      4.607651   -3.258183    0.257578
  H      5.376303   -2.211567   -0.975963
  H     -1.610354    0.610674    3.333887
  H     -1.114021    1.951936    2.287759
  H      0.083584    1.128388    3.304400
  H      0.095808   -2.056393    1.308197
  H      0.764910   -1.265394    2.746381
  H     -0.935116   -1.777969    2.727644
  H     -2.624931    0.078936    1.205116
  H     -6.681382    0.592128   -0.710673
  H     -7.244971   -0.831851   -1.617660
  H     -6.840033   -0.958744    0.111133
  H     -0.788028    1.793533   -0.209799
  H      3.118982    1.257415   -2.996191
  H      3.033275    2.989314   -2.642324
  H      4.351095    2.013709   -1.960325

 Total Charge           Charge          ....    0
 Multiplicity           Mult            ....    1
 Number of Electrons    NEL             ....  184
 Basis Dimension        Dim             ....  615

ORBITAL ENERGIES
----------------

  NO   OCC          E(Eh)            E(eV)
   0   2.0000     -19.068011      -518.8670
   1   2.0000     -19.007769      -517.2277
   2   2.0000     -18.996037      -516.9084
   3   2.0000     -18.945124      -515.5230
   4   2.0000     -18.944736      -515.5125
   5   2.0000     -18.942061      -515.4397
   6   2.0000     -14.215933      -386.8352
   7   2.0000     -14.207594      -386.6083
   8   2.0000     -14.206762      -386.5856
   9   2.0000     -14.199110      -386.3774
  10   2.0000     -14.154532      -385.1644
  11   2.0000     -10.167310      -276.6666
  12   2.0000     -10.162196      -276.5274
  13   2.0000     -10.153732      -276.2971
  14   2.0000     -10.149440      -276.1803
  15   2.0000     -10.146135      -276.0904
  16   2.0000     -10.145548      -276.0744
  17   2.0000     -10.129617      -275.6409
  18   2.0000     -10.120390      -275.3898
  19   2.0000     -10.105278      -274.9786
  20   2.0000     -10.078872      -274.2600
  21   2.0000     -10.046092      -273.3680
  22   2.0000     -10.030252      -272.9370
  23   2.0000     -10.024216      -272.7728
  24   2.0000     -10.019548      -272.6458
  25   2.0000      -1.157764       -31.5044
  26   2.0000      -1.102808       -30.0089
  27   2.0000      -1.080825       -29.4107
  28   2.0000      -1.033434       -28.1212
  29   2.0000      -1.029192       -28.0058
  30   2.0000      -0.992763       -27.0145
  31   2.0000      -0.978204       -26.6183
  32   2.0000      -0.958286       -26.0763
  33   2.0000      -0.915607       -24.9149
  34   2.0000      -0.871572       -23.7167
  35   2.0000      -0.833889       -22.6913
  36   2.0000      -0.776612       -21.1327
  37   2.0000      -0.733347       -19.9554
  38   2.0000      -0.723865       -19.6974
  39   2.0000      -0.715157       -19.4604
  40   2.0000      -0.675235       -18.3741
  41   2.0000      -0.670801       -18.2534
  42   2.0000      -0.667346       -18.1594
  43   2.0000      -0.647981       -17.6324
  44   2.0000      -0.612078       -16.6555
  45   2.0000      -0.604356       -16.4454
  46   2.0000      -0.586955       -15.9718
  47   2.0000      -0.562640       -15.3102
  48   2.0000      -0.546497       -14.8709
  49   2.0000      -0.540243       -14.7008
  50   2.0000      -0.531014       -14.4496
  51   2.0000      -0.524180       -14.2637
  52   2.0000      -0.502827       -13.6826
  53   2.0000      -0.496867       -13.5204
  54   2.0000      -0.476746       -12.9729
  55   2.0000      -0.463087       -12.6012
  56   2.0000      -0.456819       -12.4307
  57   2.0000      -0.452003       -12.2996
  58   2.0000      -0.442044       -12.0286
  59   2.0000      -0.429324       -11.6825
  60   2.0000      -0.428560       -11.6617
  61   2.0000      -0.418107       -11.3773
  62   2.0000      -0.417693       -11.3660
  63   2.0000      -0.411111       -11.1869
  64   2.0000      -0.406137       -11.0515
  65   2.0000      -0.400787       -10.9060
  66   2.0000      -0.391204       -10.6452
  67   2.0000      -0.388542       -10.5728
  68   2.0000      -0.383631       -10.4391
  69   2.0000      -0.382405       -10.4058
  70   2.0000      -0.369687       -10.0597
  71   2.0000      -0.362816        -9.8727
  72   2.0000      -0.360331        -9.8051
  73   2.0000      -0.355332        -9.6691
  74   2.0000      -0.354957        -9.6589
  75   2.0000      -0.346673        -9.4335
  76   2.0000      -0.340551        -9.2669
  77   2.0000      -0.337440        -9.1822
  78   2.0000      -0.327236        -8.9045
  79   2.0000      -0.326608        -8.8875
  80   2.0000      -0.316581        -8.6146
  81   2.0000      -0.312403        -8.5009
  82   2.0000      -0.293649        -7.9906
  83   2.0000      -0.281694        -7.6653
  84   2.0000      -0.269990        -7.3468
  85   2.0000      -0.265438        -7.2229
  86   2.0000      -0.262341        -7.1387
  87   2.0000      -0.253848        -6.9075
  88   2.0000      -0.253465        -6.8971
  89   2.0000      -0.244419        -6.6510
  90   2.0000      -0.241344        -6.5673
  91   2.0000      -0.230725        -6.2783
  92   0.0000      -0.091455        -2.4886
  93   0.0000      -0.062934        -1.7125
  94   0.0000      -0.050767        -1.3815
  95   0.0000      -0.022253        -0.6055
  96   0.0000      -0.004898        -0.1333

MULLIKEN ATOMIC CHARGES
-----------------------
   0 C :   -0.306167
   1 O :   -0.168774
   2 C :    0.143693
   3 O :   -0.420293
   4 C :    0.221992
   5 N :   -0.132241
   6 C :    0.269569
   7 C :    0.053906
   8 C :   -0.543617
   9 C :   -0.598871
  10 N :   -0.188060
  11 C :   -0.123206
  12 O :   -0.413464
  13 C :    0.441247
  14 N :   -0.166933
  15 N :   -0.282090
  16 C :    0.398073
  17 C :   -0.631565
  18 O :   -0.055594
  19 N :   -0.131470
  20 C :    0.076824
  21 O :   -0.380885
  22 C :    0.105581
  23 C :   -0.561433
  24 O :   -0.134029
  25 H :    0.178603
  26 H :    0.179130
  27 H :    0.178538
  28 H :    0.191767
  29 H :    0.190156
  30 H :    0.198026
  31 H :    0.196498
  32 H :    0.187195
  33 H :    0.184963
  34 H :    0.321572
  35 H :    0.202060
  36 H :    0.205851
  37 H :    0.201353
  38 H :    0.336051
  39 H :    0.197058
  40 H :    0.179855
  41 H :    0.199132
Sum of atomic charges:    0.0000000

LOEWDIN ATOMIC CHARGES
----------------------
   0 C :   -0.033218
   1 O :   -0.560584
   2 C :    0.403618
   3 O :   -0.414361
   4 C :    0.342975
   5 N :   -0.515430
   6 C :    0.367895
   7 C :    0.105791
   8 C :   -0.335856
   9 C :   -0.342319
  10 N :   -0.576718
  11 C :    0.382726
  12 O :   -0.429985
  13 C :    0.413611
  14 N :   -0.331005
  15 N :   -0.357579
  16 C :    0.381039
  17 C :   -0.316539
  18 O :   -0.389638
  19 N :   -0.460724
  20 C :    0.379549
  21 O :   -0.421210
  22 C :    0.207871
  23 C :   -0.349775
  24 O :   -0.503974
  25 H :    0.183825
  26 H :    0.187484
  27 H :    0.183722
  28 H :    0.176756
  29 H :    0.176027
  30 H :    0.179801
  31 H :    0.180584
  32 H :    0.177185
  33 H :    0.169496
  34 H :    0.301437
  35 H :    0.192536
  36 H :    0.191595
  37 H :    0.192213
  38 H :    0.309426
  39 H :    0.181868
  40 H :    0.180194
  41 H :    0.189691

  Mayer bond orders larger than 0.100000
B(  0-C ,  1-O ) :   0.8254 B(  0-C , 25-H ) :   0.9561 B(  0-C , 26-H ) :   0.9617
B(  0-C , 27-H ) :   0.9552 B(  1-O ,  2-C ) :   1.1757 B(  2-C ,  3-O ) :   1.9239
B(  2-C ,  4-C ) :   0.9220 B(  2-C , 24-O ) :   0.1051 B(  4-C ,  5-N ) :   0.8835
B(  4-C , 22-C ) :   0.7530 B(  4-C , 24-O ) :   0.7131 B(  5-N ,  6-C ) :   1.8267
B(  6-C ,  7-C ) :   0.7493 B(  6-C , 12-O ) :   0.1242 B(  6-C , 19-N ) :   1.0193
B(  7-C ,  8-C ) :   0.9286 B(  7-C ,  9-C ) :   0.9220 B(  7-C , 10-N ) :   0.7725
B(  8-C , 28-H ) :   0.9609 B(  8-C , 29-H ) :   0.9501 B(  8-C , 30-H ) :   0.9641
B(  9-C , 31-H ) :   0.9663 B(  9-C , 32-H ) :   0.9580 B(  9-C , 33-H ) :   0.9710
B( 10-N , 11-C ) :   1.1543 B( 10-N , 34-H ) :   0.8936 B( 11-C , 12-O ) :   1.8571
B( 11-C , 13-C ) :   0.7715 B( 11-C , 15-N ) :   0.1050 B( 12-O , 13-C ) :  -0.1011
B( 13-C , 14-N ) :   1.7260 B( 13-C , 16-C ) :   0.1237 B( 13-C , 18-O ) :   1.0768
B( 14-N , 15-N ) :   1.2676 B( 15-N , 16-C ) :   1.6157 B( 16-C , 17-C ) :   0.8254
B( 16-C , 18-O ) :   1.0666 B( 17-C , 35-H ) :   0.9410 B( 17-C , 36-H ) :   0.9898
B( 17-C , 37-H ) :   0.9429 B( 19-N , 20-C ) :   1.0285 B( 19-N , 38-H ) :   0.8805
B( 20-C , 21-O ) :   2.0709 B( 20-C , 22-C ) :   0.9917 B( 22-C , 23-C ) :   0.7362
B( 22-C , 24-O ) :   0.7277 B( 23-C , 39-H ) :   0.9645 B( 23-C , 40-H ) :   0.9547
B( 23-C , 41-H ) :   0.9858

Dispersion correction           -0.018905776
FINAL SINGLE POINT ENERGY     -1268.633281526699

DIPOLE MOMENT
-------------
                                X             Y             Z
Electronic contribution:     -1.62734       3.01437      -7.52457
Nuclear contribution   :     -1.54411      -2.96404      11.04420
                        -----------------------------------------
Total Dipole Moment    :     -3.17145       0.05033       3.51964
                        -----------------------------------------
Magnitude (a.u.)       :      4.73798
Magnitude (Debye)      :     12.04299

Rotational constants in cm-1:     0.014462     0.003915     0.003748
Rotational constants in MHz :   433.557896   117.364180   112.377091

                             ****ORCA TERMINATED NORMALLY****
TOTAL RUN TIME: 0 days 0 hours 1 minutes 30 seconds 852 msec
