   * xtb version 6.5.1 (579679a) compiled by 'ehlert@majestix' on 2022-07-11
          program call               : /lustre/hpc/kemi/ree/PhD/git/ReactivityQM/dep/xtb-6.5.1/bin/xtb --gfn 1 /lustre/hpc/kemi/ree/PhD/git/ReactivityQM/calculations/R02oxygendeprot/reac01prodN15/conf12/R02oxygendeprot_reac01prodN15_conf12_gfn1.xyz --opt --vfukui --chrg 0 --uhf 0 --alpb DMSO

   ID    Z sym.   atoms
    1    6 C      1, 3, 5, 7-10, 12, 14, 17, 18, 21, 23, 24
    2    8 O      2, 4, 13, 19, 22, 25
    3    7 N      6, 11, 15, 16, 20
    4    1 H      26-42

      * Solvation model:               ALPB
        Solvent                        DMSO
        Solvent mass                       7.8130E+01 g/mol
          :  Hamiltonian                  GFN1-xTB          :
 * total energy  :   -82.8959053 Eh     change       -0.4989431E-10 Eh
 * total energy  :   -82.9160957 Eh     change       -0.2019040E-01 Eh
 * total energy  :   -82.9352724 Eh     change       -0.1917676E-01 Eh
 * total energy  :   -82.9552714 Eh     change       -0.1999899E-01 Eh
 * total energy  :   -82.9800861 Eh     change       -0.2481464E-01 Eh
 * total energy  :   -82.9037191 Eh     change        0.7636693E-01 Eh
 * total energy  :   -82.9997446 Eh     change       -0.9602545E-01 Eh
 * total energy  :   -83.0026666 Eh     change       -0.2922000E-02 Eh
 * total energy  :   -83.0049141 Eh     change       -0.2247533E-02 Eh
 * total energy  :   -83.0060416 Eh     change       -0.1127451E-02 Eh
 * total energy  :   -83.0116299 Eh     change       -0.1261999E-04 Eh
 * total energy  :   -83.0116397 Eh     change       -0.9781241E-05 Eh
 * total energy  :   -83.0116619 Eh     change       -0.2227745E-04 Eh
 * total energy  :   -83.0116693 Eh     change       -0.7320304E-05 Eh
 * total energy  :   -83.0116779 Eh     change       -0.8671603E-05 Eh
 * total energy  :   -83.0116853 Eh     change       -0.7354864E-05 Eh
 * total energy  :   -83.0116904 Eh     change       -0.5127771E-05 Eh
 * total energy  :   -83.0116957 Eh     change       -0.5336485E-05 Eh
 * total energy  :   -83.0116993 Eh     change       -0.3599235E-05 Eh
   *** GEOMETRY OPTIMIZATION CONVERGED AFTER 53 ITERATIONS ***

 final structure:
================
42
 xtb: 6.5.1 (579679a)
C            4.96919759071126       -2.25678205527216        0.03625395416799
O            3.83971246309028       -1.38096697627630        0.14747771375657
C            4.05627732659615       -0.10100271419856       -0.10355246742096
O            5.12422360459701        0.35894759980605       -0.42297098923096
C            2.78059698645573        0.71630377502305        0.02552539636162
N            1.75229945214368        0.08535885055779        0.76128786764637
C            0.57169075289737        0.55804479545787        0.69513092234560
C           -0.52789529643733       -0.00430881199960        1.57173359170693
C           -0.81188471350067        0.99093093351410        2.70024821676918
C           -0.12420686290258       -1.37238435306640        2.12695234786248
N           -1.74467721112506       -0.13011307399955        0.76688652459978
C           -1.73160657401997       -0.79038378531806       -0.41445626001275
O           -0.71925680407237       -1.18976190105853       -0.96504307269683
C           -3.08012485482931       -0.94692782609895       -1.00628402485350
N           -3.39251297062814       -1.49436984721534       -2.13962340412684
N           -4.74655129262193       -1.40978743912579       -2.25688359843157
C           -5.17867500883303       -0.81624925099627       -1.18773673083646
C           -6.57551493798279       -0.48548755079231       -0.83402910170568
O           -4.17444173766098       -0.49662745506036       -0.35521569670352
N            0.19771223167214        1.58803381558403       -0.14245699753880
C            0.97842626138340        2.03444837048329       -1.18001708162901
O            0.50593718424209        2.60992511522758       -2.13726695577633
C            2.44132305810059        1.74013300383492       -1.02224926048376
C            3.29881547673479        2.01419135563168       -2.23392141200023
O            2.95852920587433        2.08528487637994        0.23885789031440
H            5.73983622152867       -1.96237896611373        0.75143283415569
H            4.60765059006149       -3.25818324460059        0.25757767615310
H            5.37630251730299       -2.21156726598040       -0.97596316775115
H           -1.61035372190321        0.61067421659861        3.33388676890899
H           -1.11402077319449        1.95193563866442        2.28775905467979
H            0.08358377458962        1.12838775847572        3.30440037856546
H            0.09580767794610       -2.05639256546735        1.30819656872885
H            0.76491037847960       -1.26539361700533        2.74638063570521
H           -0.93511595183148       -1.77796887955186        2.72764384965745
H           -2.62493070058623        0.07893592837424        1.20511597616828
H           -6.68138220521242        0.59212847423268       -0.71067284124505
H           -7.24497055100927       -0.83185121640838       -1.61766018390344
H           -6.84003281065605       -0.95874403806220        0.11113310379840
H           -0.78802838852057        1.79353257599172       -0.20979919795407
H            3.11898192234767        1.25741517829897       -2.99619120444532
H            3.03327494948610        2.98931441007025       -2.64232406277724
H            4.35109474130504        2.01370916144156       -1.96032456053827

          :  Hamiltonian                  GFN1-xTB          :
         :: total energy             -83.011699341820 Eh    ::
         :: gradient norm              0.000658162337 Eh/a0 ::
         :: HOMO-LUMO gap              3.551945231373 eV    ::
         :: SCC energy               -83.783770446543 Eh    ::
         :: -> Gsolv                  -0.060373170171 Eh    ::
         :: repulsion energy           0.798165744801 Eh    ::

    * Orbital Energies and Occupations

         #    Occupation            Energy/Eh            Energy/eV
      -------------------------------------------------------------
         1        2.0000           -0.8669698             -23.5914
       ...           ...                  ...                  ...
        55        2.0000           -0.5078906             -13.8204
        56        2.0000           -0.5067026             -13.7881
        57        2.0000           -0.5045029             -13.7282
        58        2.0000           -0.5017298             -13.6528
        59        2.0000           -0.4823999             -13.1268
        60        2.0000           -0.4767588             -12.9733
        61        2.0000           -0.4708312             -12.8120
        62        2.0000           -0.4673062             -12.7160
        63        2.0000           -0.4636028             -12.6153
        64        2.0000           -0.4607886             -12.5387
        65        2.0000           -0.4541095             -12.3569
        66        2.0000           -0.4533649             -12.3367
        67        2.0000           -0.4450037             -12.1092 (HOMO)
        68                         -0.3144721              -8.5572 (LUMO)
        69                         -0.3008522              -8.1866
        70                         -0.2871022              -7.8124
        71                         -0.2579004              -7.0178
        72                         -0.2572764              -7.0008
        73                         -0.2014200              -5.4809
        74                         -0.1437707              -3.9122
        75                         -0.1418752              -3.8606
        76                         -0.1348377              -3.6691
        77                         -0.1301674              -3.5420
        78                         -0.1260656              -3.4304
       ...                                ...                  ...
       134                          0.7200230              19.5928
      -------------------------------------------------------------
                  HL-Gap            0.1305316 Eh            3.5519 eV

Wiberg/Mayer (AO) data.
largest (>0.10) Wiberg bond orders for each atom

     #   Z sym  total        # sym  WBO       # sym  WBO       # sym  WBO
 ---------------------------------------------------------------------------
     1   6 C    3.862 --    27 H    0.986    28 H    0.980    26 H    0.979
                             2 O    0.886
     2   8 O    2.220 --     3 C    1.144     1 C    0.886     4 O    0.141
     3   6 C    3.849 --     4 O    1.680     2 O    1.144     5 C    0.939
     4   8 O    1.949 --     3 C    1.680     2 O    0.141
     5   6 C    3.869 --     6 N    1.030     3 C    0.939    25 O    0.904
                            23 C    0.832
     6   7 N    3.022 --     7 C    1.707     5 C    1.030
     7   6 C    3.929 --     6 N    1.707    20 N    1.108     8 C    0.975
     8   6 C    3.937 --    10 C    0.990     9 C    0.983     7 C    0.975
                            11 N    0.927
     9   6 C    3.990 --    30 H    0.984    31 H    0.983     8 C    0.983
                            29 H    0.981
    10   6 C    3.988 --     8 C    0.990    34 H    0.985    33 H    0.984
                            32 H    0.982
    11   7 N    3.337 --    12 C    1.242     8 C    0.927    35 H    0.889
                            13 O    0.173
    12   6 C    3.915 --    13 O    1.590    11 N    1.242    14 C    0.997
    13   8 O    1.892 --    12 C    1.590    11 N    0.173
    14   6 C    3.874 --    15 N    1.619    19 O    1.047    12 C    0.997
    15   7 N    3.002 --    14 C    1.619    16 N    1.201
    16   7 N    2.982 --    17 C    1.607    15 N    1.201
    17   6 C    3.868 --    16 N    1.607    19 O    1.074    18 C    1.032
    18   6 C    3.986 --    17 C    1.032    37 H    0.982    38 H    0.963
                            36 H    0.962
    19   8 O    2.317 --    17 C    1.074    14 C    1.047
    20   7 N    3.420 --    21 C    1.148     7 C    1.108    39 H    0.885
                            22 O    0.127
    21   6 C    3.893 --    22 O    1.652    20 N    1.148    23 C    0.979
    22   8 O    1.930 --    21 C    1.652    20 N    0.127
    23   6 C    3.860 --    24 C    1.002    21 C    0.979    25 O    0.894
                             5 C    0.832
    24   6 C    3.985 --    23 C    1.002    40 H    0.980    42 H    0.979
                            41 H    0.975
    25   8 O    1.964 --     5 C    0.904    23 C    0.894
    26   1 H    1.005 --     1 C    0.979
    27   1 H    1.009 --     1 C    0.986
    28   1 H    1.005 --     1 C    0.980
    29   1 H    0.996 --     9 C    0.981
    30   1 H    0.998 --     9 C    0.984
    31   1 H    0.999 --     9 C    0.983
    32   1 H    1.009 --    10 C    0.982
    33   1 H    1.008 --    10 C    0.984
    34   1 H    1.001 --    10 C    0.985
    35   1 H    0.930 --    11 N    0.889
    36   1 H    0.996 --    18 C    0.962
    37   1 H    0.998 --    18 C    0.982
    38   1 H    0.996 --    18 C    0.963
    39   1 H    0.935 --    20 N    0.885
    40   1 H    1.000 --    24 C    0.980
    41   1 H    1.003 --    24 C    0.975
    42   1 H    1.010 --    24 C    0.979
 ---------------------------------------------------------------------------

           -------------------------------------------------
          | TOTAL ENERGY              -83.011699341820 Eh   |
          | GRADIENT NORM               0.000658162337 Eh/α |
          | HOMO-LUMO GAP               3.551945231373 eV   |
           -------------------------------------------------

 * finished run on 2023/06/21 at 17:35:25.117
