   * xtb version 6.5.1 (579679a) compiled by 'ehlert@majestix' on 2022-07-11
          program call               : /lustre/hpc/kemi/ree/PhD/git/ReactivityQM/dep/xtb-6.5.1/bin/xtb --gfn 1 /lustre/hpc/kemi/ree/PhD/git/ReactivityQM/calculations/R01/reac02prodE05/conf18/R01_reac02prodE05_conf18_gfn1.xyz --opt --vfukui --chrg -1 --uhf 0 --alpb DMSO

   ID    Z sym.   atoms
    1    6 C      1, 3, 5, 6, 8, 11-15
    2    8 O      2, 4, 7, 9
    3    7 N      10, 16, 17
    4    1 H      18-33

      * Solvation model:               ALPB
        Solvent                        DMSO
        Solvent mass                       7.8130E+01 g/mol
          :  Hamiltonian                  GFN1-xTB          :
 * total energy  :   -58.5482774 Eh     change       -0.3788614E-10 Eh
 * total energy  :   -58.5547729 Eh     change       -0.6495490E-02 Eh
 * total energy  :   -58.5565795 Eh     change       -0.1806566E-02 Eh
 * total energy  :   -58.5568728 Eh     change       -0.2933505E-03 Eh
 * total energy  :   -58.5571248 Eh     change       -0.2520093E-03 Eh
 * total energy  :   -58.5572081 Eh     change       -0.8325212E-04 Eh
 * total energy  :   -58.5572792 Eh     change       -0.7108756E-04 Eh
 * total energy  :   -58.5573260 Eh     change       -0.4683622E-04 Eh
 * total energy  :   -58.5573525 Eh     change       -0.2648180E-04 Eh
 * total energy  :   -58.5573800 Eh     change       -0.2752206E-04 Eh
 * total energy  :   -58.5593028 Eh     change       -0.2448191E-04 Eh
 * total energy  :   -58.5593288 Eh     change       -0.2600805E-04 Eh
 * total energy  :   -58.5593452 Eh     change       -0.1644078E-04 Eh
 * total energy  :   -58.5593634 Eh     change       -0.1817739E-04 Eh
 * total energy  :   -58.5593750 Eh     change       -0.1159501E-04 Eh
 * total energy  :   -58.5593826 Eh     change       -0.7559846E-05 Eh
 * total energy  :   -58.5593897 Eh     change       -0.7094897E-05 Eh
 * total energy  :   -58.5593982 Eh     change       -0.8530727E-05 Eh
 * total energy  :   -58.5594029 Eh     change       -0.4664841E-05 Eh
   *** GEOMETRY OPTIMIZATION CONVERGED AFTER 66 ITERATIONS ***

 final structure:
================
33
 xtb: 6.5.1 (579679a)
C            3.91454571904642       -1.00700342661685       -2.16365267479441
O            2.71450198168268       -0.69178716645312       -1.46639754448833
C            2.76009906754345        0.38491396044365       -0.66088980794228
O            3.78730005598084        1.04097554947601       -0.55572588801142
C            1.48606839847128        0.65749233658873        0.04313482325887
C            1.37098415373230        1.79249431906955        0.85971355630983
O            2.43634671840370        2.64987904908631        1.14240673762325
C            0.09662346936740        2.14971293344028        1.38910313197517
O           -0.17372536979812        3.14873412765202        2.07922339421632
N           -0.94898882047308        1.31233239216102        0.98176030528682
C           -0.69530672826783       -0.07703286998029        0.60412764999820
C           -0.53420450521751       -0.93913237168604        1.88222454945953
C           -1.88901007362542       -0.56364698483725       -0.28453657183677
C           -3.25579433568594       -0.40494041505300        0.40268298095658
C           -1.87897354885241        0.24506930521282       -1.58746018753144
N           -1.68075458707466       -1.97476973028726       -0.62456146318865
N            0.51491027239206       -0.21930360968801       -0.17976970728503
H            4.73948778459430       -1.15436306398910       -1.46071529357197
H            3.72907246431094       -1.92671694469478       -2.71675131935452
H            4.17804369578389       -0.20219790999440       -2.85611167867036
H            3.22597943630718        2.34484585341636        0.65970733424635
H           -1.77829345459176        1.43540210435329        1.54496786207632
H           -0.27528133454277       -1.95941898243489        1.60591461759587
H            0.27230456217239       -0.52970404335674        2.49041219510195
H           -1.44694784215052       -0.94609189615466        2.47326555723098
H           -3.28833557538577       -0.94957013288362        1.34495025578422
H           -4.03230038345214       -0.80916434039932       -0.24664551754066
H           -3.48507408400510        0.64316948083276        0.59229717299734
H           -1.97107227699794        1.30904690431592       -1.36519790564401
H           -2.70834332103165       -0.05334088694081       -2.22807960900172
H           -0.94117044551929        0.07432724434259       -2.11949193588830
H           -2.34890700768814       -2.23524408065128       -1.33814136245277
H           -1.89378408542887       -2.54496970428986        0.18471634308456

          :  Hamiltonian                  GFN1-xTB          :
         :: total energy             -58.559402870994 Eh    ::
         :: gradient norm              0.000692606962 Eh/a0 ::
         :: HOMO-LUMO gap              1.236876712984 eV    ::
         :: SCC energy               -59.091909919166 Eh    ::
         :: -> Gsolv                  -0.107969946961 Eh    ::
         :: repulsion energy           0.552369610880 Eh    ::

    * Orbital Energies and Occupations

         #    Occupation            Energy/Eh            Energy/eV
      -------------------------------------------------------------
         1        2.0000           -0.8118413             -22.0913
       ...           ...                  ...                  ...
        36        2.0000           -0.4819559             -13.1147
        37        2.0000           -0.4774288             -12.9915
        38        2.0000           -0.4765639             -12.9680
        39        2.0000           -0.4717359             -12.8366
        40        2.0000           -0.4544008             -12.3649
        41        2.0000           -0.4499060             -12.2426
        42        2.0000           -0.4383272             -11.9275
        43        2.0000           -0.4230971             -11.5131
        44        2.0000           -0.3991886             -10.8625
        45        2.0000           -0.3906939             -10.6313
        46        2.0000           -0.3825562             -10.4099
        47        2.0000           -0.3702674             -10.0755
        48        2.0000           -0.3145013              -8.5580 (HOMO)
        49                         -0.2690469              -7.3211 (LUMO)
        50                         -0.1872275              -5.0947
        51                         -0.1280493              -3.4844
        52                         -0.1131321              -3.0785
        53                         -0.1083836              -2.9493
        54                         -0.1015548              -2.7634
        55                         -0.0941902              -2.5630
        56                         -0.0866048              -2.3566
        57                         -0.0656972              -1.7877
        58                         -0.0641492              -1.7456
        59                         -0.0590033              -1.6056
       ...                                ...                  ...
       100                          0.7308493              19.8874
      -------------------------------------------------------------
                  HL-Gap            0.0454544 Eh            1.2369 eV

Wiberg/Mayer (AO) data.
largest (>0.10) Wiberg bond orders for each atom

     #   Z sym  total        # sym  WBO       # sym  WBO       # sym  WBO
 ---------------------------------------------------------------------------
     1   6 C    3.891 --    19 H    0.987    20 H    0.980    18 H    0.980
                             2 O    0.916
     2   8 O    2.185 --     3 C    1.086     1 C    0.916     4 O    0.116
     3   6 C    3.816 --     4 O    1.598     2 O    1.086     5 C    1.027
     4   8 O    1.917 --     3 C    1.598     2 O    0.116
     5   6 C    3.970 --    17 N    1.418     6 C    1.312     3 C    1.027
     6   6 C    3.872 --     5 C    1.312     8 C    1.195     7 O    0.982
                            17 N    0.190
     7   8 O    1.952 --     6 C    0.982    21 H    0.831
     8   6 C    3.917 --     9 O    1.484     6 C    1.195    10 N    1.082
     9   8 O    1.787 --     8 C    1.484    10 N    0.104
    10   7 N    3.196 --     8 C    1.082    11 C    0.936    22 H    0.922
                             9 O    0.104
    11   6 C    3.942 --    17 N    1.000    12 C    0.971    13 C    0.951
                            10 N    0.936
    12   6 C    3.995 --    24 H    0.985    23 H    0.984    25 H    0.983
                            11 C    0.971
    13   6 C    3.962 --    15 C    1.001    14 C    0.993    16 N    0.981
                            11 C    0.951
    14   6 C    3.995 --    13 C    0.993    27 H    0.984    26 H    0.982
                            28 H    0.982
    15   6 C    3.997 --    13 C    1.001    30 H    0.987    29 H    0.985
                            31 H    0.982
    16   7 N    2.955 --    13 C    0.981    32 H    0.953    33 H    0.953
    17   7 N    2.915 --     5 C    1.418    11 C    1.000     6 C    0.190
    18   1 H    1.012 --     1 C    0.980
    19   1 H    1.015 --     1 C    0.987
    20   1 H    1.011 --     1 C    0.980
    21   1 H    0.893 --     7 O    0.831
    22   1 H    0.970 --    10 N    0.922
    23   1 H    1.014 --    12 C    0.984
    24   1 H    1.009 --    12 C    0.985
    25   1 H    1.007 --    12 C    0.983
    26   1 H    1.007 --    14 C    0.982
    27   1 H    1.007 --    14 C    0.984
    28   1 H    1.005 --    14 C    0.982
    29   1 H    1.017 --    15 C    0.985
    30   1 H    1.005 --    15 C    0.987
    31   1 H    1.026 --    15 C    0.982
    32   1 H    0.969 --    16 N    0.953
    33   1 H    0.972 --    16 N    0.953
 ---------------------------------------------------------------------------

           -------------------------------------------------
          | TOTAL ENERGY              -58.559402870994 Eh   |
          | GRADIENT NORM               0.000692606962 Eh/α |
          | HOMO-LUMO GAP               1.236876712984 eV   |
           -------------------------------------------------

 * finished run on 2023/06/20 at 15:00:27.080
