   * xtb version 6.5.1 (579679a) compiled by 'ehlert@majestix' on 2022-07-11
          program call               : /lustre/hpc/kemi/ree/PhD/git/ReactivityQM/dep/xtb-6.5.1/bin/xtb --gfn 1 /lustre/hpc/kemi/ree/PhD/git/ReactivityQM/calculations/R02/reac01prodN10/conf07/R02_reac01prodN10_conf07_gfn1.xyz --opt --vfukui --chrg 1 --uhf 0 --alpb DMSO

   ID    Z sym.   atoms
    1    6 C      1, 3, 5, 6, 8, 11-15, 17, 19, 22, 23
    2    8 O      2, 4, 7, 9, 18, 24
    3    7 N      10, 16, 20, 21, 25
    4    1 H      26-43

      * Solvation model:               ALPB
        Solvent                        DMSO
        Solvent mass                       7.8130E+01 g/mol
          :  Hamiltonian                  GFN1-xTB          :
 * total energy  :   -83.0905418 Eh     change       -0.1365663E-10 Eh
 * total energy  :   -83.1095186 Eh     change       -0.1897683E-01 Eh
 * total energy  :   -83.1175939 Eh     change       -0.8075290E-02 Eh
 * total energy  :   -83.1192842 Eh     change       -0.1690325E-02 Eh
 * total energy  :   -83.1201963 Eh     change       -0.9120666E-03 Eh
 * total energy  :   -83.1206137 Eh     change       -0.4173844E-03 Eh
 * total energy  :   -83.1210165 Eh     change       -0.4028058E-03 Eh
 * total energy  :   -83.1213576 Eh     change       -0.3411367E-03 Eh
 * total energy  :   -83.1216934 Eh     change       -0.3357712E-03 Eh
 * total energy  :   -83.1220309 Eh     change       -0.3374634E-03 Eh
 * total energy  :   -83.1239586 Eh     change       -0.9426577E-05 Eh
 * total energy  :   -83.1239674 Eh     change       -0.8829332E-05 Eh
 * total energy  :   -83.1239742 Eh     change       -0.6779847E-05 Eh
 * total energy  :   -83.1239803 Eh     change       -0.6083811E-05 Eh
 * total energy  :   -83.1239863 Eh     change       -0.6042633E-05 Eh
 * total energy  :   -83.1239924 Eh     change       -0.6052605E-05 Eh
 * total energy  :   -83.1239987 Eh     change       -0.6305205E-05 Eh
 * total energy  :   -83.1240047 Eh     change       -0.6055204E-05 Eh
 * total energy  :   -83.1240091 Eh     change       -0.4358181E-05 Eh
   *** GEOMETRY OPTIMIZATION CONVERGED AFTER 43 ITERATIONS ***

 final structure:
================
43
 xtb: 6.5.1 (579679a)
C            6.56063417395926       -0.09166653135809       -0.67505847832527
O            5.31171260455474       -0.04212927872876        0.03745771071307
C            4.22107496252216        0.11260483046603       -0.67907519109784
O            4.17587337599697        0.22574371034591       -1.87521056764211
C            2.96070962527552        0.13248727796507        0.17143815802245
C            2.86564794146237       -0.34849442859284        1.49493348764884
O            3.84638438803433       -0.85723564112119        2.14933789654816
C            1.56276599329947       -0.27971210039829        2.21777733532383
O            1.48884898522439       -0.66931551069570        3.36475000788019
N            0.55916831392858        0.25773967038742        1.49697312979550
C            0.63950273440610        0.62938589842593        0.12138767044305
C           -0.01047145397382        2.00197841409286       -0.08508376771043
C           -0.17128760919184       -0.49434975839521       -0.80628848440258
C            0.28647927613735       -0.36157011220054       -2.25517923177961
C            0.15547806774695       -1.87709583137985       -0.25639762511511
N           -1.56345178472468       -0.19752112104907       -0.75564874332270
C           -2.38992919731481       -0.35485607390430        0.32969543728200
O           -2.02801151376805       -0.74731756226216        1.41982567080764
C           -3.76567072039720        0.03912073943898       -0.00474008399112
N           -4.17530600733116        0.49276585160520       -1.15486271955335
N           -5.49775552547333        0.74905880038225       -1.02551320628252
C           -5.82129780896564        0.43917331789661        0.19935583787020
C           -7.15029637689890        0.54477736395898        0.83669991815704
O           -4.76803772705471       -0.01446442134400        0.88857287520969
N            1.90624153173471        0.62262612867101       -0.42659127514208
H            7.33855170754016       -0.17577026078323        0.08028592995436
H            6.68675766515350        0.82026302122944       -1.26156316899651
H            6.56844846199834       -0.95947645619712       -1.33701976692663
H            3.56171976643402       -1.13690744162444        3.05085710869471
H           -0.36105750285533        0.27165304903670        1.93052924758349
H            0.54321860569518        2.73376391464418        0.50029409301596
H           -1.04295630327459        1.97643107114608        0.25247891978936
H            0.02830290142500        2.27718928107017       -1.13576752318051
H           -0.31605182056319       -1.02715856217991       -2.87210513758580
H            0.16431607069429        0.65711360728111       -2.61734037851590
H            1.33542165237409       -0.63992142671338       -2.34471011266328
H           -0.29107974760451       -2.61672925660395       -0.92055011458503
H            1.23348481907296       -2.02751846738690       -0.24312496250034
H           -0.23787413715571       -2.02051034927930        0.74632323002215
H           -1.97237699875565        0.25319450696519       -1.56484788295478
H           -7.85966608468047        0.98024212636775        0.13727337044499
H           -7.08299804873180        1.16629862376599        1.72947757192014
H           -7.49516625595705       -0.44389261294625        1.14095581514480

          :  Hamiltonian                  GFN1-xTB          :
         :: total energy             -83.124009102493 Eh    ::
         :: gradient norm              0.000325179505 Eh/a0 ::
         :: HOMO-LUMO gap              0.996795625400 eV    ::
         :: SCC energy               -83.912785018896 Eh    ::
         :: -> Gsolv                  -0.105868157742 Eh    ::
         :: repulsion energy           0.817304748933 Eh    ::

    * Orbital Energies and Occupations

         #    Occupation            Energy/Eh            Energy/eV
      -------------------------------------------------------------
         1        2.0000           -0.8988618             -24.4593
       ...           ...                  ...                  ...
        55        2.0000           -0.5327669             -14.4973
        56        2.0000           -0.5281283             -14.3711
        57        2.0000           -0.5237074             -14.2508
        58        2.0000           -0.5230902             -14.2340
        59        2.0000           -0.5188067             -14.1174
        60        2.0000           -0.5152690             -14.0212
        61        2.0000           -0.5058825             -13.7658
        62        2.0000           -0.5023153             -13.6687
        63        2.0000           -0.4924002             -13.3989
        64        2.0000           -0.4914359             -13.3727
        65        2.0000           -0.4839096             -13.1679
        66        2.0000           -0.4698401             -12.7850
        67        2.0000           -0.4691390             -12.7659 (HOMO)
        68                         -0.4325074             -11.7691 (LUMO)
        69                         -0.3557881              -9.6815
        70                         -0.3386472              -9.2151
        71                         -0.2787518              -7.5852
        72                         -0.2713500              -7.3838
        73                         -0.2287550              -6.2247
        74                         -0.2230721              -6.0701
        75                         -0.1608129              -4.3759
        76                         -0.1527437              -4.1564
        77                         -0.1508064              -4.1037
        78                         -0.1474824              -4.0132
       ...                                ...                  ...
       136                          0.7213376              19.6286
      -------------------------------------------------------------
                  HL-Gap            0.0366316 Eh            0.9968 eV

Wiberg/Mayer (AO) data.
largest (>0.10) Wiberg bond orders for each atom

     #   Z sym  total        # sym  WBO       # sym  WBO       # sym  WBO
 ---------------------------------------------------------------------------
     1   6 C    3.847 --    26 H    0.985    27 H    0.978    28 H    0.978
                             2 O    0.873
     2   8 O    2.229 --     3 C    1.161     1 C    0.873     4 O    0.150
     3   6 C    3.864 --     4 O    1.690     2 O    1.161     5 C    0.941
     4   8 O    1.960 --     3 C    1.690     2 O    0.150
     5   6 C    3.954 --    25 N    1.523     6 C    1.238     3 C    0.941
     6   6 C    3.836 --     7 O    1.316     5 C    1.238     8 C    0.980
     7   8 O    2.235 --     6 C    1.316    29 H    0.753
     8   6 C    3.922 --     9 O    1.609    10 N    1.236     6 C    0.980
     9   8 O    1.945 --     8 C    1.609    10 N    0.187
    10   7 N    3.447 --     8 C    1.236    11 C    0.990    30 H    0.846
                             9 O    0.187
    11   6 C    3.910 --    25 N    1.132    10 N    0.990    12 C    0.938
                            13 C    0.713
    12   6 C    3.962 --    32 H    0.979    33 H    0.979    31 H    0.976
                            11 C    0.938
    13   6 C    3.903 --    16 N    1.016    14 C    1.003    15 C    0.994
                            11 C    0.713
    14   6 C    3.981 --    13 C    1.003    35 H    0.976    36 H    0.975
                            34 H    0.974
    15   6 C    3.982 --    13 C    0.994    38 H    0.983    39 H    0.975
                            37 H    0.966
    16   7 N    3.379 --    17 C    1.159    13 C    1.016    40 H    0.881
                            18 O    0.134
    17   6 C    3.900 --    18 O    1.619    16 N    1.159    19 C    1.019
    18   8 O    1.956 --    17 C    1.619    16 N    0.134
    19   6 C    3.880 --    20 N    1.578    24 O    1.066    17 C    1.019
    20   7 N    3.023 --    19 C    1.578    21 N    1.230
    21   7 N    2.980 --    22 C    1.571    20 N    1.230
    22   6 C    3.857 --    21 N    1.571    24 O    1.093    23 C    1.035
    23   6 C    3.982 --    22 C    1.035    41 H    0.981    42 H    0.961
                            43 H    0.958
    24   8 O    2.342 --    22 C    1.093    19 C    1.066
    25   7 N    3.030 --     5 C    1.523    11 C    1.132
    26   1 H    1.007 --     1 C    0.985
    27   1 H    1.002 --     1 C    0.978
    28   1 H    1.002 --     1 C    0.978
    29   1 H    0.802 --     7 O    0.753
    30   1 H    0.915 --    10 N    0.846
    31   1 H    0.994 --    12 C    0.976
    32   1 H    0.996 --    12 C    0.979
    33   1 H    0.998 --    12 C    0.979
    34   1 H    0.991 --    14 C    0.974
    35   1 H    0.997 --    14 C    0.976
    36   1 H    1.007 --    14 C    0.975
    37   1 H    0.993 --    15 C    0.966
    38   1 H    0.998 --    15 C    0.983
    39   1 H    1.005 --    15 C    0.975
    40   1 H    0.941 --    16 N    0.881
    41   1 H    0.997 --    23 C    0.981
    42   1 H    0.994 --    23 C    0.961
    43   1 H    0.994 --    23 C    0.958
 ---------------------------------------------------------------------------

           -------------------------------------------------
          | TOTAL ENERGY              -83.124009102493 Eh   |
          | GRADIENT NORM               0.000325179505 Eh/α |
          | HOMO-LUMO GAP               0.996795625400 eV   |
           -------------------------------------------------

 * finished run on 2023/06/20 at 15:31:18.539
