   * xtb version 6.5.1 (579679a) compiled by 'ehlert@majestix' on 2022-07-11
          program call               : /lustre/hpc/kemi/ree/PhD/git/ReactivityQM/dep/xtb-6.5.1/bin/xtb --gfn 1 /lustre/hpc/kemi/ree/PhD/git/ReactivityQM/calculations/R02/reac01prodN16/conf02/R02_reac01prodN16_conf02_gfn1.xyz --opt --vfukui --chrg 1 --uhf 0 --alpb DMSO

   ID    Z sym.   atoms
    1    6 C      1, 2, 5, 6, 9-12, 14, 15, 18-20, 22
    2    7 N      3, 4, 8, 13, 24
    3    8 O      7, 16, 17, 21, 23, 25
    4    1 H      26-43

      * Solvation model:               ALPB
        Solvent                        DMSO
        Solvent mass                       7.8130E+01 g/mol
          :  Hamiltonian                  GFN1-xTB          :
 * total energy  :   -83.1044770 Eh     change       -0.1989520E-10 Eh
 * total energy  :   -83.1178839 Eh     change       -0.1340684E-01 Eh
 * total energy  :   -83.1227284 Eh     change       -0.4844483E-02 Eh
 * total energy  :   -83.1238617 Eh     change       -0.1133387E-02 Eh
 * total energy  :   -83.1247868 Eh     change       -0.9250135E-03 Eh
 * total energy  :   -83.1255614 Eh     change       -0.7746357E-03 Eh
 * total energy  :   -83.1262290 Eh     change       -0.6676487E-03 Eh
 * total energy  :   -83.1268067 Eh     change       -0.5776707E-03 Eh
 * total energy  :   -83.1271888 Eh     change       -0.3820642E-03 Eh
 * total energy  :   -83.1274305 Eh     change       -0.2417588E-03 Eh
 * total energy  :   -83.1290731 Eh     change       -0.4308388E-04 Eh
 * total energy  :   -83.1291149 Eh     change       -0.4176530E-04 Eh
 * total energy  :   -83.1291503 Eh     change       -0.3539553E-04 Eh
 * total energy  :   -83.1291765 Eh     change       -0.2617248E-04 Eh
 * total energy  :   -83.1291795 Eh     change       -0.3017116E-05 Eh
 * total energy  :   -83.1291935 Eh     change       -0.1403841E-04 Eh
 * total energy  :   -83.1292001 Eh     change       -0.6521276E-05 Eh
 * total energy  :   -83.1292068 Eh     change       -0.6751279E-05 Eh
 * total energy  :   -83.1292116 Eh     change       -0.4825326E-05 Eh
   *** GEOMETRY OPTIMIZATION CONVERGED AFTER 37 ITERATIONS ***

 final structure:
================
43
 xtb: 6.5.1 (579679a)
C            6.74104205876289        1.73862679734962       -0.80026960603351
C            5.80556528676829        0.69791174240265       -1.27743850432684
N            5.94924423431845       -0.10238774761712       -2.28848648232839
N            4.83550107695508       -0.88120495848127       -2.33557347000914
C            4.07655800708374       -0.50988653100044       -1.35190496634936
C            2.76138380230816       -1.06098413559362       -0.96404969173874
O            2.24944601127850       -1.99471809747715       -1.57121945972700
N            2.21093395846888       -0.41767253549991        0.08365311512737
C            1.00792605472078       -0.83066811449550        0.81666840895629
C            1.08640162698213       -2.32161790149236        1.17858969293908
C            0.94974072792276        0.01854000122089        2.08761626622490
C           -0.24061017426684       -0.58395742968759       -0.01368903624845
N           -1.22132139027315        0.07029796211311        0.51429537617505
C           -2.38916809196705        0.24983011785485       -0.19417112530330
C           -3.35075706172846        1.04659877887059        0.53424937557298
O           -3.23802642526210        1.68158517745798        1.52386374481925
O           -4.69314293943217        1.10939058724396       -0.15040595273167
C           -5.45925788517855        2.29064523251429        0.22683046824810
C           -5.47338901675639       -0.12315148501638       -0.10770170057343
C           -2.51120158341264       -0.24253212694890       -1.47252037051884
O           -3.58383542790265       -0.10452014096115       -2.23496338191752
C           -1.39266706227721       -0.98176035424934       -2.08122194006391
O           -1.46776294680644       -1.42939870493432       -3.21054651064692
N           -0.30620829103974       -1.11464579675593       -1.26655547170595
O            4.64002050509494        0.49173480511601       -0.64257853998840
H            7.66112112843339        1.70084029951951       -1.37904652823238
H            6.96073361981485        1.58179990257524        0.25519064325203
H            6.28431019316661        2.72288374882314       -0.90539916404548
H            2.73565692500587        0.34017021454966        0.49246357046147
H            1.98419068477771       -2.50230100320191        1.76724546962675
H            1.11497489119459       -2.94055786397232        0.28458750656031
H            0.21211581739157       -2.59306927998949        1.76762766962359
H            0.08138961628040       -0.26621290609203        2.67894418970327
H            1.85012744212971       -0.13897909896341        2.67802336412208
H            0.86586481975658        1.07352147033384        1.83217952001051
H           -4.81386936770274        3.14897511119315        0.05573393760358
H           -5.75112125086287        2.21846626573072        1.27425857331158
H           -6.32633589231426        2.31516838888381       -0.42750649168761
H           -6.16779067755933       -0.07752762812902       -0.94308870323902
H           -4.78226102803566       -0.95190028128366       -0.22817399142299
H           -5.99458866237817       -0.18412258139151        0.84718352572787
H           -3.41315301876125       -0.51461227744257       -3.10989135186846
H            0.51222270540379       -1.62859862294914       -1.62197197719417

          :  Hamiltonian                  GFN1-xTB          :
         :: total energy             -83.129211631198 Eh    ::
         :: gradient norm              0.000908425156 Eh/a0 ::
         :: HOMO-LUMO gap              2.145332558491 eV    ::
         :: SCC energy               -83.931274206433 Eh    ::
         :: -> Gsolv                  -0.113697918724 Eh    ::
         :: repulsion energy           0.828520412817 Eh    ::

    * Orbital Energies and Occupations

         #    Occupation            Energy/Eh            Energy/eV
      -------------------------------------------------------------
         1        2.0000           -0.9293611             -25.2892
       ...           ...                  ...                  ...
        55        2.0000           -0.5277963             -14.3621
        56        2.0000           -0.5221702             -14.2090
        57        2.0000           -0.5157726             -14.0349
        58        2.0000           -0.5113458             -13.9144
        59        2.0000           -0.5105548             -13.8929
        60        2.0000           -0.4932143             -13.4210
        61        2.0000           -0.4857321             -13.2174
        62        2.0000           -0.4800210             -13.0620
        63        2.0000           -0.4748468             -12.9212
        64        2.0000           -0.4694411             -12.7741
        65        2.0000           -0.4616515             -12.5622
        66        2.0000           -0.4583900             -12.4734
        67        2.0000           -0.4569856             -12.4352 (HOMO)
        68                         -0.3781461             -10.2899 (LUMO)
        69                         -0.3218171              -8.7571
        70                         -0.3116893              -8.4815
        71                         -0.2869872              -7.8093
        72                         -0.2616806              -7.1207
        73                         -0.2088609              -5.6834
        74                         -0.1955653              -5.3216
        75                         -0.1808865              -4.9222
        76                         -0.1723050              -4.6887
        77                         -0.1441348              -3.9221
        78                         -0.1361804              -3.7057
       ...                                ...                  ...
       136                          0.7492013              20.3868
      -------------------------------------------------------------
                  HL-Gap            0.0788395 Eh            2.1453 eV

Wiberg/Mayer (AO) data.
largest (>0.10) Wiberg bond orders for each atom

     #   Z sym  total        # sym  WBO       # sym  WBO       # sym  WBO
 ---------------------------------------------------------------------------
     1   6 C    3.985 --     2 C    1.033    26 H    0.982    27 H    0.964
                            28 H    0.960
     2   6 C    3.866 --     3 N    1.604    25 O    1.073     1 C    1.033
     3   7 N    2.983 --     2 C    1.604     4 N    1.206
     4   7 N    3.003 --     5 C    1.615     3 N    1.206
     5   6 C    3.876 --     4 N    1.615    25 O    1.046     6 C    1.005
     6   6 C    3.913 --     7 O    1.548     8 N    1.269     5 C    1.005
     7   8 O    1.924 --     6 C    1.548     8 N    0.170
     8   7 N    3.349 --     6 C    1.269     9 C    0.922    29 H    0.888
                             7 O    0.170
     9   6 C    3.933 --    11 C    1.000    10 C    0.975    12 C    0.973
                             8 N    0.922
    10   6 C    3.984 --    32 H    0.984    30 H    0.982    31 H    0.979
                             9 C    0.975
    11   6 C    3.988 --     9 C    1.000    34 H    0.984    35 H    0.983
                            33 H    0.982
    12   6 C    3.924 --    13 N    1.587    24 N    1.185     9 C    0.973
    13   7 N    3.020 --    12 C    1.587    14 C    1.153
    14   6 C    3.959 --    20 C    1.443    13 N    1.153    15 C    1.101
    15   6 C    3.800 --    16 O    1.823    14 C    1.101    17 O    0.736
    16   8 O    2.086 --    15 C    1.823
    17   8 O    2.481 --    18 C    0.816    19 C    0.809    15 C    0.736
    18   6 C    3.787 --    37 H    0.979    38 H    0.977    36 H    0.976
                            17 O    0.816
    19   6 C    3.785 --    41 H    0.980    39 H    0.976    40 H    0.976
                            17 O    0.809
    20   6 C    3.910 --    14 C    1.443    21 O    1.152    22 C    1.030
    21   8 O    2.129 --    20 C    1.152    42 H    0.779
    22   6 C    3.918 --    23 O    1.599    24 N    1.167    20 C    1.030
    23   8 O    1.926 --    22 C    1.599    24 N    0.143
    24   7 N    3.485 --    12 C    1.185    22 C    1.167    43 H    0.815
                            23 O    0.143
    25   8 O    2.317 --     2 C    1.073     5 C    1.046
    26   1 H    0.998 --     1 C    0.982
    27   1 H    0.996 --     1 C    0.964
    28   1 H    0.996 --     1 C    0.960
    29   1 H    0.932 --     8 N    0.888
    30   1 H    0.997 --    10 C    0.982
    31   1 H    1.006 --    10 C    0.979
    32   1 H    0.999 --    10 C    0.984
    33   1 H    1.006 --    11 C    0.982
    34   1 H    0.997 --    11 C    0.984
    35   1 H    1.001 --    11 C    0.983
    36   1 H    0.995 --    18 C    0.976
    37   1 H    0.996 --    18 C    0.979
    38   1 H    0.994 --    18 C    0.977
    39   1 H    0.997 --    19 C    0.976
    40   1 H    1.000 --    19 C    0.976
    41   1 H    0.992 --    19 C    0.980
    42   1 H    0.822 --    21 O    0.779
    43   1 H    0.914 --    24 N    0.815
 ---------------------------------------------------------------------------

           -------------------------------------------------
          | TOTAL ENERGY              -83.129211631198 Eh   |
          | GRADIENT NORM               0.000908425156 Eh/α |
          | HOMO-LUMO GAP               2.145332558491 eV   |
           -------------------------------------------------

 * finished run on 2023/06/20 at 15:43:16.721
