   * xtb version 6.5.1 (579679a) compiled by 'ehlert@majestix' on 2022-07-11
          program call               : /lustre/hpc/kemi/ree/PhD/git/ReactivityQM/dep/xtb-6.5.1/bin/xtb --gfn 1 /lustre/hpc/kemi/ree/PhD/git/ReactivityQM/calculations/R02methylcation/reac01prodN11/conf07/R02methylcation_reac01prodN11_conf07_gfn1.xyz --opt --vfukui --chrg 0 --uhf 0 --alpb DMSO

   ID    Z sym.   atoms
    1    6 C      1, 3, 5, 7-10, 12, 13, 15, 18, 19, 22, 24
    2    8 O      2, 4, 14, 20, 23, 25
    3    7 N      6, 11, 16, 17, 21
    4    1 H      26-42

      * Solvation model:               ALPB
        Solvent                        DMSO
        Solvent mass                       7.8130E+01 g/mol
          :  Hamiltonian                  GFN1-xTB          :
 * total energy  :   -82.8613672 Eh     change       -0.4527578E-10 Eh
 * total energy  :   -82.8725055 Eh     change       -0.1113823E-01 Eh
 * total energy  :   -82.8778089 Eh     change       -0.5303401E-02 Eh
 * total energy  :   -82.8789816 Eh     change       -0.1172773E-02 Eh
 * total energy  :   -82.8797383 Eh     change       -0.7566265E-03 Eh
 * total energy  :   -82.8801623 Eh     change       -0.4240778E-03 Eh
 * total energy  :   -82.8805128 Eh     change       -0.3504878E-03 Eh
 * total energy  :   -82.8808183 Eh     change       -0.3054985E-03 Eh
 * total energy  :   -82.8811000 Eh     change       -0.2817013E-03 Eh
 * total energy  :   -82.8813753 Eh     change       -0.2753056E-03 Eh
 * total energy  :   -82.8864669 Eh     change       -0.1670623E-04 Eh
 * total energy  :   -82.8864906 Eh     change       -0.2375969E-04 Eh
 * total energy  :   -82.8864973 Eh     change       -0.6628524E-05 Eh
 * total energy  :   -82.8865025 Eh     change       -0.5235195E-05 Eh
 * total energy  :   -82.8865083 Eh     change       -0.5819751E-05 Eh
 * total energy  :   -82.8865131 Eh     change       -0.4755722E-05 Eh
 * total energy  :   -82.8865192 Eh     change       -0.6096792E-05 Eh
 * total energy  :   -82.8865251 Eh     change       -0.5970313E-05 Eh
 * total energy  :   -82.8865299 Eh     change       -0.4742701E-05 Eh
   *** GEOMETRY OPTIMIZATION CONVERGED AFTER 74 ITERATIONS ***

 final structure:
================
42
 xtb: 6.5.1 (579679a)
C            6.95546594763917        0.44708757094244        0.47923351673416
O            5.62345908589129        0.96485160309099        0.41145855745381
C            4.65389025364214        0.08057511569816        0.21833934457032
O            4.84593063594415       -1.10834784710479        0.09567762969514
C            3.28463393874322        0.68584126340846        0.17685535633221
N            2.31115485077609       -0.21496335576763        0.05896364186085
C            1.04150450047256        0.13579109477343        0.02400411379906
C            0.04276671509893       -0.98086929805355       -0.06526892607340
C            0.08153055319617       -1.71823745063585        1.29495683739006
C            0.49313598421393       -1.94500271262920       -1.18931351497169
N           -1.27821599126627       -0.48495952909053       -0.32334015190751
C           -2.43965682781156       -1.38139234606918       -0.47709938777482
C           -2.89159149775757       -1.16233316418799       -1.99323700784079
O           -2.27458119730509       -2.61674722275470       -0.20068069213387
C           -3.57858455625635       -0.69198728176708        0.30148049944812
N           -4.43827010723963       -1.24576648233848        1.08484242265121
N           -5.26219956399553       -0.23826095080689        1.51545753111892
C           -4.85415478844401        0.85245268125450        0.95458056762150
C           -5.42092722272233        2.21138211499180        1.09848483032700
O           -3.78151259598321        0.63384063075335        0.16522303374257
N            0.66641058483122        1.42665053353458        0.11941360798248
C            1.55402672083802        2.49420360379914        0.23806678779160
O            1.13435796919135        3.62402071270040        0.33563437213118
C            3.02314660653706        2.11212136446163        0.25021401692064
O            3.87274685042590        2.98660232921553        0.32180494600376
H            7.61577310364832        1.30210951005904        0.60808396631811
H            7.04702739247641       -0.23590536987346        1.32712999312864
H            7.19731289000251       -0.08708742943963       -0.44243830200849
H           -0.53632794583695       -2.61183338447437        1.25272659653838
H           -0.28897476131553       -1.05645149604397        2.07515221405273
H            1.10908423872667       -2.00099798240114        1.51505982027585
H            0.45839565032379       -1.43043271413318       -2.14669767388909
H            1.51250440681172       -2.26892668158359       -0.98771885141342
H           -0.16644790764242       -2.80871752606561       -1.21469786009601
H           -1.36395000112058        0.38447969999434       -0.82236515228368
H           -2.08700454448700       -1.52396186572522       -2.62487870502945
H           -3.08815946567711       -0.11251070778002       -2.17967005157106
H           -3.78794915766690       -1.75725105860657       -2.14298570770880
H           -4.70685224308053        2.86652076683332        1.59720241045429
H           -6.33559209760005        2.16272938951043        1.68508961436339
H           -5.63435343333479        2.63113079237082        0.11616095737768
H           -0.30895197287898        1.68055407991752        0.12753479862124

          :  Hamiltonian                  GFN1-xTB          :
         :: total energy             -82.886529888635 Eh    ::
         :: gradient norm              0.000640180027 Eh/a0 ::
         :: HOMO-LUMO gap              0.092595111280 eV    ::
         :: SCC energy               -83.652578957105 Eh    ::
         :: -> Gsolv                  -0.068898486280 Eh    ::
         :: repulsion energy           0.792172653897 Eh    ::

    * Orbital Energies and Occupations

         #    Occupation            Energy/Eh            Energy/eV
      -------------------------------------------------------------
         1        2.0000           -0.8645505             -23.5256
       ...           ...                  ...                  ...
        55        2.0000           -0.5107515             -13.8983
        56        2.0000           -0.5056583             -13.7597
        57        2.0000           -0.5032268             -13.6935
        58        2.0000           -0.4989651             -13.5775
        59        2.0000           -0.4879406             -13.2775
        60        2.0000           -0.4785456             -13.0219
        61        2.0000           -0.4777927             -13.0014
        62        2.0000           -0.4603450             -12.5266
        63        2.0000           -0.4580833             -12.4651
        64        2.0000           -0.4495499             -12.2329
        65        2.0000           -0.4459693             -12.1354
        66        2.0000           -0.4402388             -11.9795
        67        1.7141           -0.4213660             -11.4660 (HOMO)
        68        0.2859           -0.4179632             -11.3734 (LUMO)
        69                         -0.3250720              -8.8457
        70                         -0.3015678              -8.2061
        71                         -0.2703172              -7.3557
        72                         -0.2519028              -6.8546
        73                         -0.2489473              -6.7742
        74                         -0.1748919              -4.7591
        75                         -0.1439308              -3.9166
        76                         -0.1415757              -3.8525
        77                         -0.1383923              -3.7658
        78                         -0.1364611              -3.7133
       ...                                ...                  ...
       134                          0.7489546              20.3801
      -------------------------------------------------------------
                  HL-Gap            0.0034028 Eh            0.0926 eV

Wiberg/Mayer (AO) data.
largest (>0.10) Wiberg bond orders for each atom

     #   Z sym  total        # sym  WBO       # sym  WBO       # sym  WBO
 ---------------------------------------------------------------------------
     1   6 C    3.866 --    26 H    0.986    28 H    0.978    27 H    0.978
                             2 O    0.894
     2   8 O    2.207 --     3 C    1.128     1 C    0.894     4 O    0.139
     3   6 C    3.846 --     4 O    1.652     2 O    1.128     5 C    0.994
     4   8 O    1.900 --     3 C    1.652     2 O    0.139
     5   6 C    3.767 --     6 N    1.391    24 C    1.115     3 C    0.994
     6   7 N    2.996 --     5 C    1.391     7 C    1.379
     7   6 C    3.842 --     6 N    1.379    21 N    1.240     8 C    1.010
     8   6 C    3.933 --     7 C    1.010    11 N    0.989     9 C    0.931
                            10 C    0.923
     9   6 C    3.961 --    30 H    0.985    31 H    0.985    29 H    0.973
                             8 C    0.931
    10   6 C    3.954 --    32 H    0.985    33 H    0.980    34 H    0.977
                             8 C    0.923
    11   7 N    3.202 --     8 C    0.989    12 C    0.907    35 H    0.901
                            14 O    0.155
    12   6 C    3.882 --    14 O    1.277    11 N    0.907    15 C    0.862
                            13 C    0.770
    13   6 C    3.814 --    37 H    0.985    36 H    0.981    38 H    0.980
                            12 C    0.770
    14   8 O    1.622 --    12 C    1.277    11 N    0.155
    15   6 C    3.799 --    16 N    1.660    20 O    1.057    12 C    0.862
    16   7 N    2.977 --    15 C    1.660    17 N    1.158
    17   7 N    2.978 --    18 C    1.636    16 N    1.158
    18   6 C    3.860 --    17 N    1.636    20 O    1.053    19 C    1.031
    19   6 C    3.986 --    18 C    1.031    40 H    0.982    41 H    0.966
                            39 H    0.962
    20   8 O    2.304 --    15 C    1.057    18 C    1.053
    21   7 N    3.459 --     7 C    1.240    22 C    1.080    42 H    0.873
                            23 O    0.103
    22   6 C    3.838 --    23 O    1.689    21 N    1.080    24 C    0.939
    23   8 O    1.910 --    22 C    1.689    21 N    0.103
    24   6 C    3.856 --    25 O    1.663     5 C    1.115    22 C    0.939
    25   8 O    1.824 --    24 C    1.663
    26   1 H    1.010 --     1 C    0.986
    27   1 H    1.005 --     1 C    0.978
    28   1 H    1.005 --     1 C    0.978
    29   1 H    1.010 --     9 C    0.973
    30   1 H    0.999 --     9 C    0.985
    31   1 H    1.004 --     9 C    0.985
    32   1 H    0.998 --    10 C    0.985
    33   1 H    1.008 --    10 C    0.980
    34   1 H    1.009 --    10 C    0.977
    35   1 H    0.939 --    11 N    0.901
    36   1 H    0.997 --    13 C    0.981
    37   1 H    0.998 --    13 C    0.985
    38   1 H    0.998 --    13 C    0.980
    39   1 H    0.997 --    19 C    0.962
    40   1 H    0.998 --    19 C    0.982
    41   1 H    0.997 --    19 C    0.966
    42   1 H    0.920 --    21 N    0.873
 ---------------------------------------------------------------------------

           -------------------------------------------------
          | TOTAL ENERGY              -82.886529888635 Eh   |
          | GRADIENT NORM               0.000640180027 Eh/α |
          | HOMO-LUMO GAP               0.092595111280 eV   |
           -------------------------------------------------

 * finished run on 2023/06/21 at 17:43:56.647
