   * xtb version 6.5.1 (579679a) compiled by 'ehlert@majestix' on 2022-07-11
          program call               : /lustre/hpc/kemi/ree/PhD/git/ReactivityQM/dep/xtb-6.5.1/bin/xtb --gfn 1 /lustre/hpc/kemi/ree/PhD/git/ReactivityQM/calculations/R03/reac02prodE14/conf03/R03_reac02prodE14_conf03_gfn1.xyz --opt --vfukui --chrg -1 --uhf 0 --alpb DMSO

   ID    Z sym.   atoms
    1    6 C      1, 3, 5, 7-10, 12, 14, 17, 18, 21, 22, 24, 25
    2    8 O      2, 4, 13, 19, 23, 26
    3    7 N      6, 11, 15, 16, 20
    4    1 H      27-46

      * Solvation model:               ALPB
        Solvent                        DMSO
        Solvent mass                       7.8130E+01 g/mol
          :  Hamiltonian                  GFN1-xTB          :
 * total energy  :   -87.0457230 Eh     change       -0.5056222E-10 Eh
 * total energy  :   -87.0609721 Eh     change       -0.1524909E-01 Eh
 * total energy  :   -87.0669742 Eh     change       -0.6002069E-02 Eh
 * total energy  :   -87.0677880 Eh     change       -0.8138475E-03 Eh
 * total energy  :   -87.0681613 Eh     change       -0.3732915E-03 Eh
 * total energy  :   -87.0682716 Eh     change       -0.1102711E-03 Eh
 * total energy  :   -87.0683717 Eh     change       -0.1001196E-03 Eh
 * total energy  :   -87.0684496 Eh     change       -0.7796550E-04 Eh
 * total energy  :   -87.0685169 Eh     change       -0.6725447E-04 Eh
 * total energy  :   -87.0685759 Eh     change       -0.5899039E-04 Eh
 * total energy  :   -87.0690757 Eh     change       -0.1217074E-04 Eh
 * total energy  :   -87.0690901 Eh     change       -0.1434362E-04 Eh
 * total energy  :   -87.0691016 Eh     change       -0.1150192E-04 Eh
 * total energy  :   -87.0691257 Eh     change       -0.2413143E-04 Eh
 * total energy  :   -87.0691051 Eh     change        0.2061867E-04 Eh
 * total energy  :   -87.0691316 Eh     change       -0.2650084E-04 Eh
 * total energy  :   -87.0691387 Eh     change       -0.7142250E-05 Eh
 * total energy  :   -87.0691467 Eh     change       -0.7969792E-05 Eh
 * total energy  :   -87.0691512 Eh     change       -0.4553788E-05 Eh
   *** GEOMETRY OPTIMIZATION CONVERGED AFTER 44 ITERATIONS ***

 final structure:
================
46
 xtb: 6.5.1 (579679a)
C           -5.25308968970566        3.25489340809972       -0.94823195366063
O           -4.52822039567040        2.22258539952957       -0.30605141015853
C           -3.28235916182032        1.94050343597589       -0.85846317849054
O           -2.90112769237051        2.58636615850059       -1.84595184338864
C           -2.57740851367076        0.90857074999747       -0.20127183449213
N           -1.40099968680819        0.53492096828143       -0.76625618532866
C           -0.62699841652645       -0.38498646963462       -0.31432840708153
C            0.59669206572328       -0.74693848372840       -1.13925299905546
C            0.59736781457048       -2.22824027739926       -1.54628347893385
C            0.61116415402459        0.11958745441697       -2.40894827095785
N            1.80789020834813       -0.41822976749029       -0.35573548705466
C            3.06570226625328       -0.68006999006037       -0.74955373602033
O            3.39700389035580       -1.30653749870386       -1.74285807279727
C            4.04834494660404       -0.10973347322470        0.21607701994451
N            3.76289863576286        0.55708647554558        1.29356568502944
N            4.95006020624947        0.89348686940170        1.87490006908690
C            5.88307965443289        0.41081829164263        1.11314619119553
C            7.34709988248051        0.51370468637173        1.30160504887321
O            5.37837348373792       -0.23259006806890        0.04960858727983
N           -0.92926630036426       -1.05715554195200        0.91183642349612
C           -0.00877743459219       -1.98664196540128        1.56407115547701
C           -2.05778840436512       -0.77816837925206        1.60124171479188
O           -2.27220213010278       -1.26540080399292        2.71774592473174
C           -3.11566681485837        0.16163512522781        0.99797614979782
C           -4.33888590134652       -0.71563165110562        0.63861281505065
O           -3.48352500150587        1.06789224339833        2.04134835215957
H           -6.20095502754910        3.36226927586988       -0.41931128470001
H           -5.45026488050198        3.00661700924303       -1.99823090538531
H           -4.70715495053571        4.20559123578072       -0.91208348772527
H            1.31739712155868       -2.40335247188811       -2.34387864215771
H            0.85266720769789       -2.87518102517720       -0.71132809484065
H           -0.39526109277343       -2.49468885388253       -1.90744375823803
H            0.60563680544530        1.17647060111250       -2.14427677652814
H           -0.27262111947311       -0.09685586070982       -3.00752579631327
H            1.50155285685318       -0.09839264916656       -2.99613609869205
H            1.69184122136528        0.20062583591038        0.43421362749626
H            7.81401433690166       -0.45449248879887        1.12760925255306
H            7.56430667843453        0.85345819030276        2.31133640382560
H            7.76530636599177        1.22464277010605        0.58802127279802
H           -0.07421078261355       -1.84223882664930        2.64390075788343
H           -0.28883224725681       -3.01594880034498        1.33257126528451
H            1.01362421963341       -1.80660278864075        1.24779551817172
H           -4.07887109836892       -1.39761777972054       -0.16951134914101
H           -4.64718494664601       -1.29231036343115        1.50986329368751
H           -5.16431713001850       -0.08056763358656        0.32301573831663
H           -3.51603220297690        0.56684772729014        2.86942578420612

          :  Hamiltonian                  GFN1-xTB          :
         :: total energy             -87.069151237227 Eh    ::
         :: gradient norm              0.000337639157 Eh/a0 ::
         :: HOMO-LUMO gap              0.759769174297 eV    ::
         :: SCC energy               -87.867067527708 Eh    ::
         :: -> Gsolv                  -0.116856878402 Eh    ::
         :: repulsion energy           0.827206833093 Eh    ::

    * Orbital Energies and Occupations

         #    Occupation            Energy/Eh            Energy/eV
      -------------------------------------------------------------
         1        2.0000           -0.8594674             -23.3873
       ...           ...                  ...                  ...
        59        2.0000           -0.4716785             -12.8350
        60        2.0000           -0.4693020             -12.7704
        61        2.0000           -0.4572160             -12.4415
        62        2.0000           -0.4544092             -12.3651
        63        2.0000           -0.4488989             -12.2152
        64        2.0000           -0.4456011             -12.1254
        65        2.0000           -0.4452275             -12.1153
        66        2.0000           -0.4351963             -11.8423
        67        2.0000           -0.4213485             -11.4655
        68        2.0000           -0.4179721             -11.3736
        69        2.0000           -0.4039818             -10.9929
        70        2.0000           -0.3878601             -10.5542
        71        2.0000           -0.3311229              -9.0103 (HOMO)
        72        0.0000           -0.3032019              -8.2505 (LUMO)
        73                         -0.2533640              -6.8944
        74                         -0.2456341              -6.6840
        75                         -0.2035745              -5.5395
        76                         -0.1917551              -5.2179
        77                         -0.1442444              -3.9251
        78                         -0.1410542              -3.8383
        79                         -0.1257379              -3.4215
        80                         -0.1146088              -3.1187
        81                         -0.1105506              -3.0082
        82                         -0.1035854              -2.8187
       ...                                ...                  ...
       144                          0.7319583              19.9176
      -------------------------------------------------------------
                  HL-Gap            0.0279210 Eh            0.7598 eV

Wiberg/Mayer (AO) data.
largest (>0.10) Wiberg bond orders for each atom

     #   Z sym  total        # sym  WBO       # sym  WBO       # sym  WBO
 ---------------------------------------------------------------------------
     1   6 C    3.912 --    27 H    0.987    29 H    0.981    28 H    0.981
                             2 O    0.941
     2   8 O    2.104 --     3 C    0.966     1 C    0.941
     3   6 C    3.865 --     4 O    1.488     5 C    1.281     2 O    0.966
     4   8 O    1.788 --     3 C    1.488     5 C    0.104
     5   6 C    3.860 --     3 C    1.281     6 N    1.228    24 C    0.977
                             7 C    0.119     4 O    0.104
     6   7 N    3.065 --     7 C    1.603     5 C    1.228
     7   6 C    3.893 --     6 N    1.603     8 C    0.982    20 N    0.971
                             5 C    0.119
     8   6 C    3.925 --    10 C    0.991     9 C    0.990     7 C    0.982
                            11 N    0.898
     9   6 C    3.990 --     8 C    0.990    32 H    0.986    31 H    0.981
                            30 H    0.981
    10   6 C    3.994 --     8 C    0.991    34 H    0.985    35 H    0.985
                            33 H    0.984
    11   7 N    3.364 --    12 C    1.273    36 H    0.899     8 C    0.898
                            13 O    0.182
    12   6 C    3.921 --    13 O    1.582    11 N    1.273    14 C    0.982
    13   8 O    1.900 --    12 C    1.582    11 N    0.182
    14   6 C    3.871 --    15 N    1.615    19 O    1.063    12 C    0.982
    15   7 N    3.014 --    14 C    1.615    16 N    1.194
    16   7 N    2.980 --    17 C    1.610    15 N    1.194
    17   6 C    3.872 --    16 N    1.610    19 O    1.081    18 C    1.030
    18   6 C    3.987 --    17 C    1.030    38 H    0.982    37 H    0.970
                            39 H    0.960
    19   8 O    2.328 --    17 C    1.081    14 C    1.063
    20   7 N    3.433 --    22 C    1.257     7 C    0.971    21 C    0.944
                            23 O    0.146
    21   6 C    3.949 --    41 H    0.981    42 H    0.981    40 H    0.977
                            20 N    0.944
    22   6 C    3.890 --    23 O    1.541    20 N    1.257    24 C    0.935
    23   8 O    1.862 --    22 C    1.541    20 N    0.146
    24   6 C    3.912 --     5 C    0.977    25 C    0.965    22 C    0.935
                            26 O    0.935
    25   6 C    3.996 --    43 H    0.988    44 H    0.986    45 H    0.983
                            24 C    0.965
    26   8 O    1.885 --    24 C    0.935    46 H    0.859
    27   1 H    1.018 --     1 C    0.987
    28   1 H    1.018 --     1 C    0.981
    29   1 H    1.018 --     1 C    0.981
    30   1 H    1.014 --     9 C    0.981
    31   1 H    1.005 --     9 C    0.981
    32   1 H    1.006 --     9 C    0.986
    33   1 H    1.018 --    10 C    0.984
    34   1 H    1.014 --    10 C    0.985
    35   1 H    1.009 --    10 C    0.985
    36   1 H    0.963 --    11 N    0.899
    37   1 H    0.997 --    18 C    0.970
    38   1 H    0.999 --    18 C    0.982
    39   1 H    0.997 --    18 C    0.960
    40   1 H    1.014 --    21 C    0.977
    41   1 H    1.008 --    21 C    0.981
    42   1 H    1.012 --    21 C    0.981
    43   1 H    1.011 --    25 C    0.988
    44   1 H    1.010 --    25 C    0.986
    45   1 H    1.019 --    25 C    0.983
    46   1 H    0.894 --    26 O    0.859
 ---------------------------------------------------------------------------

           -------------------------------------------------
          | TOTAL ENERGY              -87.069151237227 Eh   |
          | GRADIENT NORM               0.000337639157 Eh/α |
          | HOMO-LUMO GAP               0.759769174297 eV   |
           -------------------------------------------------

 * finished run on 2023/06/20 at 15:34:47.249
