   * xtb version 6.5.1 (579679a) compiled by 'ehlert@majestix' on 2022-07-11
          program call               : /lustre/hpc/kemi/ree/PhD/git/ReactivityQM/dep/xtb-6.5.1/bin/xtb --gfn 1 /lustre/hpc/kemi/ree/PhD/git/ReactivityQM/calculations/R03/reac02prodN07/conf09/R03_reac02prodN07_conf09_gfn1.xyz --opt --vfukui --chrg 1 --uhf 0 --alpb DMSO

   ID    Z sym.   atoms
    1    6 C      1, 3, 5, 7-10, 12, 14, 17-19, 22, 23, 25
    2    8 O      2, 4, 13, 20, 24, 26
    3    7 N      6, 11, 15, 16, 21
    4    1 H      27-46

      * Solvation model:               ALPB
        Solvent                        DMSO
        Solvent mass                       7.8130E+01 g/mol
          :  Hamiltonian                  GFN1-xTB          :
 * total energy  :   -86.3343614 Eh     change       -0.2600586E-10 Eh
 * total energy  :   -86.3527742 Eh     change       -0.1841280E-01 Eh
 * total energy  :   -86.3590773 Eh     change       -0.6303063E-02 Eh
 * total energy  :   -86.3601404 Eh     change       -0.1063092E-02 Eh
 * total energy  :   -86.3605945 Eh     change       -0.4540888E-03 Eh
 * total energy  :   -86.3607293 Eh     change       -0.1348516E-03 Eh
 * total energy  :   -86.3608532 Eh     change       -0.1239364E-03 Eh
 * total energy  :   -86.3609535 Eh     change       -0.1002633E-03 Eh
 * total energy  :   -86.3610370 Eh     change       -0.8347172E-04 Eh
 * total energy  :   -86.3611013 Eh     change       -0.6434961E-04 Eh
 * total energy  :   -86.3612529 Eh     change       -0.2773168E-04 Eh
 * total energy  :   -86.3612721 Eh     change       -0.1914695E-04 Eh
 * total energy  :   -86.3612912 Eh     change       -0.1912360E-04 Eh
 * total energy  :   -86.3613107 Eh     change       -0.1948016E-04 Eh
 * total energy  :   -86.3613187 Eh     change       -0.8000925E-05 Eh
 * total energy  :   -86.3613315 Eh     change       -0.1288116E-04 Eh
 * total energy  :   -86.3613381 Eh     change       -0.6561593E-05 Eh
 * total energy  :   -86.3613495 Eh     change       -0.1140430E-04 Eh
 * total energy  :   -86.3613529 Eh     change       -0.3348894E-05 Eh
   *** GEOMETRY OPTIMIZATION CONVERGED AFTER 22 ITERATIONS ***

 final structure:
================
46
 xtb: 6.5.1 (579679a)
C           -6.06574357824633       -3.33300379510521        1.45383409241931
O           -5.29602196724821       -2.14659370755762        1.23110858163043
C           -4.14297499394386       -2.30044348527343        0.58682869605025
O           -3.73742668619838       -3.37045268185491        0.19404957287986
C           -3.39733872940180       -1.02054315785451        0.39576753646549
N           -2.22201306905485       -1.16562059456030       -0.29027515542437
C           -1.44490327468321       -0.16447977764815       -0.53691304482965
C           -0.20409455990964       -0.47505994201501       -1.36355752503785
C           -0.32714690170532        0.17164447718038       -2.74999531717726
C           -0.05047913591848       -1.99536416225126       -1.50566741613286
N            0.97782098300302        0.02825527519740       -0.63556991049234
C            2.21494785762584        0.03084096824164       -1.15770574434621
O            2.54124231765814       -0.25680752096528       -2.28651534134811
C            3.22358803253170        0.48143919311217       -0.13364412875724
N            2.99845941495010        0.84572614372161        1.09314633860075
N            4.21121631363611        1.15132841656261        1.59263203761703
C            4.32702404816828        1.61407488453490        2.96191070575236
C            5.13429484925609        0.96926118956099        0.66997617094525
C            6.59035347979649        1.16231439334999        0.75241560117796
O            4.53383897256097        0.54657692445277       -0.42382421430747
N           -1.75681193968828        1.11004407856903       -0.13197938092000
C           -0.94933490445647        2.30659194984238       -0.37162684736821
C           -2.92787067259292        1.37009096892816        0.55863425092509
O           -3.23087435276160        2.50100355116783        0.92175467898722
C           -3.77752125278653        0.21859896411646        0.82959559184497
O           -4.90091706348701        0.48384198473561        1.50194461301025
H           -5.49553032463968       -4.04015373007097        2.06081810347709
H           -6.96771230302136       -3.02466705317744        1.97864197330143
H           -6.32090298702291       -3.79941374462089        0.49914355883099
H           -0.21175269208989        1.25079705176939       -2.69460416950383
H            0.43304909931990       -0.22562231773078       -3.41953356511276
H           -1.31055443700575       -0.05859952746864       -3.15883621318496
H            0.85017698085651       -2.21852801526863       -2.07420494840871
H           -0.91516818851079       -2.40320798580906       -2.02638500314383
H            0.02100825960821       -2.45660598350369       -0.52238495970977
H            0.88756466021749        0.17416035455290        0.35624951910077
H            5.05933016555949        1.00124083442814        3.48369771338084
H            4.64667725003531        2.65522198913552        2.95758967469323
H            3.34788390754294        1.51969335146617        3.42408436505955
H            7.08258590634518        0.18759213128843        0.79271039467506
H            6.85088223440676        1.73222301443030        1.64046015899809
H            6.93952736515218        1.67531216640275       -0.14460260681399
H           -1.42718720752041        2.90815435270838       -1.14524361100129
H           -0.91889382109652        2.87924387468319        0.55498929429244
H            0.05645093328946        2.04081686361019       -0.66885525969905
H           -4.92875098854328        1.43907783499858        1.69966813857325

          :  Hamiltonian                  GFN1-xTB          :
         :: total energy             -86.361352863142 Eh    ::
         :: gradient norm              0.000343355924 Eh/a0 ::
         :: HOMO-LUMO gap              2.013771543088 eV    ::
         :: SCC energy               -87.206668647647 Eh    ::
         :: -> Gsolv                  -0.126105601837 Eh    ::
         :: repulsion energy           0.873656059838 Eh    ::

    * Orbital Energies and Occupations

         #    Occupation            Energy/Eh            Energy/eV
      -------------------------------------------------------------
         1        2.0000           -0.9396524             -25.5692
       ...           ...                  ...                  ...
        58        2.0000           -0.5266847             -14.3318
        59        2.0000           -0.5224688             -14.2171
        60        2.0000           -0.5192502             -14.1295
        61        2.0000           -0.5167367             -14.0611
        62        2.0000           -0.5126941             -13.9511
        63        2.0000           -0.4997520             -13.5989
        64        2.0000           -0.4950154             -13.4701
        65        2.0000           -0.4901689             -13.3382
        66        2.0000           -0.4830834             -13.1454
        67        2.0000           -0.4786053             -13.0235
        68        2.0000           -0.4659846             -12.6801
        69        2.0000           -0.4550359             -12.3822
        70        2.0000           -0.4369723             -11.8906 (HOMO)
        71                         -0.3629675              -9.8768 (LUMO)
        72                         -0.3465218              -9.4293
        73                         -0.3294808              -8.9656
        74                         -0.2934451              -7.9850
        75                         -0.2462933              -6.7020
        76                         -0.2457186              -6.6863
        77                         -0.1850882              -5.0365
        78                         -0.1738647              -4.7311
        79                         -0.1641530              -4.4668
        80                         -0.1507287              -4.1015
        81                         -0.1399937              -3.8094
       ...                                ...                  ...
       144                          0.7269367              19.7810
      -------------------------------------------------------------
                  HL-Gap            0.0740047 Eh            2.0138 eV

Wiberg/Mayer (AO) data.
largest (>0.10) Wiberg bond orders for each atom

     #   Z sym  total        # sym  WBO       # sym  WBO       # sym  WBO
 ---------------------------------------------------------------------------
     1   6 C    3.870 --    28 H    0.986    27 H    0.980    29 H    0.979
                             2 O    0.895
     2   8 O    2.206 --     3 C    1.120     1 C    0.895     4 O    0.136
     3   6 C    3.852 --     4 O    1.658     2 O    1.120     5 C    0.996
     4   8 O    1.920 --     3 C    1.658     2 O    0.136
     5   6 C    3.962 --    25 C    1.494     6 N    1.185     3 C    0.996
     6   7 N    3.035 --     7 C    1.582     5 C    1.185
     7   6 C    3.933 --     6 N    1.582    21 N    1.164     8 C    0.976
     8   6 C    3.918 --    10 C    0.989     9 C    0.983     7 C    0.976
                            11 N    0.903
     9   6 C    3.986 --    32 H    0.983     8 C    0.983    30 H    0.981
                            31 H    0.977
    10   6 C    3.987 --     8 C    0.989    35 H    0.984    33 H    0.983
                            34 H    0.982
    11   7 N    3.373 --    12 C    1.275     8 C    0.903    36 H    0.893
                            13 O    0.195
    12   6 C    3.925 --    13 O    1.623    11 N    1.275    14 C    0.952
    13   8 O    1.950 --    12 C    1.623    11 N    0.195
    14   6 C    3.843 --    15 N    1.608    20 O    1.069    12 C    0.952
    15   7 N    2.993 --    14 C    1.608    16 N    1.150
    16   7 N    3.631 --    18 C    1.423    15 N    1.150    17 C    0.907
    17   6 C    3.882 --    39 H    0.978    37 H    0.971    38 H    0.967
                            16 N    0.907
    18   6 C    3.841 --    16 N    1.423    20 O    1.153    19 C    1.043
    19   6 C    3.961 --    18 C    1.043    41 H    0.975    42 H    0.951
                            40 H    0.934
    20   8 O    2.389 --    18 C    1.153    14 C    1.069
    21   7 N    3.508 --     7 C    1.164    23 C    1.130    22 C    0.927
                            24 O    0.135
    22   6 C    3.919 --    45 H    0.979    43 H    0.974    44 H    0.974
                            21 N    0.927
    23   6 C    3.914 --    24 O    1.561    21 N    1.130    25 C    1.073
    24   8 O    1.904 --    23 C    1.561    21 N    0.135
    25   6 C    3.922 --     5 C    1.494    26 O    1.112    23 C    1.073
    26   8 O    2.089 --    25 C    1.112    46 H    0.803
    27   1 H    1.007 --     1 C    0.980
    28   1 H    1.010 --     1 C    0.986
    29   1 H    1.007 --     1 C    0.979
    30   1 H    1.000 --     9 C    0.981
    31   1 H    1.008 --     9 C    0.977
    32   1 H    1.000 --     9 C    0.983
    33   1 H    1.003 --    10 C    0.983
    34   1 H    1.009 --    10 C    0.982
    35   1 H    1.007 --    10 C    0.984
    36   1 H    0.938 --    11 N    0.893
    37   1 H    0.989 --    17 C    0.971
    38   1 H    0.989 --    17 C    0.967
    39   1 H    0.992 --    17 C    0.978
    40   1 H    0.984 --    19 C    0.934
    41   1 H    0.988 --    19 C    0.975
    42   1 H    0.985 --    19 C    0.951
    43   1 H    1.000 --    22 C    0.974
    44   1 H    1.004 --    22 C    0.974
    45   1 H    1.007 --    22 C    0.979
    46   1 H    0.845 --    26 O    0.803
 ---------------------------------------------------------------------------

           -------------------------------------------------
          | TOTAL ENERGY              -86.361352863142 Eh   |
          | GRADIENT NORM               0.000343355924 Eh/α |
          | HOMO-LUMO GAP               2.013771543088 eV   |
           -------------------------------------------------

 * finished run on 2023/06/20 at 15:42:18.013
