   * xtb version 6.5.1 (579679a) compiled by 'ehlert@majestix' on 2022-07-11
          program call               : /lustre/hpc/kemi/ree/PhD/git/ReactivityQM/dep/xtb-6.5.1/bin/xtb --gfn 1 /lustre/hpc/kemi/ree/PhD/git/ReactivityQM/calculations/R02methylcation/reac01prodE07/conf01/R02methylcation_reac01prodE07_conf01_gfn1.xyz --opt --vfukui --chrg -2 --uhf 0 --alpb DMSO

   ID    Z sym.   atoms
    1    6 C      1, 3, 5, 7-10, 12, 14, 15, 18, 19, 22, 24
    2    8 O      2, 4, 13, 20, 23, 25
    3    7 N      6, 11, 16, 17, 21
    4    1 H      26-42

      * Solvation model:               ALPB
        Solvent                        DMSO
        Solvent mass                       7.8130E+01 g/mol
          :  Hamiltonian                  GFN1-xTB          :
 * total energy  :   -83.5834929 Eh     change       -0.1520561E-11 Eh
 * total energy  :   -83.5988257 Eh     change       -0.1533282E-01 Eh
 * total energy  :   -83.6058991 Eh     change       -0.7073393E-02 Eh
 * total energy  :   -83.6071369 Eh     change       -0.1237807E-02 Eh
 * total energy  :   -83.6078033 Eh     change       -0.6663889E-03 Eh
 * total energy  :   -83.6080476 Eh     change       -0.2443510E-03 Eh
 * total energy  :   -83.6082866 Eh     change       -0.2389879E-03 Eh
 * total energy  :   -83.6085113 Eh     change       -0.2247094E-03 Eh
 * total energy  :   -83.6087311 Eh     change       -0.2197392E-03 Eh
 * total energy  :   -83.6089241 Eh     change       -0.1930202E-03 Eh
 * total energy  :   -83.6169050 Eh     change       -0.1057760E-04 Eh
 * total energy  :   -83.6169170 Eh     change       -0.1195118E-04 Eh
 * total energy  :   -83.6169268 Eh     change       -0.9784491E-05 Eh
 * total energy  :   -83.6169367 Eh     change       -0.9939914E-05 Eh
 * total energy  :   -83.6169460 Eh     change       -0.9268922E-05 Eh
 * total energy  :   -83.6169526 Eh     change       -0.6589012E-05 Eh
 * total energy  :   -83.6169584 Eh     change       -0.5858835E-05 Eh
 * total energy  :   -83.6169640 Eh     change       -0.5525207E-05 Eh
 * total energy  :   -83.6169688 Eh     change       -0.4864749E-05 Eh
   *** GEOMETRY OPTIMIZATION CONVERGED AFTER 57 ITERATIONS ***

 final structure:
================
42
 xtb: 6.5.1 (579679a)
C            6.75362488285004       -0.08119983876714        1.94067621442862
O            5.75121404528664        0.63480439732374        1.23814535046498
C            4.57030860433669       -0.02180468549725        1.06549217491149
O            4.42606785691507       -1.15612271705890        1.51272266670518
C            3.55941546779218        0.72026068262175        0.33394854977173
N            2.38121986204321        0.00604266256037        0.17780144204041
C            1.38857255978223        0.51961368514563       -0.44972791386744
C            0.10285605653691       -0.24811629036515       -0.68170144522916
C           -0.08582085207457       -1.29925292247333        0.42304337486107
C            0.19883451084432       -0.92987639679622       -2.05489962437208
N           -0.99463374694629        0.74093186369731       -0.70398573146750
C           -2.32127972785703        0.17376649487549       -0.84083678007460
O           -2.87067741211429        0.30136414601488       -2.14844314429877
C           -3.51522231536420       -0.85873062379882       -2.63003662635575
C           -3.10172119255266        0.12542001214328        0.28552088577900
N           -2.63500278947434        0.20969860728947        1.55635765955043
N           -3.72294075945867       -0.02597471642319        2.37533637799157
C           -4.74434658349578       -0.24127945130456        1.62767450278906
C           -6.13533191650514       -0.54561961711122        2.05965699221704
O           -4.45670991802577       -0.16980778634408        0.28201720297331
N            1.45263316542443        1.78410366718714       -0.99682682622977
C            2.54328488322895        2.59996785816373       -0.91583597324340
O            2.51448842632867        3.72200724799454       -1.42681671501944
C            3.73545311333121        2.03121443880486       -0.17935105486244
O            4.76267134543950        2.73402304133045       -0.07679109137329
H            7.01231829180964       -1.00603990754158        1.41474265851030
H            7.62942574130044        0.56398978729534        1.99852952671635
H            6.41637050445870       -0.33579596003263        2.95093050730685
H           -0.28934433581773       -0.80909917599959        1.37641899824184
H            0.81667001232446       -1.90364969154435        0.51626002807459
H           -0.92611803865549       -1.94771807282272        0.17841276230383
H           -0.69655914888463       -1.52087763948872       -2.24225803544301
H            0.29336129948769       -0.17779203868824       -2.83794054094299
H            1.06592127893663       -1.58906688745310       -2.08816103612570
H           -0.97027611531898        1.22874175036510        0.19649117669185
H           -3.71352054965941       -0.71018712951515       -3.69488135256311
H           -4.46974593372885       -1.03315779521808       -2.11367748472324
H           -2.88897966091948       -1.75418270982420       -2.50609877551056
H           -6.18974935088929       -0.51038939247286        3.14600600441187
H           -6.43962328303870       -1.53779312306461        1.72184315216817
H           -6.83701818867364        0.17915019923457        1.64414394031661
H            0.62990791097048        2.13843102753518       -1.46813299749481

          :  Hamiltonian                  GFN1-xTB          :
         :: total energy             -83.616968832261 Eh    ::
         :: gradient norm              0.000556962409 Eh/a0 ::
         :: HOMO-LUMO gap              0.508026471380 eV    ::
         :: SCC energy               -84.348577101769 Eh    ::
         :: -> Gsolv                  -0.260346055727 Eh    ::
         :: repulsion energy           0.757551688079 Eh    ::

    * Orbital Energies and Occupations

         #    Occupation            Energy/Eh            Energy/eV
      -------------------------------------------------------------
         1        2.0000           -0.7914590             -21.5367
       ...           ...                  ...                  ...
        56        2.0000           -0.4430642             -12.0564
        57        2.0000           -0.4282256             -11.6526
        58        2.0000           -0.4251207             -11.5681
        59        2.0000           -0.4192763             -11.4091
        60        2.0000           -0.4150440             -11.2939
        61        2.0000           -0.4012886             -10.9196
        62        2.0000           -0.3922263             -10.6730
        63        2.0000           -0.3822404             -10.4013
        64        2.0000           -0.3721112             -10.1257
        65        2.0000           -0.3665648              -9.9747
        66        2.0000           -0.3644604              -9.9175
        67        2.0000           -0.3534552              -9.6180
        68        1.9999           -0.2789016              -7.5893 (HOMO)
        69        0.0001           -0.2602320              -7.0813 (LUMO)
        70                         -0.2216280              -6.0308
        71                         -0.1872223              -5.0946
        72                         -0.1810826              -4.9275
        73                         -0.1398109              -3.8044
        74                         -0.1189828              -3.2377
        75                         -0.1128672              -3.0713
        76                         -0.1056706              -2.8754
        77                         -0.0978562              -2.6628
        78                         -0.0939428              -2.5563
        79                         -0.0881802              -2.3995
       ...                                ...                  ...
       134                          0.7564725              20.5847
      -------------------------------------------------------------
                  HL-Gap            0.0186696 Eh            0.5080 eV

Wiberg/Mayer (AO) data.
largest (>0.10) Wiberg bond orders for each atom

     #   Z sym  total        # sym  WBO       # sym  WBO       # sym  WBO
 ---------------------------------------------------------------------------
     1   6 C    3.903 --    27 H    0.987    26 H    0.980    28 H    0.980
                             2 O    0.930
     2   8 O    2.153 --     3 C    1.036     1 C    0.930     4 O    0.107
     3   6 C    3.848 --     4 O    1.567     5 C    1.127     2 O    1.036
     4   8 O    1.844 --     3 C    1.567     2 O    0.107
     5   6 C    3.919 --    24 C    1.279     6 N    1.144     3 C    1.127
                            25 O    0.130
     6   7 N    3.022 --     7 C    1.633     5 C    1.144
     7   6 C    3.926 --     6 N    1.633    21 N    1.096     8 C    0.979
     8   6 C    3.971 --     9 C    0.988    10 C    0.982     7 C    0.979
                            11 N    0.960
     9   6 C    3.996 --     8 C    0.988    31 H    0.986    30 H    0.984
                            29 H    0.982
    10   6 C    3.994 --    34 H    0.988    33 H    0.986     8 C    0.982
                            32 H    0.978
    11   7 N    3.032 --    12 C    0.961     8 C    0.960    35 H    0.943
    12   6 C    3.678 --    15 C    1.472    11 N    0.961    13 O    0.905
                            16 N    0.149
    13   8 O    1.997 --    14 C    0.961    12 C    0.905
    14   6 C    3.934 --    36 H    0.985    37 H    0.980    38 H    0.976
                            13 O    0.961
    15   6 C    3.865 --    12 C    1.472    16 N    1.283    20 O    0.963
    16   7 N    2.835 --    15 C    1.283    17 N    1.147    12 C    0.149
                            18 C    0.116
    17   7 N    2.988 --    18 C    1.679    16 N    1.147
    18   6 C    3.884 --    17 N    1.679    19 C    1.018    20 O    0.992
                            16 N    0.116
    19   6 C    3.996 --    18 C    1.018    39 H    0.987    41 H    0.976
                            40 H    0.975
    20   8 O    2.184 --    18 C    0.992    15 C    0.963
    21   7 N    3.440 --    22 C    1.181     7 C    1.096    42 H    0.890
                            23 O    0.136
    22   6 C    3.884 --    23 O    1.556    21 N    1.181    24 C    0.973
    23   8 O    1.837 --    22 C    1.556    21 N    0.136
    24   6 C    3.944 --    25 O    1.503     5 C    1.279    22 C    0.973
    25   8 O    1.808 --    24 C    1.503     5 C    0.130
    26   1 H    1.015 --     1 C    0.980
    27   1 H    1.016 --     1 C    0.987
    28   1 H    1.015 --     1 C    0.980
    29   1 H    1.031 --     9 C    0.982
    30   1 H    1.019 --     9 C    0.984
    31   1 H    1.016 --     9 C    0.986
    32   1 H    1.014 --    10 C    0.978
    33   1 H    1.011 --    10 C    0.986
    34   1 H    1.008 --    10 C    0.988
    35   1 H    0.993 --    11 N    0.943
    36   1 H    1.023 --    14 C    0.985
    37   1 H    1.029 --    14 C    0.980
    38   1 H    1.030 --    14 C    0.976
    39   1 H    1.008 --    19 C    0.987
    40   1 H    1.007 --    19 C    0.975
    41   1 H    1.007 --    19 C    0.976
    42   1 H    0.969 --    21 N    0.890
 ---------------------------------------------------------------------------

           -------------------------------------------------
          | TOTAL ENERGY              -83.616968832261 Eh   |
          | GRADIENT NORM               0.000556962409 Eh/α |
          | HOMO-LUMO GAP               0.508026471380 eV   |
           -------------------------------------------------

 * finished run on 2023/06/21 at 17:16:18.718
