   * xtb version 6.5.1 (579679a) compiled by 'ehlert@majestix' on 2022-07-11
          program call               : /lustre/hpc/kemi/ree/PhD/git/ReactivityQM/dep/xtb-6.5.1/bin/xtb --gfn 1 /lustre/hpc/kemi/ree/PhD/git/ReactivityQM/calculations/R02deprot/reac01prodN14/conf07/R02deprot_reac01prodN14_conf07_gfn1.xyz --opt --vfukui --chrg 0 --uhf 0 --alpb DMSO

   ID    Z sym.   atoms
    1    6 C      1, 3, 5, 7-10, 12, 14, 17-19, 22, 24
    2    8 O      2, 4, 13, 20, 23, 25
    3    7 N      6, 11, 15, 16, 21
    4    1 H      26-42

      * Solvation model:               ALPB
        Solvent                        DMSO
        Solvent mass                       7.8130E+01 g/mol
          :  Hamiltonian                  GFN1-xTB          :
 * total energy  :   -82.9119629 Eh     change       -0.1848832E-09 Eh
 * total energy  :   -82.9229970 Eh     change       -0.1103407E-01 Eh
 * total energy  :   -82.9268374 Eh     change       -0.3840435E-02 Eh
 * total energy  :   -82.9274189 Eh     change       -0.5814754E-03 Eh
 * total energy  :   -82.9277556 Eh     change       -0.3367544E-03 Eh
 * total energy  :   -82.9279390 Eh     change       -0.1833947E-03 Eh
 * total energy  :   -82.9281523 Eh     change       -0.2132391E-03 Eh
 * total energy  :   -82.9283571 Eh     change       -0.2048359E-03 Eh
 * total energy  :   -82.9285235 Eh     change       -0.1664255E-03 Eh
 * total energy  :   -82.9286447 Eh     change       -0.1211570E-03 Eh
 * total energy  :   -82.9291190 Eh     change       -0.6901201E-04 Eh
 * total energy  :   -82.9291755 Eh     change       -0.5644021E-04 Eh
 * total energy  :   -82.9292094 Eh     change       -0.3390797E-04 Eh
 * total energy  :   -82.9292274 Eh     change       -0.1799404E-04 Eh
 * total energy  :   -82.9292423 Eh     change       -0.1489377E-04 Eh
 * total energy  :   -82.9292499 Eh     change       -0.7599070E-05 Eh
 * total energy  :   -82.9292556 Eh     change       -0.5758827E-05 Eh
 * total energy  :   -82.9292623 Eh     change       -0.6644882E-05 Eh
 * total energy  :   -82.9292669 Eh     change       -0.4596984E-05 Eh
   *** GEOMETRY OPTIMIZATION CONVERGED AFTER 24 ITERATIONS ***

 final structure:
================
42
 xtb: 6.5.1 (579679a)
C            2.86733242683017        3.10934351529886        1.04244011193581
O            2.60428229228435        1.76210928117705        0.64394831750607
C            3.58681171754590        0.88114174404077        0.85204453816683
O            4.64195495943947        1.17841127743839        1.36187537703459
C            3.22441064086494       -0.48506410373152        0.37197978376079
N            1.97444559397589       -0.66120394822794       -0.10358659545475
C            1.64018836940261       -1.85327508043794       -0.59594483100187
C            0.23556434796166       -1.99935860617795       -1.15143373751726
C            0.30388111306005       -1.91093737639425       -2.68380496303109
C           -0.37158108725157       -3.33411689538574       -0.70424322877599
N           -0.55567896529845       -0.88936507577465       -0.62310213397586
C           -1.85107253543835       -0.68565289152296       -0.89949636090657
O           -2.55821071065613       -1.36537459824740       -1.62111969457724
C           -2.36649862382456        0.51183477793996       -0.16718988187509
N           -1.62810216506583        1.26562053418211        0.67558441105514
N           -2.37785520540040        2.17735040199467        1.16621602917056
C           -3.70410722924688        2.04128597680217        0.62771747934841
C           -4.08443632406599        3.28943813859079       -0.17249604542790
C           -4.70664895316864        1.73278391063084        1.74314815038290
O           -3.60010281349701        0.91648539245145       -0.24655414840205
N            2.42904433869537       -2.89978459151860       -0.71911840476440
C            3.70306894262395       -2.83151590241839       -0.23723014100933
O            4.50449041592764       -3.76685520543869       -0.24573025618618
C            4.11889392187133       -1.53913344963424        0.34198443194299
O            5.35496296374010       -1.48784038638311        0.82360799718194
H            3.01601862848374        3.16043934798612        2.12382491621151
H            1.99753690147236        3.69494237261325        0.75349222191869
H            3.76053899025833        3.48442724534549        0.53648412980210
H           -0.68619698481589       -2.04590360777101       -3.11464638433165
H            0.69603642100764       -0.94003227371572       -2.98230225464657
H            0.96590125105915       -2.69275946844369       -3.05312272327722
H           -1.34261617206978       -3.48612961820209       -1.17097839052390
H            0.30022785018219       -4.13944586791800       -0.99804534919654
H           -0.48830589428321       -3.34599960517801        0.37827986115727
H           -0.05248162453165       -0.22597270513598       -0.04059576807017
H           -5.06424296060829        3.14269330955880       -0.62014213926681
H           -4.10881877938006        4.14548361994381        0.49684223887631
H           -3.34600573839898        3.45623086112674       -0.95362473051480
H           -4.39389016652098        0.83465974453719        2.27147642433494
H           -4.73936486751363        2.57142313435954        2.43369860221701
H           -5.68953195534930        1.57553576282491        1.30581674741062
H            5.79015966969861       -2.34591809119389        0.64220939332167

          :  Hamiltonian                  GFN1-xTB          :
         :: total energy             -82.929266879393 Eh    ::
         :: gradient norm              0.000803867842 Eh/a0 ::
         :: HOMO-LUMO gap              0.057031790747 eV    ::
         :: SCC energy               -83.689420493727 Eh    ::
         :: -> Gsolv                  -0.056444241288 Eh    ::
         :: repulsion energy           0.785673376279 Eh    ::

    * Orbital Energies and Occupations

         #    Occupation            Energy/Eh            Energy/eV
      -------------------------------------------------------------
         1        2.0000           -0.8893304             -24.1999
       ...           ...                  ...                  ...
        55        2.0000           -0.5142984             -13.9948
        56        2.0000           -0.5049142             -13.7394
        57        2.0000           -0.5024902             -13.6735
        58        2.0000           -0.4972327             -13.5304
        59        2.0000           -0.4861475             -13.2287
        60        2.0000           -0.4808159             -13.0837
        61        2.0000           -0.4771610             -12.9842
        62        2.0000           -0.4706037             -12.8058
        63        2.0000           -0.4682654             -12.7422
        64        2.0000           -0.4578667             -12.4592
        65        2.0000           -0.4494234             -12.2294
        66        1.9944           -0.4165034             -11.3336
        67        1.5044           -0.4119708             -11.2103 (HOMO)
        68        0.5011           -0.4098749             -11.1533 (LUMO)
        69                         -0.3264734              -8.8838
        70                         -0.3101835              -8.4405
        71                         -0.2732481              -7.4355
        72                         -0.2261414              -6.1536
        73                         -0.2240569              -6.0969
        74                         -0.1487262              -4.0470
        75                         -0.1471288              -4.0036
        76                         -0.1416678              -3.8550
        77                         -0.1397228              -3.8021
        78                         -0.1232064              -3.3526
       ...                                ...                  ...
       134                          0.7355817              20.0162
      -------------------------------------------------------------
                  HL-Gap            0.0020959 Eh            0.0570 eV

Wiberg/Mayer (AO) data.
largest (>0.10) Wiberg bond orders for each atom

     #   Z sym  total        # sym  WBO       # sym  WBO       # sym  WBO
 ---------------------------------------------------------------------------
     1   6 C    3.873 --    27 H    0.986    26 H    0.979    28 H    0.979
                             2 O    0.899
     2   8 O    2.195 --     3 C    1.107     1 C    0.899     4 O    0.133
     3   6 C    3.842 --     4 O    1.662     2 O    1.107     5 C    0.994
     4   8 O    1.919 --     3 C    1.662     2 O    0.133
     5   6 C    3.916 --    24 C    1.389     6 N    1.292     3 C    0.994
     6   7 N    2.895 --     7 C    1.348     5 C    1.292
     7   6 C    3.915 --    21 N    1.442     6 N    1.348     8 C    0.980
     8   6 C    3.920 --    10 C    0.980     7 C    0.980     9 C    0.970
                            11 N    0.921
     9   6 C    3.983 --    30 H    0.986    31 H    0.984    29 H    0.981
                             8 C    0.970
    10   6 C    3.982 --    34 H    0.986    32 H    0.982    33 H    0.981
                             8 C    0.980
    11   7 N    3.366 --    12 C    1.281     8 C    0.921    35 H    0.872
                            13 O    0.201
    12   6 C    3.921 --    13 O    1.583    11 N    1.281    14 C    0.974
    13   8 O    1.903 --    12 C    1.583    11 N    0.201
    14   6 C    3.647 --    15 N    1.284    20 O    1.223    12 C    0.974
    15   7 N    3.006 --    16 N    1.563    14 C    1.284
    16   7 N    2.723 --    15 N    1.563    17 C    1.026
    17   6 C    3.834 --    16 N    1.026    18 C    0.934    19 C    0.933
                            20 O    0.875
    18   6 C    3.938 --    38 H    0.982    37 H    0.981    36 H    0.980
                            17 C    0.934
    19   6 C    3.937 --    39 H    0.982    40 H    0.981    41 H    0.980
                            17 C    0.933
    20   8 O    2.244 --    14 C    1.223    17 C    0.875
    21   7 N    2.929 --     7 C    1.442    22 C    1.188
    22   6 C    3.876 --    23 O    1.549    21 N    1.188    24 C    1.028
    23   8 O    1.787 --    22 C    1.549
    24   6 C    3.748 --     5 C    1.389    25 O    1.144    22 C    1.028
    25   8 O    2.063 --    24 C    1.144    42 H    0.798
    26   1 H    1.007 --     1 C    0.979
    27   1 H    1.012 --     1 C    0.986
    28   1 H    1.007 --     1 C    0.979
    29   1 H    1.007 --     9 C    0.981
    30   1 H    1.002 --     9 C    0.986
    31   1 H    1.004 --     9 C    0.984
    32   1 H    1.008 --    10 C    0.982
    33   1 H    1.012 --    10 C    0.981
    34   1 H    1.002 --    10 C    0.986
    35   1 H    0.968 --    11 N    0.872
    36   1 H    0.995 --    18 C    0.980
    37   1 H    0.996 --    18 C    0.981
    38   1 H    0.995 --    18 C    0.982
    39   1 H    0.995 --    19 C    0.982
    40   1 H    0.996 --    19 C    0.981
    41   1 H    0.995 --    19 C    0.980
    42   1 H    0.847 --    25 O    0.798
 ---------------------------------------------------------------------------

           -------------------------------------------------
          | TOTAL ENERGY              -82.929266879393 Eh   |
          | GRADIENT NORM               0.000803867842 Eh/α |
          | HOMO-LUMO GAP               0.057031790747 eV   |
           -------------------------------------------------

 * finished run on 2023/06/20 at 18:23:47.838
