   * xtb version 6.5.1 (579679a) compiled by 'ehlert@majestix' on 2022-07-11
          program call               : /lustre/hpc/kemi/ree/PhD/git/ReactivityQM/dep/xtb-6.5.1/bin/xtb --gfn 1 /lustre/hpc/kemi/ree/PhD/git/ReactivityQM/calculations/R02deprot/reac01prodN04/conf08/R02deprot_reac01prodN04_conf08_gfn1.xyz --opt --vfukui --chrg 0 --uhf 0 --alpb DMSO

   ID    Z sym.   atoms
    1    6 C      1, 3, 5, 6, 8-11, 13, 15, 18, 19, 22, 24
    2    8 O      2, 4, 14, 20, 23, 25
    3    7 N      7, 12, 16, 17, 21
    4    1 H      26-42

      * Solvation model:               ALPB
        Solvent                        DMSO
        Solvent mass                       7.8130E+01 g/mol
          :  Hamiltonian                  GFN1-xTB          :
 * total energy  :   -82.9331921 Eh     change       -0.5726974E-10 Eh
 * total energy  :   -82.9541417 Eh     change       -0.2094964E-01 Eh
 * total energy  :   -82.9622162 Eh     change       -0.8074410E-02 Eh
 * total energy  :   -82.9643494 Eh     change       -0.2133259E-02 Eh
 * total energy  :   -82.9653548 Eh     change       -0.1005399E-02 Eh
 * total energy  :   -82.9656443 Eh     change       -0.2894687E-03 Eh
 * total energy  :   -82.9658150 Eh     change       -0.1707548E-03 Eh
 * total energy  :   -82.9659423 Eh     change       -0.1272154E-03 Eh
 * total energy  :   -82.9660627 Eh     change       -0.1204946E-03 Eh
 * total energy  :   -82.9661915 Eh     change       -0.1287645E-03 Eh
 * total energy  :   -82.9674105 Eh     change       -0.5545665E-04 Eh
 * total energy  :   -82.9674323 Eh     change       -0.2171576E-04 Eh
 * total energy  :   -82.9674632 Eh     change       -0.3097455E-04 Eh
 * total energy  :   -82.9674773 Eh     change       -0.1410338E-04 Eh
 * total energy  :   -82.9674944 Eh     change       -0.1707226E-04 Eh
 * total energy  :   -82.9675114 Eh     change       -0.1703100E-04 Eh
 * total energy  :   -82.9675222 Eh     change       -0.1076455E-04 Eh
 * total energy  :   -82.9675297 Eh     change       -0.7488973E-05 Eh
 * total energy  :   -82.9675342 Eh     change       -0.4500587E-05 Eh
   *** GEOMETRY OPTIMIZATION CONVERGED AFTER 34 ITERATIONS ***

 final structure:
================
42
 xtb: 6.5.1 (579679a)
C           -1.06280514693903        1.64378358757573       -1.11195809718692
O           -2.22687947560055        1.94435871619439       -0.33005337639351
C           -2.83091948343381        1.14947057624457        0.49927403094540
O           -3.93412356437840        1.62910887749707        1.00822447427569
C           -4.38481007850758        2.93765298003267        0.61247719680987
C           -2.42236945935517       -0.16344745747097        0.88508380108232
N           -1.18866083547951       -0.57157305646285        0.44088695252695
C           -0.79680202368633       -1.78980412319449        0.75919914774488
C            0.56630898898921       -2.22010691902921        0.23526784781433
C            0.36018055504238       -2.90075559600018       -1.12690826110707
C            1.26419547178586       -3.15860632557270        1.22389229866142
N            1.35196282939707       -0.99817334545909        0.06213695389068
C            2.58479414452901       -0.93160923205031       -0.46132857757969
O            3.28668897865509       -1.87779118000907       -0.77812216689692
C            3.00668124470779        0.49202710208914       -0.60429365102382
N            2.26533056206202        1.53411242624741       -0.36621213596399
N            3.03042856024720        2.63130512318921       -0.63011000694474
C            4.18948361872415        2.18850363688520       -1.01379589808133
C            5.36912812376297        2.98416236700649       -1.41939956250957
O            4.23495785101447        0.84760424623061       -1.01897512045002
N           -1.47362161820995       -2.69428711427367        1.44814498866663
C           -2.69966202154559       -2.39700804750287        1.94892054973117
O           -3.37005366976015       -3.19005362719674        2.60981015286705
C           -3.20151253432551       -1.02627882288179        1.65466886718852
O           -4.40430362307650       -0.75246736670965        2.14935820714986
H           -0.98631195095837        2.45201747312113       -1.83894886734528
H           -0.17478783392129        1.62268527863310       -0.47705771901171
H           -1.17885664131454        0.68316501527093       -1.61333383874284
H           -5.31758478324454        3.10630595334009        1.14420616128876
H           -3.63838564564453        3.68153763414691        0.89295486859558
H           -4.54334956366231        2.95866307213016       -0.46609439597204
H           -0.28132475905093       -3.77199726014833       -1.00092959608362
H           -0.11698561653374       -2.20462138016541       -1.81516600943814
H            1.31578969982003       -3.21632747086299       -1.54301899331797
H            2.21182027445497       -3.50288249886815        0.81289095893054
H            1.44961121694383       -2.63827888390861        2.16300646148152
H            0.62215261960666       -4.01746439490465        1.41692352361711
H            0.85647530972136       -0.13453464848013        0.23747839363880
H            6.22021811993896        2.74333051161899       -0.78272647999691
H            5.13924298513908        4.04342005258198       -1.33654226562516
H            5.63995275463913        2.74928510011019       -2.44882320599273
H           -4.73129258054069        0.13557102102792        1.94560238874946

          :  Hamiltonian                  GFN1-xTB          :
         :: total energy             -82.967534192953 Eh    ::
         :: gradient norm              0.000493196569 Eh/a0 ::
         :: HOMO-LUMO gap              1.484876087343 eV    ::
         :: SCC energy               -83.735532459313 Eh    ::
         :: -> Gsolv                  -0.068870317937 Eh    ::
         :: repulsion energy           0.794701233533 Eh    ::

    * Orbital Energies and Occupations

         #    Occupation            Energy/Eh            Energy/eV
      -------------------------------------------------------------
         1        2.0000           -0.8888975             -24.1881
       ...           ...                  ...                  ...
        55        2.0000           -0.5039742             -13.7138
        56        2.0000           -0.4919641             -13.3870
        57        2.0000           -0.4890606             -13.3080
        58        2.0000           -0.4812574             -13.0957
        59        2.0000           -0.4649661             -12.6524
        60        2.0000           -0.4604593             -12.5297
        61        2.0000           -0.4597193             -12.5096
        62        2.0000           -0.4557521             -12.4016
        63        2.0000           -0.4494085             -12.2290
        64        2.0000           -0.4392139             -11.9516
        65        2.0000           -0.4314929             -11.7415
        66        2.0000           -0.4035441             -10.9810
        67        2.0000           -0.4024711             -10.9518 (HOMO)
        68                         -0.3479029              -9.4669 (LUMO)
        69                         -0.3061675              -8.3312
        70                         -0.2594521              -7.0601
        71                         -0.2563495              -6.9756
        72                         -0.2382003              -6.4818
        73                         -0.1948571              -5.3023
        74                         -0.1556644              -4.2358
        75                         -0.1449942              -3.9455
        76                         -0.1444160              -3.9298
        77                         -0.1417266              -3.8566
        78                         -0.1176562              -3.2016
       ...                                ...                  ...
       134                          0.7318563              19.9148
      -------------------------------------------------------------
                  HL-Gap            0.0545682 Eh            1.4849 eV

Wiberg/Mayer (AO) data.
largest (>0.10) Wiberg bond orders for each atom

     #   Z sym  total        # sym  WBO       # sym  WBO       # sym  WBO
 ---------------------------------------------------------------------------
     1   6 C    3.827 --    26 H    0.980    28 H    0.974    27 H    0.964
                             2 O    0.859
     2   8 O    2.287 --     3 C    1.218     1 C    0.859
     3   6 C    3.806 --     2 O    1.218     4 O    1.190     6 C    1.186
     4   8 O    2.272 --     3 C    1.190     5 C    0.859
     5   6 C    3.833 --    29 H    0.983    30 H    0.976    31 H    0.976
                             4 O    0.859
     6   6 C    3.953 --    24 C    1.360     3 C    1.186     7 N    1.167
     7   7 N    3.017 --     8 C    1.440     6 C    1.167
     8   6 C    3.951 --     7 N    1.440    21 N    1.382     9 C    0.974
     9   6 C    3.931 --    11 C    0.991    10 C    0.976     8 C    0.974
                            12 N    0.920
    10   6 C    3.991 --    33 H    0.986    32 H    0.985    34 H    0.981
                             9 C    0.976
    11   6 C    3.992 --     9 C    0.991    36 H    0.986    35 H    0.983
                            37 H    0.983
    12   7 N    3.366 --    13 C    1.280     9 C    0.920    38 H    0.882
                            14 O    0.185
    13   6 C    3.922 --    14 O    1.581    12 N    1.280    15 C    0.980
    14   8 O    1.899 --    13 C    1.581    12 N    0.185
    15   6 C    3.871 --    16 N    1.608    20 O    1.068    13 C    0.980
    16   7 N    3.036 --    15 C    1.608    17 N    1.195
    17   7 N    2.980 --    18 C    1.609    16 N    1.195
    18   6 C    3.871 --    17 N    1.609    20 O    1.081    19 C    1.031
    19   6 C    3.986 --    18 C    1.031    40 H    0.983    39 H    0.964
                            41 H    0.963
    20   8 O    2.331 --    18 C    1.081    15 C    1.068
    21   7 N    2.996 --     8 C    1.382    22 C    1.231    23 O    0.131
    22   6 C    3.929 --    23 O    1.545    21 N    1.231    24 C    1.025
    23   8 O    1.840 --    22 C    1.545    21 N    0.131
    24   6 C    3.885 --     6 C    1.360    25 O    1.140    22 C    1.025
    25   8 O    2.130 --    24 C    1.140    42 H    0.806
    26   1 H    1.006 --     1 C    0.980
    27   1 H    1.039 --     1 C    0.964
    28   1 H    1.019 --     1 C    0.974
    29   1 H    1.004 --     5 C    0.983
    30   1 H    1.001 --     5 C    0.976
    31   1 H    1.001 --     5 C    0.976
    32   1 H    1.004 --    10 C    0.985
    33   1 H    1.005 --    10 C    0.986
    34   1 H    1.008 --    10 C    0.981
    35   1 H    1.010 --    11 C    0.983
    36   1 H    1.005 --    11 C    0.986
    37   1 H    1.017 --    11 C    0.983
    38   1 H    0.972 --    12 N    0.882
    39   1 H    0.997 --    19 C    0.964
    40   1 H    0.999 --    19 C    0.983
    41   1 H    0.997 --    19 C    0.963
    42   1 H    0.851 --    25 O    0.806
 ---------------------------------------------------------------------------

           -------------------------------------------------
          | TOTAL ENERGY              -82.967534192953 Eh   |
          | GRADIENT NORM               0.000493196569 Eh/α |
          | HOMO-LUMO GAP               1.484876087343 eV   |
           -------------------------------------------------

 * finished run on 2023/06/20 at 18:09:54.292
