   * xtb version 6.5.1 (579679a) compiled by 'ehlert@majestix' on 2022-07-11
          program call               : /lustre/hpc/kemi/ree/PhD/git/ReactivityQM/dep/xtb-6.5.1/bin/xtb --gfn 1 /lustre/hpc/kemi/ree/PhD/git/ReactivityQM/calculations/R02deprot/reac01prodN14/conf14/R02deprot_reac01prodN14_conf14_gfn1.xyz --opt --vfukui --chrg 0 --uhf 0 --alpb DMSO

   ID    Z sym.   atoms
    1    6 C      1, 3, 5, 7-10, 12, 14, 17-19, 22, 24
    2    8 O      2, 4, 13, 20, 23, 25
    3    7 N      6, 11, 15, 16, 21
    4    1 H      26-42

      * Solvation model:               ALPB
        Solvent                        DMSO
        Solvent mass                       7.8130E+01 g/mol
          :  Hamiltonian                  GFN1-xTB          :
 * total energy  :   -82.9104733 Eh     change       -0.1366658E-09 Eh
 * total energy  :   -82.9219472 Eh     change       -0.1147394E-01 Eh
 * total energy  :   -82.9259541 Eh     change       -0.4006855E-02 Eh
 * total energy  :   -82.9264769 Eh     change       -0.5227898E-03 Eh
 * total energy  :   -82.9268496 Eh     change       -0.3727606E-03 Eh
 * total energy  :   -82.9270488 Eh     change       -0.1991958E-03 Eh
 * total energy  :   -82.9272543 Eh     change       -0.2054906E-03 Eh
 * total energy  :   -82.9274542 Eh     change       -0.1998977E-03 Eh
 * total energy  :   -82.9276200 Eh     change       -0.1657715E-03 Eh
 * total energy  :   -82.9277526 Eh     change       -0.1326218E-03 Eh
 * total energy  :   -82.9298627 Eh     change       -0.7690405E-06 Eh
 * total energy  :   -82.9298708 Eh     change       -0.8107889E-05 Eh
 * total energy  :   -82.9298804 Eh     change       -0.9603652E-05 Eh
 * total energy  :   -82.9298876 Eh     change       -0.7111694E-05 Eh
 * total energy  :   -82.9298975 Eh     change       -0.9951090E-05 Eh
 * total energy  :   -82.9299038 Eh     change       -0.6300036E-05 Eh
 * total energy  :   -82.9299096 Eh     change       -0.5796774E-05 Eh
 * total energy  :   -82.9299150 Eh     change       -0.5378820E-05 Eh
 * total energy  :   -82.9299199 Eh     change       -0.4876487E-05 Eh
   *** GEOMETRY OPTIMIZATION CONVERGED AFTER 64 ITERATIONS ***

 final structure:
================
42
 xtb: 6.5.1 (579679a)
C           -6.99656786085909       -0.67581695773684        0.61438969069760
O           -5.61458460578634       -0.57163853534882        0.98878922739778
C           -4.76405720653203       -0.25641348634622        0.00113789348974
O           -5.12374424737717       -0.07312426410829       -1.13656253422943
C           -3.34485587789021       -0.16001135156228        0.45260207252906
N           -2.48080263899627        0.13235834315198       -0.53552162514056
C           -1.18198321773097        0.21583834892171       -0.23787681134985
C           -0.27205922874460        0.53536935857432       -1.40872865939158
C           -0.52175693291176       -0.46917601108255       -2.54141844556869
C           -0.54719345572400        1.97246406608616       -1.87703244091065
N            1.10196573303946        0.42340029663011       -0.92894943596058
C            2.18398405471405        0.60330486979513       -1.69500192801188
O            2.19711208718293        0.89193348486936       -2.88145407370896
C            3.45425202722213        0.40040110732670       -0.93867476039027
N            4.68891462314485        0.47850745623932       -1.47401710524628
N            5.54532973343457        0.23382057407763       -0.55599478547111
C            4.85891409859442       -0.02624367136739        0.68054869425023
C            5.13283831325716       -1.45579801254512        1.15390002736924
C            5.23455244853435        1.02129193054032        1.73074145990769
O            3.47770639228954        0.10842237523983        0.33459535870935
N           -0.63864925026017        0.05515077332306        0.94471538843516
C           -1.43305036732869       -0.22607975525651        2.03165653179127
O           -0.97193829429328       -0.36637550194831        3.15880289633693
C           -2.88551328247031       -0.34966978445100        1.75133113134573
O           -3.64261073669973       -0.63307389075144        2.80433007976706
H           -7.54086396330013       -0.97190425316013        1.50724008643410
H           -7.11283363029569       -1.42683905361392       -0.16999710315985
H           -7.35443450436697        0.28990787680369        0.25126024241715
H           -0.24720495252790       -1.47117739543813       -2.21507740364022
H            0.06225664384090       -0.20527643952736       -3.42098662679865
H           -1.58069382776733       -0.45538854569612       -2.79552008235641
H           -0.32314573405799        2.67367811681226       -1.07472760508004
H            0.06737307196415        2.21074978625689       -2.74327427404492
H           -1.59862467423026        2.06177141795639       -2.14583581840174
H            1.20184517356282        0.20215183250064        0.05807131012013
H            4.56662516697216       -1.64710284023214        2.06209167422915
H            4.82894518087898       -2.15706959403114        0.37974335780844
H            6.19568835768265       -1.56679272665116        1.35201732240161
H            6.29593032870111        0.93922369048093        1.95007653520091
H            5.01573330438845        2.01453274236043        1.34454234014101
H            4.65695246381498        0.84531293764071        2.63486759162783
H           -4.58975071309275       -0.70305931472113        2.58919760647303

          :  Hamiltonian                  GFN1-xTB          :
         :: total energy             -82.929919864174 Eh    ::
         :: gradient norm              0.000416555715 Eh/a0 ::
         :: HOMO-LUMO gap              0.057791856962 eV    ::
         :: SCC energy               -83.688584057062 Eh    ::
         :: -> Gsolv                  -0.057957334744 Eh    ::
         :: repulsion energy           0.784038090404 Eh    ::

    * Orbital Energies and Occupations

         #    Occupation            Energy/Eh            Energy/eV
      -------------------------------------------------------------
         1        2.0000           -0.8865955             -24.1255
       ...           ...                  ...                  ...
        55        2.0000           -0.5103568             -13.8875
        56        2.0000           -0.5017757             -13.6540
        57        2.0000           -0.5003103             -13.6141
        58        2.0000           -0.4978807             -13.5480
        59        2.0000           -0.4844958             -13.1838
        60        2.0000           -0.4790566             -13.0358
        61        2.0000           -0.4759064             -12.9501
        62        2.0000           -0.4669180             -12.7055
        63        2.0000           -0.4662926             -12.6885
        64        2.0000           -0.4562458             -12.4151
        65        2.0000           -0.4450172             -12.1095
        66        1.9994           -0.4159629             -11.3189
        67        1.5074           -0.4093472             -11.1389 (HOMO)
        68        0.4932           -0.4072234             -11.0811 (LUMO)
        69                         -0.3217335              -8.7548
        70                         -0.3106956              -8.4545
        71                         -0.2704053              -7.3581
        72                         -0.2259805              -6.1492
        73                         -0.2203651              -5.9964
        74                         -0.1490338              -4.0554
        75                         -0.1457517              -3.9661
        76                         -0.1403237              -3.8184
        77                         -0.1355426              -3.6883
        78                         -0.1212654              -3.2998
       ...                                ...                  ...
       134                          0.7311356              19.8952
      -------------------------------------------------------------
                  HL-Gap            0.0021238 Eh            0.0578 eV

Wiberg/Mayer (AO) data.
largest (>0.10) Wiberg bond orders for each atom

     #   Z sym  total        # sym  WBO       # sym  WBO       # sym  WBO
 ---------------------------------------------------------------------------
     1   6 C    3.861 --    26 H    0.986    28 H    0.980    27 H    0.980
                             2 O    0.884
     2   8 O    2.202 --     3 C    1.088     1 C    0.884     4 O    0.130
     3   6 C    3.841 --     4 O    1.675     2 O    1.088     5 C    0.997
     4   8 O    1.932 --     3 C    1.675     2 O    0.130
     5   6 C    3.919 --    24 C    1.370     6 N    1.315     3 C    0.997
     6   7 N    2.843 --     7 C    1.324     5 C    1.315
     7   6 C    3.915 --    21 N    1.471     6 N    1.324     8 C    0.981
     8   6 C    3.923 --     7 C    0.981     9 C    0.977    10 C    0.970
                            11 N    0.925
     9   6 C    3.983 --    29 H    0.986    31 H    0.982    30 H    0.982
                             8 C    0.977
    10   6 C    3.982 --    32 H    0.986    34 H    0.984    33 H    0.981
                             8 C    0.970
    11   7 N    3.380 --    12 C    1.292     8 C    0.925    35 H    0.867
                            13 O    0.201
    12   6 C    3.921 --    13 O    1.565    11 N    1.292    14 C    0.981
    13   8 O    1.883 --    12 C    1.565    11 N    0.201
    14   6 C    3.634 --    15 N    1.295    20 O    1.199    12 C    0.981
    15   7 N    2.992 --    16 N    1.561    14 C    1.295
    16   7 N    2.712 --    15 N    1.561    17 C    1.025
    17   6 C    3.834 --    16 N    1.025    19 C    0.937    18 C    0.936
                            20 O    0.870
    18   6 C    3.940 --    37 H    0.982    38 H    0.981    36 H    0.980
                            17 C    0.936
    19   6 C    3.940 --    40 H    0.982    39 H    0.981    41 H    0.980
                            17 C    0.937
    20   8 O    2.226 --    14 C    1.199    17 C    0.870
    21   7 N    2.956 --     7 C    1.471    22 C    1.156
    22   6 C    3.874 --    23 O    1.588    21 N    1.156    24 C    1.025
    23   8 O    1.772 --    22 C    1.588
    24   6 C    3.725 --     5 C    1.370    25 O    1.147    22 C    1.025
    25   8 O    2.062 --    24 C    1.147    42 H    0.795
    26   1 H    1.009 --     1 C    0.986
    27   1 H    1.006 --     1 C    0.980
    28   1 H    1.006 --     1 C    0.980
    29   1 H    1.001 --     9 C    0.986
    30   1 H    1.008 --     9 C    0.982
    31   1 H    1.011 --     9 C    0.982
    32   1 H    1.002 --    10 C    0.986
    33   1 H    1.007 --    10 C    0.981
    34   1 H    1.005 --    10 C    0.984
    35   1 H    0.956 --    11 N    0.867
    36   1 H    0.995 --    18 C    0.980
    37   1 H    0.996 --    18 C    0.982
    38   1 H    0.997 --    18 C    0.981
    39   1 H    0.997 --    19 C    0.981
    40   1 H    0.996 --    19 C    0.982
    41   1 H    0.995 --    19 C    0.980
    42   1 H    0.850 --    25 O    0.795
 ---------------------------------------------------------------------------

           -------------------------------------------------
          | TOTAL ENERGY              -82.929919864174 Eh   |
          | GRADIENT NORM               0.000416555715 Eh/α |
          | HOMO-LUMO GAP               0.057791856962 eV   |
           -------------------------------------------------

 * finished run on 2023/06/20 at 18:23:53.112
