   * xtb version 6.5.1 (579679a) compiled by 'ehlert@majestix' on 2022-07-11
          program call               : /lustre/hpc/kemi/ree/PhD/git/ReactivityQM/dep/xtb-6.5.1/bin/xtb --gfn 1 /lustre/hpc/kemi/ree/PhD/git/ReactivityQM/calculations/R02oxygendeprot/reac01prodN09/conf18/R02oxygendeprot_reac01prodN09_conf18_gfn1.xyz --opt --vfukui --chrg 0 --uhf 0 --alpb DMSO

   ID    Z sym.   atoms
    1    6 C      1, 3, 4, 6, 8-11, 13, 15, 18, 19, 22, 24
    2    8 O      2, 5, 14, 20, 23, 25
    3    7 N      7, 12, 16, 17, 21
    4    1 H      26-42

      * Solvation model:               ALPB
        Solvent                        DMSO
        Solvent mass                       7.8130E+01 g/mol
          :  Hamiltonian                  GFN1-xTB          :
 * total energy  :   -82.8644053 Eh     change       -0.1232806E-08 Eh
 * total energy  :   -82.8804866 Eh     change       -0.1608127E-01 Eh
 * total energy  :   -82.8990935 Eh     change       -0.1860690E-01 Eh
 * total energy  :   -82.9154440 Eh     change       -0.1635057E-01 Eh
 * total energy  :   -82.9393669 Eh     change       -0.2392283E-01 Eh
 * total energy  :   -82.8178947 Eh     change        0.1214722E+00 Eh
 * total energy  :   -82.9575205 Eh     change       -0.1396258E+00 Eh
 * total energy  :   -82.9595093 Eh     change       -0.1988813E-02 Eh
 * total energy  :   -82.9636235 Eh     change       -0.4114132E-02 Eh
 * total energy  :   -82.9642432 Eh     change       -0.6197239E-03 Eh
 * total energy  :   -82.9732265 Eh     change       -0.1821374E-04 Eh
 * total energy  :   -82.9732390 Eh     change       -0.1248900E-04 Eh
 * total energy  :   -82.9732492 Eh     change       -0.1023327E-04 Eh
 * total energy  :   -82.9732613 Eh     change       -0.1211464E-04 Eh
 * total energy  :   -82.9732710 Eh     change       -0.9673640E-05 Eh
 * total energy  :   -82.9732767 Eh     change       -0.5766324E-05 Eh
 * total energy  :   -82.9732831 Eh     change       -0.6380293E-05 Eh
 * total energy  :   -82.9732888 Eh     change       -0.5681108E-05 Eh
 * total energy  :   -82.9732928 Eh     change       -0.3968611E-05 Eh
   *** GEOMETRY OPTIMIZATION CONVERGED AFTER 55 ITERATIONS ***

 final structure:
================
42
 xtb: 6.5.1 (579679a)
C           -3.55840884626366       -1.33926381367034        1.91849780207219
O           -3.32243921901453       -1.94813682102480        0.64819756706188
C           -3.60932601170702       -1.24911544009747       -0.48198806980085
C           -4.08471067317358       -2.16484035708961       -1.58364604631996
O           -4.15659743975586        0.00530649377752       -0.36280213097247
C           -2.80503785338674        0.03541229622049       -0.79964536544830
N           -1.87512957864221        0.42602181989153        0.18536330650367
C           -0.71577790034961        0.82697896460526       -0.15259631829493
C            0.27699267449998        1.28430661893167        0.89588873751310
C            0.23904586480530        2.82093648829148        0.91544551569940
C           -0.07000295389375        0.70328639189014        2.26827161445625
N            1.60307768304019        0.81409570357295        0.48048956560938
C            2.73584171491780        1.13540698871966        1.14956052592252
O            2.81260632887276        1.92025165793777        2.07778535334551
C            3.92853026731671        0.43837961153389        0.60893639340470
N            5.15783324661642        0.55001563261767        1.00579011107500
N            5.90258196447325       -0.27377568360031        0.21703537785651
C            5.08239571120148       -0.83864047630517       -0.61343436202144
C            5.39758567460882       -1.81976699795570       -1.67398036156753
O            3.81677560098781       -0.43162095207855       -0.41880264825693
N           -0.31534695400111        0.96885563064915       -1.46976160817205
C           -1.13257887422175        0.80319059904335       -2.55386383922294
O           -0.74451292020235        0.98664551469380       -3.68576356554426
C           -2.56890370288154        0.40956576348402       -2.21144157676031
O           -3.41930189551494        0.36916516900293       -3.07374492434752
H           -2.83446484984215       -0.54349157446381        2.10635085118519
H           -4.57068771723872       -0.92896715310003        1.96451911590968
H           -3.43972722077283       -2.12967105860623        2.65809242749123
H           -3.31398363043933       -2.90044719745254       -1.80247998727097
H           -4.97238206144835       -2.68477932285045       -1.22638907349802
H           -4.33605567909742       -1.60568386452217       -2.47998719198408
H           -0.78139950325598        3.15086365543727        1.10554619914642
H            0.56791041340315        3.21341573637793       -0.04512545475247
H            0.88771074426463        3.20535835837757        1.69980366571081
H            0.63985343041455        1.06171031476544        3.01156918784106
H           -1.07280311548344        1.01661941353342        2.55322931362265
H           -0.03244610380523       -0.38396333352332        2.23124851708354
H            1.64468165292792        0.03464289759306       -0.15473020871610
H            4.87501717516042       -2.75639975477529       -1.47950486337398
H            5.06269276789941       -1.44291795827598       -2.64000377811246
H            6.46999110877553       -1.99851072204071       -1.70163128191713
H            0.63090068020556        1.25955876047618       -1.66543149215266

          :  Hamiltonian                  GFN1-xTB          :
         :: total energy             -82.973292770032 Eh    ::
         :: gradient norm              0.000679426983 Eh/a0 ::
         :: HOMO-LUMO gap              2.362081434703 eV    ::
         :: SCC energy               -83.738830774167 Eh    ::
         :: -> Gsolv                  -0.057177359424 Eh    ::
         :: repulsion energy           0.791683267769 Eh    ::

    * Orbital Energies and Occupations

         #    Occupation            Energy/Eh            Energy/eV
      -------------------------------------------------------------
         1        2.0000           -0.8662804             -23.5727
       ...           ...                  ...                  ...
        55        2.0000           -0.5076384             -13.8135
        56        2.0000           -0.5061648             -13.7734
        57        2.0000           -0.5053883             -13.7523
        58        2.0000           -0.5028770             -13.6840
        59        2.0000           -0.4822479             -13.1226
        60        2.0000           -0.4806197             -13.0783
        61        2.0000           -0.4713235             -12.8254
        62        2.0000           -0.4651797             -12.6582
        63        2.0000           -0.4623716             -12.5818
        64        2.0000           -0.4527925             -12.3211
        65        2.0000           -0.4526459             -12.3171
        66        2.0000           -0.4472936             -12.1715
        67        2.0000           -0.4357154             -11.8564 (HOMO)
        68                         -0.3489105              -9.4943 (LUMO)
        69                         -0.3129619              -8.5161
        70                         -0.2893594              -7.8739
        71                         -0.2572323              -6.9996
        72                         -0.2323692              -6.3231
        73                         -0.2006023              -5.4587
        74                         -0.1431027              -3.8940
        75                         -0.1418700              -3.8605
        76                         -0.1328796              -3.6158
        77                         -0.1263267              -3.4375
        78                         -0.1238698              -3.3707
       ...                                ...                  ...
       134                          0.7546542              20.5352
      -------------------------------------------------------------
                  HL-Gap            0.0868049 Eh            2.3621 eV

Wiberg/Mayer (AO) data.
largest (>0.10) Wiberg bond orders for each atom

     #   Z sym  total        # sym  WBO       # sym  WBO       # sym  WBO
 ---------------------------------------------------------------------------
     1   6 C    3.875 --    28 H    0.984    27 H    0.981    26 H    0.974
                             2 O    0.898
     2   8 O    2.098 --     3 C    1.027     1 C    0.898
     3   6 C    3.830 --     2 O    1.027     4 C    0.989     5 O    0.941
                             6 C    0.730
     4   6 C    3.982 --     3 C    0.989    29 H    0.979    31 H    0.977
                            30 H    0.969
     5   8 O    1.984 --     3 C    0.941     6 C    0.858
     6   6 C    3.846 --     7 N    1.036    24 C    1.036     5 O    0.858
                             3 C    0.730
     7   7 N    3.043 --     8 C    1.707     6 C    1.036
     8   6 C    3.927 --     7 N    1.707    21 N    1.089     9 C    0.979
     9   6 C    3.934 --    11 C    0.990     8 C    0.979    10 C    0.974
                            12 N    0.925
    10   6 C    3.985 --    32 H    0.985    33 H    0.985    34 H    0.976
                             9 C    0.974
    11   6 C    3.988 --     9 C    0.990    37 H    0.985    36 H    0.982
                            35 H    0.981
    12   7 N    3.330 --    13 C    1.239     9 C    0.925    38 H    0.893
                            14 O    0.172
    13   6 C    3.914 --    14 O    1.597    12 N    1.239    15 C    0.994
    14   8 O    1.912 --    13 C    1.597    12 N    0.172
    15   6 C    3.873 --    16 N    1.622    20 O    1.046    13 C    0.994
    16   7 N    3.001 --    15 C    1.622    17 N    1.200
    17   7 N    2.982 --    18 C    1.610    16 N    1.200
    18   6 C    3.868 --    17 N    1.610    20 O    1.072    19 C    1.032
    19   6 C    3.986 --    18 C    1.032    41 H    0.982    40 H    0.963
                            39 H    0.962
    20   8 O    2.316 --    18 C    1.072    15 C    1.046
    21   7 N    3.429 --    22 C    1.168     8 C    1.089    42 H    0.879
                            23 O    0.145
    22   6 C    3.892 --    23 O    1.669    21 N    1.168    24 C    0.921
    23   8 O    1.951 --    22 C    1.669    21 N    0.145
    24   6 C    3.887 --    25 O    1.737     6 C    1.036    22 C    0.921
    25   8 O    1.997 --    24 C    1.737
    26   1 H    1.030 --     1 C    0.974
    27   1 H    1.008 --     1 C    0.981
    28   1 H    1.011 --     1 C    0.984
    29   1 H    0.999 --     4 C    0.979
    30   1 H    0.997 --     4 C    0.969
    31   1 H    1.008 --     4 C    0.977
    32   1 H    1.001 --    10 C    0.985
    33   1 H    1.001 --    10 C    0.985
    34   1 H    1.010 --    10 C    0.976
    35   1 H    1.006 --    11 C    0.981
    36   1 H    1.009 --    11 C    0.982
    37   1 H    1.003 --    11 C    0.985
    38   1 H    0.936 --    12 N    0.893
    39   1 H    0.997 --    19 C    0.962
    40   1 H    0.996 --    19 C    0.963
    41   1 H    0.998 --    19 C    0.982
    42   1 H    0.925 --    21 N    0.879
 ---------------------------------------------------------------------------

           -------------------------------------------------
          | TOTAL ENERGY              -82.973292770032 Eh   |
          | GRADIENT NORM               0.000679426983 Eh/α |
          | HOMO-LUMO GAP               2.362081434703 eV   |
           -------------------------------------------------

 * finished run on 2023/06/21 at 17:25:09.716
