   * xtb version 6.5.1 (579679a) compiled by 'ehlert@majestix' on 2022-07-11
          program call               : /lustre/hpc/kemi/ree/PhD/git/ReactivityQM/dep/xtb-6.5.1/bin/xtb --gfn 1 /lustre/hpc/kemi/ree/PhD/git/ReactivityQM/calculations/RaltegravirCLI/reac02prodE12/conf05/RaltegravirCLI_reac02prodE12_conf05_gfn1.xyz --opt --vfukui --chrg -1 --uhf 0 --alpb DMSO

   ID    Z sym.   atoms
    1    6 C      1, 3, 4, 6, 7, 10-14, 16, 17, 19-22, 25
    2    8 O      2, 5, 8
    3    7 N      9, 18, 23, 24
    4    9 F      15
    5    1 H      26-47

      * Solvation model:               ALPB
        Solvent                        DMSO
        Solvent mass                       7.8130E+01 g/mol
          :  Hamiltonian                  GFN1-xTB          :
 * total energy  :   -80.1598143 Eh     change       -0.1463718E-11 Eh
 * total energy  :   -80.1752475 Eh     change       -0.1543322E-01 Eh
 * total energy  :   -80.1801190 Eh     change       -0.4871404E-02 Eh
 * total energy  :   -80.1810524 Eh     change       -0.9334979E-03 Eh
 * total energy  :   -80.1818962 Eh     change       -0.8437240E-03 Eh
 * total energy  :   -80.1822280 Eh     change       -0.3318354E-03 Eh
 * total energy  :   -80.1824911 Eh     change       -0.2630725E-03 Eh
 * total energy  :   -80.1827430 Eh     change       -0.2518950E-03 Eh
 * total energy  :   -80.1829925 Eh     change       -0.2495638E-03 Eh
 * total energy  :   -80.1831745 Eh     change       -0.1819574E-03 Eh
 * total energy  :   -80.1878167 Eh     change       -0.2740840E-04 Eh
 * total energy  :   -80.1878370 Eh     change       -0.2025890E-04 Eh
 * total energy  :   -80.1878503 Eh     change       -0.1333053E-04 Eh
 * total energy  :   -80.1878660 Eh     change       -0.1573718E-04 Eh
 * total energy  :   -80.1878795 Eh     change       -0.1343077E-04 Eh
 * total energy  :   -80.1878888 Eh     change       -0.9334953E-05 Eh
 * total energy  :   -80.1878967 Eh     change       -0.7906086E-05 Eh
 * total energy  :   -80.1879028 Eh     change       -0.6061450E-05 Eh
 * total energy  :   -80.1879066 Eh     change       -0.3854087E-05 Eh
   *** GEOMETRY OPTIMIZATION CONVERGED AFTER 81 ITERATIONS ***

 final structure:
================
47
 xtb: 6.5.1 (579679a)
C           -2.52531710395732        3.58367867146248        2.01347955911339
O           -2.95381397450234        2.88124788041604        0.85781446674406
C           -2.06838501669771        1.92269761182429        0.35239875799580
C           -0.80993072151934        2.15984592266704       -0.05678513353178
O           -0.23162215127104        3.39909287667322        0.03551684636043
C           -0.04115651834599        1.09719264673366       -0.68684594522665
C            1.25561852464969        1.30350379264351       -1.14306302348161
O            1.91805667614860        2.37888744023196       -0.98186876612749
N            1.84069429924455        0.23749607451275       -1.88007489438257
C            3.29703242439069        0.17289555660794       -1.87038562703432
C            3.81587541002328       -0.24934848367410       -0.51154173286808
C            3.90942472437676       -1.60112237713892       -0.18484905733347
C            4.34588096223321       -2.00157695818328        1.07109171536830
C            4.68043598450983       -1.02312284857085        1.98866059654382
F            5.10981613139677       -1.40196573906273        3.20983778688043
C            4.59655718375030        0.32749529394121        1.70358996755606
C            4.15787962606057        0.70734895231532        0.44295862883870
N           -0.70781020300805       -0.09703841280730       -0.95532999400043
C           -1.89578176773046       -0.30880095561837       -0.53606039083873
C           -2.55881191804235       -1.61480525883702       -0.95976711918284
C           -1.97015099367102       -2.77803374462640       -0.14654261645694
C           -2.27577299861939       -1.85029631536692       -2.45655705810100
N           -4.00142971490482       -1.56455886100968       -0.72737130914662
N           -2.67487069469602        0.60902651220615        0.24700511306094
C           -3.03825646401815        0.08211879481659        1.57841045761125
H           -1.68965403629888        4.25954818161240        1.79011642901829
H           -2.21859210287439        2.89476675611904        2.81153454456715
H           -3.37604715998321        4.17377176791522        2.36279869053130
H            0.70796034669234        3.26883796811010       -0.31153977258196
H            1.41573685905750       -0.65681930804048       -1.64958599563516
H            3.68887611164373        1.16026996606765       -2.13716313546821
H            3.61023306065780       -0.54708992562374       -2.63304731558868
H            3.64558242175007       -2.35416680723328       -0.91890638158551
H            4.42779345002493       -3.04834967500075        1.33256149262965
H            4.87223867462287        1.06003394065026        2.45126905439232
H            4.07781395349142        1.76111253819654        0.19737972006002
H           -0.88585383431058       -2.78763816149271       -0.25523853687382
H           -2.21748654056899       -2.66881591191083        0.90914089102805
H           -2.36896790355679       -3.72900412811597       -0.49950102143090
H           -1.19959440707820       -1.86716015768552       -2.62953478985107
H           -2.70369876200458       -2.79936629527759       -2.77678580096593
H           -2.71409585298522       -1.04916824540933       -3.05169959687551
H           -4.40524825159112       -2.45321045722752       -0.98640827273766
H           -4.41530810453065       -0.85691962094075       -1.32353755824743
H           -3.59886482041649       -0.84392352239996        1.46039562452762
H           -3.67746596446669        0.81268792718151        2.07512429945671
H           -2.14951784308042       -0.10125490164701        2.19460920326960

          :  Hamiltonian                  GFN1-xTB          :
         :: total energy             -80.187906617237 Eh    ::
         :: gradient norm              0.000492746685 Eh/a0 ::
         :: HOMO-LUMO gap              1.080108496927 eV    ::
         :: SCC energy               -81.036145008127 Eh    ::
         :: -> Gsolv                  -0.099702692675 Eh    ::
         :: repulsion energy           0.878818806781 Eh    ::

    * Orbital Energies and Occupations

         #    Occupation            Energy/Eh            Energy/eV
      -------------------------------------------------------------
         1        2.0000           -0.8502955             -23.1377
       ...           ...                  ...                  ...
        56        2.0000           -0.4549360             -12.3794
        57        2.0000           -0.4548373             -12.3768
        58        2.0000           -0.4438981             -12.0791
        59        2.0000           -0.4347623             -11.8305
        60        2.0000           -0.4321792             -11.7602
        61        2.0000           -0.4208929             -11.4531
        62        2.0000           -0.3982792             -10.8377
        63        2.0000           -0.3956183             -10.7653
        64        2.0000           -0.3899013             -10.6098
        65        2.0000           -0.3827046             -10.4139
        66        2.0000           -0.3714224             -10.1069
        67        2.0000           -0.3646300              -9.9221
        68        2.0000           -0.2964903              -8.0679 (HOMO)
        69                         -0.2567971              -6.9878 (LUMO)
        70                         -0.2484888              -6.7617
        71                         -0.2175082              -5.9187
        72                         -0.1856195              -5.0510
        73                         -0.1284800              -3.4961
        74                         -0.1160482              -3.1578
        75                         -0.1080887              -2.9412
        76                         -0.1043115              -2.8385
        77                         -0.1013003              -2.7565
        78                         -0.0978839              -2.6636
        79                         -0.0895180              -2.4359
       ...                                ...                  ...
       144                          0.6882584              18.7285
      -------------------------------------------------------------
                  HL-Gap            0.0396933 Eh            1.0801 eV

Wiberg/Mayer (AO) data.
largest (>0.10) Wiberg bond orders for each atom

     #   Z sym  total        # sym  WBO       # sym  WBO       # sym  WBO
 ---------------------------------------------------------------------------
     1   6 C    3.918 --    28 H    0.986    27 H    0.982    26 H    0.980
                             2 O    0.940
     2   8 O    2.025 --     3 C    0.941     1 C    0.940
     3   6 C    3.825 --     4 C    1.649    24 N    0.959     2 O    0.941
     4   6 C    3.914 --     3 C    1.649     6 C    1.085     5 O    1.031
     5   8 O    1.979 --     4 C    1.031    29 H    0.755
     6   6 C    3.868 --     7 C    1.368    18 N    1.097     4 C    1.085
                             8 O    0.105
     7   6 C    3.917 --     6 C    1.368     8 O    1.349     9 N    1.029
     8   8 O    1.805 --     7 C    1.349    29 H    0.121     6 C    0.105
     9   7 N    3.134 --     7 C    1.029    10 C    0.966    30 H    0.931
    10   6 C    3.973 --    11 C    0.995    32 H    0.978    31 H    0.974
                             9 N    0.966
    11   6 C    3.985 --    12 C    1.416    17 C    1.413    10 C    0.995
    12   6 C    3.994 --    13 C    1.441    11 C    1.416    33 H    0.973
                            16 C    0.109
    13   6 C    3.992 --    12 C    1.441    14 C    1.403    34 H    0.971
                            17 C    0.110
    14   6 C    3.855 --    13 C    1.403    16 C    1.401    15 F    0.912
    15   9 F    1.037 --    14 C    0.912
    16   6 C    3.992 --    17 C    1.444    14 C    1.401    35 H    0.971
                            12 C    0.109
    17   6 C    3.992 --    16 C    1.444    11 C    1.413    36 H    0.968
                            13 C    0.110
    18   7 N    3.062 --    19 C    1.712     6 C    1.097
    19   6 C    3.943 --    18 N    1.712    24 N    0.996    20 C    0.976
    20   6 C    3.963 --    21 C    0.988    22 C    0.983    23 N    0.982
                            19 C    0.976
    21   6 C    3.994 --    20 C    0.988    37 H    0.986    39 H    0.986
                            38 H    0.984
    22   6 C    3.996 --    41 H    0.987    42 H    0.986    20 C    0.983
                            40 H    0.983
    23   7 N    2.981 --    20 C    0.982    43 H    0.951    44 H    0.948
    24   7 N    3.128 --    19 C    0.996     3 C    0.959    25 C    0.947
    25   6 C    3.970 --    46 H    0.986    47 H    0.984    45 H    0.980
                            24 N    0.947
    26   1 H    1.028 --     1 C    0.980
    27   1 H    1.016 --     1 C    0.982
    28   1 H    1.020 --     1 C    0.986
    29   1 H    0.890 --     5 O    0.755     8 O    0.121
    30   1 H    0.991 --     9 N    0.931
    31   1 H    1.022 --    10 C    0.974
    32   1 H    1.012 --    10 C    0.978
    33   1 H    1.001 --    12 C    0.973
    34   1 H    1.000 --    13 C    0.971
    35   1 H    1.000 --    16 C    0.971
    36   1 H    1.019 --    17 C    0.968
    37   1 H    1.012 --    21 C    0.986
    38   1 H    1.011 --    21 C    0.984
    39   1 H    1.003 --    21 C    0.986
    40   1 H    1.022 --    22 C    0.983
    41   1 H    1.006 --    22 C    0.987
    42   1 H    1.010 --    22 C    0.986
    43   1 H    0.966 --    23 N    0.951
    44   1 H    0.971 --    23 N    0.948
    45   1 H    1.038 --    25 C    0.980
    46   1 H    1.020 --    25 C    0.986
    47   1 H    1.012 --    25 C    0.984
 ---------------------------------------------------------------------------

           -------------------------------------------------
          | TOTAL ENERGY              -80.187906617237 Eh   |
          | GRADIENT NORM               0.000492746685 Eh/α |
          | HOMO-LUMO GAP               1.080108496927 eV   |
           -------------------------------------------------

 * finished run on 2023/06/20 at 15:13:54.366
