   * xtb version 6.5.1 (579679a) compiled by 'ehlert@majestix' on 2022-07-11
          program call               : /lustre/hpc/kemi/ree/PhD/git/ReactivityQM/dep/xtb-6.5.1/bin/xtb --gfn 1 /lustre/hpc/kemi/ree/PhD/git/ReactivityQM/calculations/R01/reac01prodE01/conf10/R01_reac01prodE01_conf10_gfn1.xyz --opt --vfukui --chrg -1 --uhf 0 --alpb DMSO

   ID    Z sym.   atoms
    1    6 C      1, 3, 4, 6, 9, 10
    2    8 O      2, 5, 11
    3    7 N      7, 8
    4    1 H      12-20

      * Solvation model:               ALPB
        Solvent                        DMSO
        Solvent mass                       7.8130E+01 g/mol
          :  Hamiltonian                  GFN1-xTB          :
 * total energy  :   -38.3266734 Eh     change       -0.4511946E-11 Eh
 * total energy  :   -38.3337774 Eh     change       -0.7103988E-02 Eh
 * total energy  :   -38.3369424 Eh     change       -0.3164990E-02 Eh
 * total energy  :   -38.3375407 Eh     change       -0.5983670E-03 Eh
 * total energy  :   -38.3377874 Eh     change       -0.2466344E-03 Eh
 * total energy  :   -38.3378727 Eh     change       -0.8532761E-04 Eh
 * total energy  :   -38.3379327 Eh     change       -0.6000315E-04 Eh
 * total energy  :   -38.3379532 Eh     change       -0.2046909E-04 Eh
 * total energy  :   -38.3379669 Eh     change       -0.1374277E-04 Eh
 * total energy  :   -38.3379822 Eh     change       -0.1534809E-04 Eh
 * total energy  :   -38.3383868 Eh     change       -0.1912307E-04 Eh
 * total energy  :   -38.3384011 Eh     change       -0.1425076E-04 Eh
 * total energy  :   -38.3384082 Eh     change       -0.7111327E-05 Eh
 * total energy  :   -38.3384132 Eh     change       -0.5046012E-05 Eh
 * total energy  :   -38.3384216 Eh     change       -0.8335429E-05 Eh
 * total energy  :   -38.3384262 Eh     change       -0.4685757E-05 Eh
 * total energy  :   -38.3384341 Eh     change       -0.7831142E-05 Eh
 * total energy  :   -38.3384394 Eh     change       -0.5320510E-05 Eh
 * total energy  :   -38.3384427 Eh     change       -0.3276088E-05 Eh
   *** GEOMETRY OPTIMIZATION CONVERGED AFTER 29 ITERATIONS ***

 final structure:
================
20
 xtb: 6.5.1 (579679a)
C           -2.28859684194723       -1.30460435145043        0.32600523349822
O           -2.32846377511577       -0.45037503283651       -0.78423254448255
C           -1.31833317787993        0.67237807598895       -0.86398243863300
C           -1.48394431775148        1.54090216799747        0.42656297360533
O           -1.42000502124514        1.31809695626256       -1.97013041357531
C            0.08134111946260       -0.05543401549733       -0.75126657340011
N            0.54706233580041       -0.99814049862013       -1.51123762930017
N            1.87379824412508       -1.17465133156481       -1.17124008647961
C            2.12441660847858       -0.32189312435484       -0.23636671672603
C            3.40898259032432       -0.10713413187081        0.47288758057530
O            1.04345904189760        0.41919781821119        0.07759207646920
H           -2.75877559931421       -0.85918191279959        1.21559510086579
H           -1.26013135824086       -1.59541380599904        0.59196542441995
H           -2.84313448864377       -2.21442203485510        0.07034138802853
H           -0.81592819772624        2.39572775272304        0.34079243298167
H           -2.51110399214561        1.89655580282770        0.47604528385234
H           -1.24157877418331        0.98941615640005        1.33155443104553
H            3.78294964167560        0.89882037469923        0.28211828842037
H            4.14099868431762       -0.83414958208749        0.12935066978037
H            3.26698827811181       -0.21569528317395        1.54764451905399

          :  Hamiltonian                  GFN1-xTB          :
         :: total energy             -38.338442675531 Eh    ::
         :: gradient norm              0.000600667341 Eh/a0 ::
         :: HOMO-LUMO gap              3.262780484277 eV    ::
         :: SCC energy               -38.647759317813 Eh    ::
         :: -> Gsolv                  -0.111486945795 Eh    ::
         :: repulsion energy           0.318130079351 Eh    ::

    * Orbital Energies and Occupations

         #    Occupation            Energy/Eh            Energy/eV
      -------------------------------------------------------------
         1        2.0000           -0.8214441             -22.3526
       ...           ...                  ...                  ...
        19        2.0000           -0.5134616             -13.9720
        20        2.0000           -0.5021548             -13.6643
        21        2.0000           -0.4823149             -13.1245
        22        2.0000           -0.4765759             -12.9683
        23        2.0000           -0.4623162             -12.5803
        24        2.0000           -0.4565148             -12.4224
        25        2.0000           -0.4483781             -12.2010
        26        2.0000           -0.4371658             -11.8959
        27        2.0000           -0.4172368             -11.3536
        28        2.0000           -0.4157885             -11.3142
        29        2.0000           -0.4088642             -11.1258
        30        2.0000           -0.3663831              -9.9698
        31        2.0000           -0.3485672              -9.4850 (HOMO)
        32                         -0.2286623              -6.2222 (LUMO)
        33                         -0.2132372              -5.8025
        34                         -0.1297823              -3.5316
        35                         -0.1105419              -3.0080
        36                         -0.0876197              -2.3843
        37                         -0.0626933              -1.7060
        38                         -0.0616971              -1.6789
        39                         -0.0512461              -1.3945
        40                         -0.0452868              -1.2323
        41                         -0.0254132              -0.6915
        42                         -0.0176908              -0.4814
       ...                                ...                  ...
        62                          0.6104975              16.6125
      -------------------------------------------------------------
                  HL-Gap            0.1199050 Eh            3.2628 eV

Wiberg/Mayer (AO) data.
largest (>0.10) Wiberg bond orders for each atom

     #   Z sym  total        # sym  WBO       # sym  WBO       # sym  WBO
 ---------------------------------------------------------------------------
     1   6 C    3.940 --     2 O    0.981    14 H    0.981    12 H    0.979
                            13 H    0.975
     2   8 O    1.944 --     1 C    0.981     3 C    0.784
     3   6 C    3.895 --     5 O    1.259     4 C    0.939     6 C    0.862
                             2 O    0.784
     4   6 C    3.992 --    17 H    0.989    16 H    0.987    15 H    0.986
                             3 C    0.939
     5   8 O    1.538 --     3 C    1.259
     6   6 C    3.801 --     7 N    1.651    11 O    1.043     3 C    0.862
     7   7 N    2.965 --     6 C    1.651     8 N    1.152
     8   7 N    2.976 --     9 C    1.655     7 N    1.152
     9   6 C    3.887 --     8 N    1.655    11 O    1.062    10 C    1.024
    10   6 C    3.993 --     9 C    1.024    19 H    0.985    20 H    0.971
                            18 H    0.969
    11   8 O    2.291 --     9 C    1.062     6 C    1.043
    12   1 H    1.018 --     1 C    0.979
    13   1 H    1.018 --     1 C    0.975
    14   1 H    1.022 --     1 C    0.981
    15   1 H    1.018 --     4 C    0.986
    16   1 H    1.013 --     4 C    0.987
    17   1 H    1.008 --     4 C    0.989
    18   1 H    1.002 --    10 C    0.969
    19   1 H    1.003 --    10 C    0.985
    20   1 H    1.001 --    10 C    0.971
 ---------------------------------------------------------------------------

           -------------------------------------------------
          | TOTAL ENERGY              -38.338442675531 Eh   |
          | GRADIENT NORM               0.000600667341 Eh/α |
          | HOMO-LUMO GAP               3.262780484277 eV   |
           -------------------------------------------------

 * finished run on 2023/06/20 at 14:52:31.232
