   * xtb version 6.5.1 (579679a) compiled by 'ehlert@majestix' on 2022-07-11
          program call               : /lustre/hpc/kemi/ree/PhD/git/ReactivityQM/dep/xtb-6.5.1/bin/xtb --gfn 1 /lustre/hpc/kemi/ree/PhD/git/ReactivityQM/calculations/R02oxygendeprot/reac01prodE04/conf15/R02oxygendeprot_reac01prodE04_conf15_gfn1.xyz --opt --vfukui --chrg -2 --uhf 0 --alpb DMSO

   ID    Z sym.   atoms
    1    6 C      1, 3, 5, 6, 8-11, 13, 15, 18, 19, 22, 24
    2    8 O      2, 4, 14, 20, 23, 25
    3    7 N      7, 12, 16, 17, 21
    4    1 H      26-42

      * Solvation model:               ALPB
        Solvent                        DMSO
        Solvent mass                       7.8130E+01 g/mol
          :  Hamiltonian                  GFN1-xTB          :
 * total energy  :   -83.5776892 Eh     change       -0.8722623E-10 Eh
 * total energy  :   -83.5992708 Eh     change       -0.2158162E-01 Eh
 * total energy  :   -83.6064907 Eh     change       -0.7219865E-02 Eh
 * total energy  :   -83.6080463 Eh     change       -0.1555651E-02 Eh
 * total energy  :   -83.6089798 Eh     change       -0.9334496E-03 Eh
 * total energy  :   -83.6093439 Eh     change       -0.3641484E-03 Eh
 * total energy  :   -83.6096286 Eh     change       -0.2846308E-03 Eh
 * total energy  :   -83.6099971 Eh     change       -0.3685311E-03 Eh
 * total energy  :   -83.6104552 Eh     change       -0.4581229E-03 Eh
 * total energy  :   -83.6109239 Eh     change       -0.4686754E-03 Eh
 * total energy  :   -83.6150815 Eh     change       -0.1464251E-04 Eh
 * total energy  :   -83.6151028 Eh     change       -0.2132944E-04 Eh
 * total energy  :   -83.6151143 Eh     change       -0.1140871E-04 Eh
 * total energy  :   -83.6151237 Eh     change       -0.9433810E-05 Eh
 * total energy  :   -83.6151316 Eh     change       -0.7959393E-05 Eh
 * total energy  :   -83.6151389 Eh     change       -0.7257440E-05 Eh
 * total energy  :   -83.6151472 Eh     change       -0.8294036E-05 Eh
 * total energy  :   -83.6151560 Eh     change       -0.8815116E-05 Eh
 * total energy  :   -83.6151601 Eh     change       -0.4076581E-05 Eh
   *** GEOMETRY OPTIMIZATION CONVERGED AFTER 44 ITERATIONS ***

 final structure:
================
42
 xtb: 6.5.1 (579679a)
C           -6.08800269775605       -0.56813857352262        0.55740333933125
O           -5.07815237846068        0.34870129423928        0.15978240557092
C           -3.81415314738902       -0.14566183057014        0.08242061084316
O           -3.57364858434199       -1.32063470388492        0.32217282537083
C           -2.78374962034103        0.93730199541055       -0.18523038677858
C           -3.32630047178270        2.04194954703196       -1.09547022883065
N           -1.60081145850609        0.35116005044615       -0.79384742175348
C           -0.75842426494617       -0.22364366654124       -0.01598969245255
C            0.41169005808832       -0.99462515260820       -0.61225206450097
C            0.53853730590764       -0.67928427937298       -2.10861249432008
C            0.14374283867444       -2.49165208538395       -0.39566600021397
N            1.61430806499700       -0.57630605745258        0.11597412723355
C            2.88020575268352       -1.03168167517639       -0.28218913106193
O            3.06269474895077       -2.10896998844866       -0.88531031680248
C            3.90979351047682       -0.13407866922854        0.14100575588483
N            3.72772507210462        1.03907244726489        0.75449046421302
N            4.97129517036648        1.57975110506897        0.93503633343312
C            5.82830801042134        0.74757306250733        0.44154921787009
C            7.30369077816311        0.90358458849233        0.40283846976456
O            5.25330777734943       -0.36199925305292       -0.08024153263611
N           -0.85483688574165       -0.22515217224321        1.34047607105648
C           -1.61801771902327        0.76462410892348        2.04564153117640
O           -1.30542645979381        0.95690366701447        3.25679989577319
C           -2.58028147687453        1.45039738609513        1.27098636834424
O           -3.31171884087391        2.41604288999343        1.67928958619717
H           -5.88836085944140       -0.96114664486003        1.55956496307272
H           -7.03153638101038       -0.02431225077769        0.55565978075486
H           -6.14539698133363       -1.40595225275361       -0.14447128572091
H           -3.68275252824258        1.62071678884109       -2.03479127401174
H           -4.14593118027341        2.56599576517278       -0.60469529302410
H           -2.53083480684081        2.75514381184793       -1.31170234507135
H           -0.39463335299511       -0.92644014418468       -2.61399816791883
H            1.34729297989929       -1.25785411129600       -2.55198158029118
H            0.73852047031942        0.38236084616916       -2.25147892330839
H            0.90530959701670       -3.09607838679852       -0.88458252174306
H            0.14269271223780       -2.72123156160174        0.66951253154440
H           -0.83091045200021       -2.74742556227330       -0.81197710470736
H            1.62150114472976        0.41696416844080        0.33171235510129
H            7.57864897446273        1.85997022355332        0.84122845001220
H            7.66308004487854        0.86255608977133       -0.62552445628087
H            7.78709829618311        0.10054833294883        0.95975289180374
H           -0.08555975993961       -0.61249814720437        1.86671424706852

          :  Hamiltonian                  GFN1-xTB          :
         :: total energy             -83.615160087632 Eh    ::
         :: gradient norm              0.000421930284 Eh/a0 ::
         :: HOMO-LUMO gap              0.038124542840 eV    ::
         :: SCC energy               -84.341692786879 Eh    ::
         :: -> Gsolv                  -0.272484681111 Eh    ::
         :: repulsion energy           0.753151787416 Eh    ::

    * Orbital Energies and Occupations

         #    Occupation            Energy/Eh            Energy/eV
      -------------------------------------------------------------
         1        2.0000           -0.8034020             -21.8617
       ...           ...                  ...                  ...
        56        2.0000           -0.4470034             -12.1636
        57        2.0000           -0.4430929             -12.0572
        58        2.0000           -0.4314182             -11.7395
        59        2.0000           -0.4247255             -11.5574
        60        2.0000           -0.4103893             -11.1673
        61        2.0000           -0.4068592             -11.0712
        62        2.0000           -0.4059680             -11.0470
        63        2.0000           -0.3997587             -10.8780
        64        2.0000           -0.3908617             -10.6359
        65        2.0000           -0.3799438             -10.3388
        66        2.0000           -0.3760557             -10.2330
        67        2.0000           -0.3461169              -9.4183
        68        1.3528           -0.2703530              -7.3567 (HOMO)
        69        0.6472           -0.2689520              -7.3186 (LUMO)
        70                         -0.2217452              -6.0340
        71                         -0.2117005              -5.7607
        72                         -0.2023049              -5.5050
        73                         -0.1427749              -3.8851
        74                         -0.1249174              -3.3992
        75                         -0.1227828              -3.3411
        76                         -0.1150875              -3.1317
        77                         -0.0958709              -2.6088
        78                         -0.0934619              -2.5432
        79                         -0.0888784              -2.4185
       ...                                ...                  ...
       134                          0.7125779              19.3902
      -------------------------------------------------------------
                  HL-Gap            0.0014011 Eh            0.0381 eV

Wiberg/Mayer (AO) data.
largest (>0.10) Wiberg bond orders for each atom

     #   Z sym  total        # sym  WBO       # sym  WBO       # sym  WBO
 ---------------------------------------------------------------------------
     1   6 C    3.897 --    27 H    0.987    28 H    0.981    26 H    0.981
                             2 O    0.921
     2   8 O    2.152 --     3 C    1.043     1 C    0.921     4 O    0.108
     3   6 C    3.777 --     4 O    1.595     2 O    1.043     5 C    0.945
     4   8 O    1.851 --     3 C    1.595     2 O    0.108
     5   6 C    3.959 --     6 C    0.992     7 N    0.980     3 C    0.945
                            24 C    0.875
     6   6 C    3.990 --     5 C    0.992    29 H    0.989    31 H    0.987
                            30 H    0.983
     7   7 N    2.941 --     8 C    1.656     5 C    0.980    21 N    0.147
     8   6 C    3.932 --     7 N    1.656    21 N    1.174     9 C    0.970
     9   6 C    3.949 --    10 C    0.992    11 C    0.986     8 C    0.970
                            12 N    0.939
    10   6 C    3.993 --     9 C    0.992    34 H    0.986    32 H    0.985
                            33 H    0.984
    11   6 C    3.994 --    37 H    0.987    36 H    0.986     9 C    0.986
                            35 H    0.980
    12   7 N    3.144 --    13 C    1.079     9 C    0.939    38 H    0.919
                            14 O    0.108
    13   6 C    3.750 --    14 O    1.456    15 C    1.148    12 N    1.079
    14   8 O    1.696 --    13 C    1.456    12 N    0.108
    15   6 C    3.698 --    16 N    1.399    13 C    1.148    20 O    0.979
    16   7 N    2.750 --    15 C    1.399    17 N    1.185
    17   7 N    2.980 --    18 C    1.628    16 N    1.185
    18   6 C    3.821 --    17 N    1.628    20 O    1.051    19 C    1.024
    19   6 C    3.994 --    18 C    1.024    39 H    0.986    40 H    0.971
                            41 H    0.971
    20   8 O    2.188 --    18 C    1.051    15 C    0.979
    21   7 N    3.323 --     8 C    1.174    22 C    0.960    42 H    0.912
                             7 N    0.147
    22   6 C    3.746 --    23 O    1.390    24 C    1.244    21 N    0.960
    23   8 O    1.602 --    22 C    1.390
    24   6 C    3.730 --    25 O    1.371    22 C    1.244     5 C    0.875
    25   8 O    1.575 --    24 C    1.371
    26   1 H    1.012 --     1 C    0.981
    27   1 H    1.015 --     1 C    0.987
    28   1 H    1.014 --     1 C    0.981
    29   1 H    1.010 --     6 C    0.989
    30   1 H    1.027 --     6 C    0.983
    31   1 H    1.013 --     6 C    0.987
    32   1 H    1.019 --    10 C    0.985
    33   1 H    1.013 --    10 C    0.984
    34   1 H    1.012 --    10 C    0.986
    35   1 H    1.023 --    11 C    0.980
    36   1 H    1.009 --    11 C    0.986
    37   1 H    1.009 --    11 C    0.987
    38   1 H    0.980 --    12 N    0.919
    39   1 H    1.004 --    19 C    0.986
    40   1 H    1.001 --    19 C    0.971
    41   1 H    1.001 --    19 C    0.971
    42   1 H    0.971 --    21 N    0.912
 ---------------------------------------------------------------------------

           -------------------------------------------------
          | TOTAL ENERGY              -83.615160087632 Eh   |
          | GRADIENT NORM               0.000421930284 Eh/α |
          | HOMO-LUMO GAP               0.038124542840 eV   |
           -------------------------------------------------

 * finished run on 2023/06/21 at 17:04:57.712
