   * xtb version 6.5.1 (579679a) compiled by 'ehlert@majestix' on 2022-07-11
          program call               : /lustre/hpc/kemi/ree/PhD/git/ReactivityQM/dep/xtb-6.5.1/bin/xtb --gfn 1 /lustre/hpc/kemi/ree/PhD/git/ReactivityQM/calculations/R02oxygendeprot/reac01prodN07/conf04/R02oxygendeprot_reac01prodN07_conf04_gfn1.xyz --opt --vfukui --chrg 0 --uhf 0 --alpb DMSO

   ID    Z sym.   atoms
    1    6 C      1, 3, 5, 7-10, 12, 14, 17-19, 22, 24
    2    8 O      2, 4, 13, 20, 23, 25
    3    7 N      6, 11, 15, 16, 21
    4    1 H      26-42

      * Solvation model:               ALPB
        Solvent                        DMSO
        Solvent mass                       7.8130E+01 g/mol
          :  Hamiltonian                  GFN1-xTB          :
 * total energy  :   -82.9535724 Eh     change       -0.6615153E-10 Eh
 * total energy  :   -82.9697612 Eh     change       -0.1618889E-01 Eh
 * total energy  :   -82.9764297 Eh     change       -0.6668414E-02 Eh
 * total energy  :   -82.9774195 Eh     change       -0.9898121E-03 Eh
 * total energy  :   -82.9779750 Eh     change       -0.5554876E-03 Eh
 * total energy  :   -82.9781372 Eh     change       -0.1622172E-03 Eh
 * total energy  :   -82.9782863 Eh     change       -0.1491126E-03 Eh
 * total energy  :   -82.9784179 Eh     change       -0.1316321E-03 Eh
 * total energy  :   -82.9785349 Eh     change       -0.1169978E-03 Eh
 * total energy  :   -82.9786470 Eh     change       -0.1120784E-03 Eh
 * total energy  :   -82.9791774 Eh     change       -0.1258715E-04 Eh
 * total energy  :   -82.9791922 Eh     change       -0.1487426E-04 Eh
 * total energy  :   -82.9792108 Eh     change       -0.1858586E-04 Eh
 * total energy  :   -82.9792321 Eh     change       -0.2129524E-04 Eh
 * total energy  :   -82.9792520 Eh     change       -0.1985383E-04 Eh
 * total energy  :   -82.9792708 Eh     change       -0.1879527E-04 Eh
 * total energy  :   -82.9792929 Eh     change       -0.2209825E-04 Eh
 * total energy  :   -82.9793161 Eh     change       -0.2324998E-04 Eh
 * total energy  :   -82.9793205 Eh     change       -0.4388738E-05 Eh
   *** GEOMETRY OPTIMIZATION CONVERGED AFTER 44 ITERATIONS ***

 final structure:
================
42
 xtb: 6.5.1 (579679a)
C           -6.96692024401939       -0.37880925292880       -1.71113483659565
O           -5.82406809035393        0.37903650136131       -1.33740372609703
C           -4.80260321365663       -0.32476273703173       -0.79035481724182
O           -4.88465515379097       -1.53953004400523       -0.65188816049783
C           -3.65385564233953        0.47786869257841       -0.39417658598717
N           -2.64877167787265       -0.27790547571794        0.17939830489413
C           -1.57610684925429        0.27091550034521        0.61266829259988
C           -0.52505209500917       -0.58781370430855        1.29396643117688
C           -0.42051731640368       -0.24149139935284        2.78376748739463
C           -0.89184089994919       -2.06245375126794        1.11977421069662
N            0.79682875390010       -0.41543744973862        0.64168859067301
C            1.63805342052789        0.60065455036939        0.83343197853869
O            1.43878484078660        1.63313519290497        1.44604368411084
C            2.97434702917254        0.37429102034497        0.17875666366509
N            3.99492537437164        1.17744477839091        0.19784135335630
N            4.96250791140023        0.52507976202572       -0.47256647066533
C            6.27452431961873        1.12056452254032       -0.61616767241175
C            4.52150361982743       -0.64691536651284       -0.87734097445264
C            5.22912185115495       -1.70147604681612       -1.61999193500758
O            3.26898501990806       -0.76458868103965       -0.48246738864020
N           -1.37283140416186        1.63190991964307        0.53381288956677
C           -2.26498186658443        2.49889047576139       -0.04430427591035
O           -1.99504599998593        3.69542587074166       -0.11313966646611
C           -3.55115760419747        1.88489608874613       -0.55493419842394
O           -4.40347267511730        2.63265236111576       -1.06621818155067
H           -7.38539982478145       -0.90029761479791       -0.84447876566505
H           -6.70811808407116       -1.11833914836271       -2.47522624521257
H           -7.69973176397630        0.32212219395074       -2.10932925578703
H           -1.35836090520713       -0.50227696462996        3.27276167696301
H            0.38683164087527       -0.81152006009920        3.23906987130920
H           -0.23156578126318        0.81952526327728        2.93143036675673
H           -0.95545820943280       -2.31086700723231        0.06129858858939
H           -0.14226710861048       -2.69293428310814        1.59280801546244
H           -1.86197294159740       -2.25218946110251        1.57757571824683
H            1.13826989263874       -1.20640636740962        0.12278047433566
H            6.94352060907695        0.67612191480850        0.11954080416946
H            6.64416351363720        0.92165856529025       -1.61913122837625
H            6.18116250207138        2.18980033560836       -0.44273339017514
H            5.76103379939209       -1.27445711178992       -2.47004623589383
H            5.96548415490975       -2.17604467924619       -0.96797896979934
H            4.51569711245031       -2.45017614376124       -1.95880559351457
H           -0.51098901408924        2.02666424045373        0.88139817187379

          :  Hamiltonian                  GFN1-xTB          :
         :: total energy             -82.979320506341 Eh    ::
         :: gradient norm              0.000318168111 Eh/a0 ::
         :: HOMO-LUMO gap              0.377073834189 eV    ::
         :: SCC energy               -83.766837771312 Eh    ::
         :: -> Gsolv                  -0.138401531052 Eh    ::
         :: repulsion energy           0.812534828929 Eh    ::

    * Orbital Energies and Occupations

         #    Occupation            Energy/Eh            Energy/eV
      -------------------------------------------------------------
         1        2.0000           -0.9362706             -25.4772
       ...           ...                  ...                  ...
        55        2.0000           -0.5045030             -13.7282
        56        2.0000           -0.5009176             -13.6307
        57        2.0000           -0.4956907             -13.4884
        58        2.0000           -0.4892916             -13.3143
        59        2.0000           -0.4827841             -13.1372
        60        2.0000           -0.4684333             -12.7467
        61        2.0000           -0.4666171             -12.6973
        62        2.0000           -0.4582726             -12.4702
        63        2.0000           -0.4421907             -12.0326
        64        2.0000           -0.4387871             -11.9400
        65        2.0000           -0.4201858             -11.4338
        66        2.0000           -0.3816018             -10.3839
        67        1.9986           -0.3695020             -10.0547 (HOMO)
        68        0.0014           -0.3556448              -9.6776 (LUMO)
        69                         -0.3419308              -9.3044
        70                         -0.2724116              -7.4127
        71                         -0.2449301              -6.6649
        72                         -0.2374320              -6.4609
        73                         -0.1993242              -5.4239
        74                         -0.1838287              -5.0022
        75                         -0.1712053              -4.6587
        76                         -0.1293827              -3.5207
        77                         -0.1238551              -3.3703
        78                         -0.1236738              -3.3653
       ...                                ...                  ...
       134                          0.7538907              20.5144
      -------------------------------------------------------------
                  HL-Gap            0.0138572 Eh            0.3771 eV

Wiberg/Mayer (AO) data.
largest (>0.10) Wiberg bond orders for each atom

     #   Z sym  total        # sym  WBO       # sym  WBO       # sym  WBO
 ---------------------------------------------------------------------------
     1   6 C    3.897 --    28 H    0.987    27 H    0.981    26 H    0.980
                             2 O    0.923
     2   8 O    2.162 --     3 C    1.052     1 C    0.923     4 O    0.111
     3   6 C    3.850 --     4 O    1.578     5 C    1.110     2 O    1.052
     4   8 O    1.852 --     3 C    1.578     2 O    0.111
     5   6 C    3.910 --    24 C    1.268     6 N    1.156     3 C    1.110
                            25 O    0.128
     6   7 N    3.033 --     7 C    1.629     5 C    1.156
     7   6 C    3.933 --     6 N    1.629    21 N    1.100     8 C    0.968
     8   6 C    3.913 --    10 C    1.001     9 C    0.986     7 C    0.968
                            11 N    0.890
     9   6 C    3.987 --     8 C    0.986    30 H    0.985    29 H    0.984
                            31 H    0.980
    10   6 C    3.991 --     8 C    1.001    33 H    0.986    32 H    0.982
                            34 H    0.980
    11   7 N    3.393 --    12 C    1.318    35 H    0.893     8 C    0.890
                            13 O    0.201
    12   6 C    3.926 --    13 O    1.577    11 N    1.318    14 C    0.956
    13   8 O    1.930 --    12 C    1.577    11 N    0.201
    14   6 C    3.833 --    15 N    1.613    20 O    1.050    12 C    0.956
    15   7 N    2.978 --    14 C    1.613    16 N    1.149
    16   7 N    3.632 --    18 C    1.427    15 N    1.149    17 C    0.911
    17   6 C    3.886 --    38 H    0.977    37 H    0.974    36 H    0.965
                            16 N    0.911
    18   6 C    3.841 --    16 N    1.427    20 O    1.145    19 C    1.042
    19   6 C    3.961 --    18 C    1.042    41 H    0.971    39 H    0.954
                            40 H    0.938
    20   8 O    2.372 --    18 C    1.145    14 C    1.050
    21   7 N    3.428 --    22 C    1.163     7 C    1.100    42 H    0.880
                            23 O    0.136
    22   6 C    3.879 --    23 O    1.579    21 N    1.163    24 C    0.966
    23   8 O    1.858 --    22 C    1.579    21 N    0.136
    24   6 C    3.942 --    25 O    1.524     5 C    1.268    22 C    0.966
    25   8 O    1.827 --    24 C    1.524     5 C    0.128
    26   1 H    1.014 --     1 C    0.980
    27   1 H    1.014 --     1 C    0.981
    28   1 H    1.015 --     1 C    0.987
    29   1 H    1.002 --     9 C    0.984
    30   1 H    0.999 --     9 C    0.985
    31   1 H    1.009 --     9 C    0.980
    32   1 H    1.007 --    10 C    0.982
    33   1 H    0.999 --    10 C    0.986
    34   1 H    1.012 --    10 C    0.980
    35   1 H    0.933 --    11 N    0.893
    36   1 H    0.989 --    17 C    0.965
    37   1 H    0.990 --    17 C    0.974
    38   1 H    0.992 --    17 C    0.977
    39   1 H    0.987 --    19 C    0.954
    40   1 H    0.985 --    19 C    0.938
    41   1 H    0.986 --    19 C    0.971
    42   1 H    0.948 --    21 N    0.880
 ---------------------------------------------------------------------------

           -------------------------------------------------
          | TOTAL ENERGY              -82.979320506341 Eh   |
          | GRADIENT NORM               0.000318168111 Eh/α |
          | HOMO-LUMO GAP               0.377073834189 eV   |
           -------------------------------------------------

 * finished run on 2023/06/21 at 17:23:06.212
