   * xtb version 6.5.1 (579679a) compiled by 'ehlert@majestix' on 2022-07-11
          program call               : /lustre/hpc/kemi/ree/PhD/git/ReactivityQM/dep/xtb-6.5.1/bin/xtb --gfn 1 /lustre/hpc/kemi/ree/PhD/git/ReactivityQM/calculations/R03/reac02prodN06/conf18/R03_reac02prodN06_conf18_gfn1.xyz --opt --vfukui --chrg 1 --uhf 0 --alpb DMSO

   ID    Z sym.   atoms
    1    6 C      1, 3, 5, 7-10, 12, 14, 16, 17, 20, 22, 23, 25
    2    8 O      2, 4, 13, 15, 24, 26
    3    7 N      6, 11, 18, 19, 21
    4    1 H      27-46

      * Solvation model:               ALPB
        Solvent                        DMSO
        Solvent mass                       7.8130E+01 g/mol
          :  Hamiltonian                  GFN1-xTB          :
 * total energy  :   -86.3364894 Eh     change       -0.5030643E-11 Eh
 * total energy  :   -86.3550504 Eh     change       -0.1856096E-01 Eh
 * total energy  :   -86.3617109 Eh     change       -0.6660485E-02 Eh
 * total energy  :   -86.3631094 Eh     change       -0.1398506E-02 Eh
 * total energy  :   -86.3642989 Eh     change       -0.1189557E-02 Eh
 * total energy  :   -86.3647850 Eh     change       -0.4860516E-03 Eh
 * total energy  :   -86.3651945 Eh     change       -0.4095643E-03 Eh
 * total energy  :   -86.3655203 Eh     change       -0.3257351E-03 Eh
 * total energy  :   -86.3657225 Eh     change       -0.2022031E-03 Eh
 * total energy  :   -86.3658430 Eh     change       -0.1205640E-03 Eh
 * total energy  :   -86.3667603 Eh     change       -0.9756262E-05 Eh
 * total energy  :   -86.3667670 Eh     change       -0.6622411E-05 Eh
 * total energy  :   -86.3667768 Eh     change       -0.9883558E-05 Eh
 * total energy  :   -86.3667848 Eh     change       -0.7920088E-05 Eh
 * total energy  :   -86.3667901 Eh     change       -0.5365588E-05 Eh
 * total energy  :   -86.3667958 Eh     change       -0.5640044E-05 Eh
 * total energy  :   -86.3668021 Eh     change       -0.6365416E-05 Eh
 * total energy  :   -86.3668091 Eh     change       -0.6916573E-05 Eh
 * total energy  :   -86.3668119 Eh     change       -0.2886549E-05 Eh
   *** GEOMETRY OPTIMIZATION CONVERGED AFTER 47 ITERATIONS ***

 final structure:
================
46
 xtb: 6.5.1 (579679a)
C           -5.97770629975967       -0.65975550432436       -1.83814336066920
O           -4.75968860761733       -0.34242184622146       -1.15282225467485
C           -4.63829098297433        0.89673103211713       -0.70256247726215
O           -5.49763541666196        1.74840050158172       -0.84558570860790
C           -3.36062679427109        1.16210667097453       -0.00148595214512
N           -2.45822576470970        0.14016340333174        0.08285510361833
C           -1.32574703808307        0.30724822312004        0.68320277310857
C           -0.43104775601079       -0.92350778799792        0.73438752940836
C           -0.48168925904935       -1.54190340209310        2.13808081253293
C           -0.90879072565403       -1.94662057299558       -0.30516079780658
N            0.94324026908984       -0.52908258154577        0.36366621711166
C            1.98239743248844       -1.36529352878921        0.42511017385423
O            2.01620076220785       -2.49614938693114        0.86720928961165
C            3.24289297159356       -0.76272598482854       -0.12224522351390
O            3.36278116306122        0.46451787120382       -0.60222429636182
C            4.64788217111941        0.58893815367145       -0.98211429492141
C            5.14756363167244        1.84537696927178       -1.56347043764802
N            5.30928557145836       -0.50996475310376       -0.75324963722599
N            4.41330543978131       -1.34994815291181       -0.21172698546395
C            4.79721647627443       -2.69125739026992        0.17933078653223
N           -0.99233296245130        1.49395903146135        1.28061707750878
C            0.25660321014279        1.75748561037394        1.99765404687064
C           -1.82459197114398        2.61664402058057        1.23025196525540
O           -1.47545046666811        3.66580187287655        1.74600694897184
C           -3.09171857054911        2.39530298541229        0.53673907558740
O           -3.91993559089830        3.43692857584051        0.47915741138992
H           -6.07902590175665       -0.03201797760760       -2.72625521134711
H           -6.83154520299254       -0.49475505512116       -1.17687535998162
H           -5.91012660222829       -1.70859746418987       -2.11919959099573
H           -0.00760302036670       -0.89794933892106        2.87456396098880
H            0.01855484013562       -2.50773944746652        2.14348234449848
H           -1.52547183450014       -1.68549701087007        2.41507161426175
H           -1.92519293419146       -2.25839403136424       -0.07144313479518
H           -0.89408205832505       -1.50244232819083       -1.29860173845815
H           -0.25359217521194       -2.81511922697948       -0.28959290632495
H            1.06314242735880        0.33131204034680       -0.14606230151977
H            5.07485238714925        2.64370049291800       -0.82330509397114
H            6.18355019679679        1.72347947464182       -1.87144504962896
H            4.53127750489339        2.12654156714656       -2.41796541339870
H            4.59490870966644       -2.81452294293747        1.24248444556724
H            4.19526127058997       -3.40348214804160       -0.38367848609710
H            5.85485076296672       -2.81670491284741       -0.03580462328767
H            0.86061641322009        2.44403553925495        1.40526206145860
H            0.00967964051834        2.23141236383668        2.94838618131725
H            0.80544658857036        0.84298684597963        2.17487528117770
H           -4.74139790468134        3.19278253061102       -0.00791176452743

          :  Hamiltonian                  GFN1-xTB          :
         :: total energy             -86.366811942539 Eh    ::
         :: gradient norm              0.000554713659 Eh/a0 ::
         :: HOMO-LUMO gap              1.537001158357 eV    ::
         :: SCC energy               -87.209048657092 Eh    ::
         :: -> Gsolv                  -0.116331519147 Eh    ::
         :: repulsion energy           0.870923310486 Eh    ::

    * Orbital Energies and Occupations

         #    Occupation            Energy/Eh            Energy/eV
      -------------------------------------------------------------
         1        2.0000           -0.9394011             -25.5624
       ...           ...                  ...                  ...
        58        2.0000           -0.5276395             -14.3578
        59        2.0000           -0.5223169             -14.2130
        60        2.0000           -0.5186901             -14.1143
        61        2.0000           -0.5184290             -14.1072
        62        2.0000           -0.5154925             -14.0273
        63        2.0000           -0.5025501             -13.6751
        64        2.0000           -0.5018814             -13.6569
        65        2.0000           -0.4933712             -13.4253
        66        2.0000           -0.4859574             -13.2236
        67        2.0000           -0.4805402             -13.0762
        68        2.0000           -0.4659429             -12.6790
        69        2.0000           -0.4514198             -12.2838
        70        2.0000           -0.4342738             -11.8172 (HOMO)
        71                         -0.3777901             -10.2802 (LUMO)
        72                         -0.3305229              -8.9940
        73                         -0.3248617              -8.8399
        74                         -0.2928804              -7.9697
        75                         -0.2584534              -7.0329
        76                         -0.2472471              -6.7279
        77                         -0.1696766              -4.6171
        78                         -0.1676531              -4.5621
        79                         -0.1644272              -4.4743
        80                         -0.1500705              -4.0836
        81                         -0.1396262              -3.7994
       ...                                ...                  ...
       144                          0.7149828              19.4557
      -------------------------------------------------------------
                  HL-Gap            0.0564838 Eh            1.5370 eV

Wiberg/Mayer (AO) data.
largest (>0.10) Wiberg bond orders for each atom

     #   Z sym  total        # sym  WBO       # sym  WBO       # sym  WBO
 ---------------------------------------------------------------------------
     1   6 C    3.864 --    29 H    0.986    27 H    0.979    28 H    0.979
                             2 O    0.890
     2   8 O    2.218 --     3 C    1.138     1 C    0.890     4 O    0.131
     3   6 C    3.849 --     4 O    1.609     2 O    1.138     5 C    1.017
     4   8 O    1.945 --     3 C    1.609     2 O    0.131
     5   6 C    3.962 --    25 C    1.475     6 N    1.186     3 C    1.017
     6   7 N    3.033 --     7 C    1.573     5 C    1.186
     7   6 C    3.936 --     6 N    1.573    21 N    1.175     8 C    0.977
     8   6 C    3.912 --    10 C    0.986     9 C    0.981     7 C    0.977
                            11 N    0.899
     9   6 C    3.984 --    32 H    0.983     8 C    0.981    30 H    0.979
                            31 H    0.977
    10   6 C    3.984 --     8 C    0.986    34 H    0.984    35 H    0.983
                            33 H    0.981
    11   7 N    3.396 --    12 C    1.303     8 C    0.899    36 H    0.889
                            13 O    0.198
    12   6 C    3.929 --    13 O    1.589    11 N    1.303    14 C    0.958
    13   8 O    1.946 --    12 C    1.589    11 N    0.198
    14   6 C    3.843 --    19 N    1.454    15 O    1.127    12 C    0.958
    15   8 O    2.370 --    14 C    1.127    16 C    1.067
    16   6 C    3.838 --    18 N    1.570    15 O    1.067    17 C    1.044
    17   6 C    3.969 --    16 C    1.044    38 H    0.977    39 H    0.951
                            37 H    0.946
    18   7 N    2.967 --    16 C    1.570    19 N    1.162
    19   7 N    3.662 --    14 C    1.454    18 N    1.162    20 C    0.908
    20   6 C    3.878 --    42 H    0.980    40 H    0.962    41 H    0.962
                            19 N    0.908
    21   7 N    3.499 --     7 C    1.175    23 C    1.101    22 C    0.930
                            24 O    0.136
    22   6 C    3.922 --    45 H    0.979    43 H    0.975    44 H    0.973
                            21 N    0.930
    23   6 C    3.911 --    24 O    1.595    21 N    1.101    25 C    1.067
    24   8 O    1.909 --    23 C    1.595    21 N    0.136
    25   6 C    3.923 --     5 C    1.475    26 O    1.130    23 C    1.067
    26   8 O    2.098 --    25 C    1.130    46 H    0.776
    27   1 H    1.006 --     1 C    0.979
    28   1 H    1.006 --     1 C    0.979
    29   1 H    1.010 --     1 C    0.986
    30   1 H    1.000 --     9 C    0.979
    31   1 H    1.006 --     9 C    0.977
    32   1 H    1.000 --     9 C    0.983
    33   1 H    1.010 --    10 C    0.981
    34   1 H    1.005 --    10 C    0.984
    35   1 H    1.002 --    10 C    0.983
    36   1 H    0.928 --    11 N    0.889
    37   1 H    0.988 --    17 C    0.946
    38   1 H    0.990 --    17 C    0.977
    39   1 H    0.988 --    17 C    0.951
    40   1 H    0.998 --    20 C    0.962
    41   1 H    0.997 --    20 C    0.962
    42   1 H    0.994 --    20 C    0.980
    43   1 H    1.001 --    22 C    0.975
    44   1 H    1.004 --    22 C    0.973
    45   1 H    1.007 --    22 C    0.979
    46   1 H    0.850 --    26 O    0.776
 ---------------------------------------------------------------------------

           -------------------------------------------------
          | TOTAL ENERGY              -86.366811942539 Eh   |
          | GRADIENT NORM               0.000554713659 Eh/α |
          | HOMO-LUMO GAP               1.537001158357 eV   |
           -------------------------------------------------

 * finished run on 2023/06/20 at 15:40:54.467
