   * xtb version 6.5.1 (579679a) compiled by 'ehlert@majestix' on 2022-07-11
          program call               : /lustre/hpc/kemi/ree/PhD/git/ReactivityQM/dep/xtb-6.5.1/bin/xtb --gfn 1 /lustre/hpc/kemi/ree/PhD/git/ReactivityQM/calculations/R02deprot/reac01/conf01/R02deprot_reac01_conf01_gfn1.xyz --opt --vfukui --chrg -1 --uhf 0 --alpb DMSO

   ID    Z sym.   atoms
    1    6 C      1, 3, 5, 7-10, 12, 14, 17, 18, 21, 23
    2    8 O      2, 4, 13, 19, 22, 24
    3    7 N      6, 11, 15, 16, 20
    4    1 H      25-38

      * Solvation model:               ALPB
        Solvent                        DMSO
        Solvent mass                       7.8130E+01 g/mol
          :  Hamiltonian                  GFN1-xTB          :
 * total energy  :   -79.5966569 Eh     change       -0.1561773E-10 Eh
 * total energy  :   -79.6072128 Eh     change       -0.1055582E-01 Eh
 * total energy  :   -79.6107446 Eh     change       -0.3531808E-02 Eh
 * total energy  :   -79.6113436 Eh     change       -0.5990109E-03 Eh
 * total energy  :   -79.6118607 Eh     change       -0.5171597E-03 Eh
 * total energy  :   -79.6121640 Eh     change       -0.3032568E-03 Eh
 * total energy  :   -79.6124545 Eh     change       -0.2904672E-03 Eh
 * total energy  :   -79.6127124 Eh     change       -0.2579297E-03 Eh
 * total energy  :   -79.6128922 Eh     change       -0.1798448E-03 Eh
 * total energy  :   -79.6130204 Eh     change       -0.1281625E-03 Eh
 * total energy  :   -79.6172036 Eh     change       -0.8500771E-05 Eh
 * total energy  :   -79.6172101 Eh     change       -0.6468967E-05 Eh
 * total energy  :   -79.6172194 Eh     change       -0.9253616E-05 Eh
 * total energy  :   -79.6172354 Eh     change       -0.1606200E-04 Eh
 * total energy  :   -79.6172511 Eh     change       -0.1565266E-04 Eh
 * total energy  :   -79.6172597 Eh     change       -0.8648602E-05 Eh
 * total energy  :   -79.6172676 Eh     change       -0.7845402E-05 Eh
 * total energy  :   -79.6172737 Eh     change       -0.6161615E-05 Eh
 * total energy  :   -79.6172775 Eh     change       -0.3756575E-05 Eh
   *** GEOMETRY OPTIMIZATION CONVERGED AFTER 107 ITERATIONS ***

 final structure:
================
38
 xtb: 6.5.1 (579679a)
C           -6.55860847229581       -0.12820042267883       -0.02786726577500
O           -5.21322978699476       -0.44920152555029       -0.36904538145399
C           -4.25825578597871        0.28202972281223        0.23180284603325
O           -4.53251017141699        1.17199609967964        1.01427542437495
C           -2.88175486843783       -0.10769941079347       -0.14610099296787
N           -1.89785043467950        0.61905392218152        0.47399815229484
C           -0.65019561386873        0.31014029471301        0.20467431016667
C            0.39987801055524        1.15029103854047        0.92452899611034
C            0.30981359424116        2.59848244302470        0.42238894799538
C            0.15430242113738        1.08136154126687        2.43746033791218
N            1.70927344303243        0.58742626582452        0.59936695004066
C            2.87157681477697        1.05257780457128        1.06078100499996
O            3.01562782232675        2.00845343705750        1.81515087872755
C            4.04869104348350        0.27908218214210        0.56960122803322
N            5.29911504527587        0.49764382196476        0.83987903365470
N            6.01804325011683       -0.45688252192314        0.17940762388930
C            5.16112960327295       -1.19693884616232       -0.45191230207246
C            5.43919274070771       -2.37046075662081       -1.30910083513563
O            3.89913665305396       -0.78560360396016       -0.24771296490325
N           -0.20748680344658       -0.63622490024815       -0.62259531139975
C           -1.11762707244978       -1.39004077696420       -1.28400301551464
O           -0.83027064428814       -2.29848967378243       -2.08720083464285
C           -2.53144819769927       -1.10357550979171       -1.01970634334573
O           -3.39943766389651       -1.88935003532996       -1.69548225815752
H           -7.19856883562319       -0.80259940094150       -0.59401151530498
H           -6.72410991154356       -0.26782671843580        1.04419375824621
H           -6.78292594349242        0.90963397327256       -0.29025269642477
H            1.00536274701741        3.23783306401323        0.96393441896056
H           -0.70557284332917        2.96262551012935        0.57592816620967
H            0.54335275247080        2.63901791901275       -0.64097541395897
H           -0.87228909172861        1.38515847780990        2.64085199493162
H            0.83537616608651        1.74220725303350        2.97124900738417
H            0.29711946970005        0.06083238032317        2.79124143597575
H            1.68639037470686       -0.20299336351987       -0.04191736345910
H            5.04117233640535       -2.20621212786401       -2.30988039332431
H            4.95851897107282       -3.25694380783288       -0.89602618818024
H            6.51225414562311       -2.53293059033076       -1.36628388429287
H           -2.84318726391284       -2.49367415862020       -2.23277655562136

          :  Hamiltonian                  GFN1-xTB          :
         :: total energy             -79.617277495097 Eh    ::
         :: gradient norm              0.000457306047 Eh/a0 ::
         :: HOMO-LUMO gap              2.039034865069 eV    ::
         :: SCC energy               -80.336656230109 Eh    ::
         :: -> Gsolv                  -0.104825190763 Eh    ::
         :: repulsion energy           0.741969171757 Eh    ::

    * Orbital Energies and Occupations

         #    Occupation            Energy/Eh            Energy/eV
      -------------------------------------------------------------
         1        2.0000           -0.8562791             -23.3005
       ...           ...                  ...                  ...
        52        2.0000           -0.4742702             -12.9055
        53        2.0000           -0.4714228             -12.8281
        54        2.0000           -0.4690006             -12.7622
        55        2.0000           -0.4530021             -12.3268
        56        2.0000           -0.4500711             -12.2471
        57        2.0000           -0.4491535             -12.2221
        58        2.0000           -0.4405150             -11.9870
        59        2.0000           -0.4371648             -11.8959
        60        2.0000           -0.4301931             -11.7062
        61        2.0000           -0.4193389             -11.4108
        62        2.0000           -0.4023910             -10.9496
        63        2.0000           -0.3754309             -10.2160
        64        2.0000           -0.3713961             -10.1062 (HOMO)
        65                         -0.2964629              -8.0672 (LUMO)
        66                         -0.2766863              -7.5290
        67                         -0.2493418              -6.7849
        68                         -0.2281855              -6.2092
        69                         -0.1902961              -5.1782
        70                         -0.1846923              -5.0257
        71                         -0.1387539              -3.7757
        72                         -0.1274285              -3.4675
        73                         -0.1085346              -2.9534
        74                         -0.1048253              -2.8524
        75                         -0.1023044              -2.7838
       ...                                ...                  ...
       124                          0.7425117              20.2048
      -------------------------------------------------------------
                  HL-Gap            0.0749332 Eh            2.0390 eV

Wiberg/Mayer (AO) data.
largest (>0.10) Wiberg bond orders for each atom

     #   Z sym  total        # sym  WBO       # sym  WBO       # sym  WBO
 ---------------------------------------------------------------------------
     1   6 C    3.888 --    25 H    0.987    26 H    0.980    27 H    0.980
                             2 O    0.913
     2   8 O    2.183 --     3 C    1.082     1 C    0.913     4 O    0.123
     3   6 C    3.837 --     4 O    1.632     2 O    1.082     5 C    1.028
     4   8 O    1.894 --     3 C    1.632     2 O    0.123
     5   6 C    3.963 --    23 C    1.481     6 N    1.198     3 C    1.028
     6   7 N    2.997 --     7 C    1.472     5 C    1.198
     7   6 C    3.958 --     6 N    1.472    20 N    1.358     8 C    0.970
     8   6 C    3.929 --    10 C    0.986     9 C    0.982     7 C    0.970
                            11 N    0.923
     9   6 C    3.993 --    30 H    0.986    29 H    0.985    28 H    0.983
                             8 C    0.982
    10   6 C    3.993 --    33 H    0.987     8 C    0.986    31 H    0.984
                            32 H    0.984
    11   7 N    3.392 --    12 C    1.310     8 C    0.923    34 H    0.870
                            13 O    0.187
    12   6 C    3.925 --    13 O    1.551    11 N    1.310    14 C    0.983
    13   8 O    1.873 --    12 C    1.551    11 N    0.187
    14   6 C    3.867 --    15 N    1.626    19 O    1.050    12 C    0.983
    15   7 N    2.994 --    14 C    1.626    16 N    1.192
    16   7 N    2.979 --    17 C    1.617    15 N    1.192
    17   6 C    3.872 --    16 N    1.617    19 O    1.074    18 C    1.030
    18   6 C    3.988 --    17 C    1.030    37 H    0.983    35 H    0.965
                            36 H    0.964
    19   8 O    2.317 --    17 C    1.074    14 C    1.050
    20   7 N    3.014 --     7 C    1.358    21 C    1.247    22 O    0.125
    21   6 C    3.930 --    22 O    1.473    20 N    1.247    23 C    1.072
    22   8 O    1.810 --    21 C    1.473    20 N    0.125
    23   6 C    3.906 --     5 C    1.481    24 O    1.072    21 C    1.072
    24   8 O    2.048 --    23 C    1.072    38 H    0.814
    25   1 H    1.013 --     1 C    0.987
    26   1 H    1.011 --     1 C    0.980
    27   1 H    1.011 --     1 C    0.980
    28   1 H    1.012 --     9 C    0.983
    29   1 H    1.013 --     9 C    0.985
    30   1 H    1.005 --     9 C    0.986
    31   1 H    1.017 --    10 C    0.984
    32   1 H    1.012 --    10 C    0.984
    33   1 H    1.005 --    10 C    0.987
    34   1 H    0.971 --    11 N    0.870
    35   1 H    0.997 --    18 C    0.965
    36   1 H    0.998 --    18 C    0.964
    37   1 H    1.000 --    18 C    0.983
    38   1 H    0.875 --    24 O    0.814
 ---------------------------------------------------------------------------

           -------------------------------------------------
          | TOTAL ENERGY              -79.617277495097 Eh   |
          | GRADIENT NORM               0.000457306047 Eh/α |
          | HOMO-LUMO GAP               2.039034865069 eV   |
           -------------------------------------------------

 * finished run on 2023/06/20 at 17:32:21.988
