   * xtb version 6.5.1 (579679a) compiled by 'ehlert@majestix' on 2022-07-11
          program call               : /lustre/hpc/kemi/ree/PhD/git/ReactivityQM/dep/xtb-6.5.1/bin/xtb --gfn 1 /lustre/hpc/kemi/ree/PhD/git/ReactivityQM/calculations/R02/reac01prodE10/conf17/R02_reac01prodE10_conf17_gfn1.xyz --opt --vfukui --chrg -1 --uhf 0 --alpb DMSO

   ID    Z sym.   atoms
    1    6 C      1, 3, 5, 7-10, 12, 14, 17-19, 22, 24
    2    8 O      2, 4, 13, 20, 23, 25
    3    7 N      6, 11, 15, 16, 21
    4    1 H      26-43

      * Solvation model:               ALPB
        Solvent                        DMSO
        Solvent mass                       7.8130E+01 g/mol
          :  Hamiltonian                  GFN1-xTB          :
 * total energy  :   -83.8098203 Eh     change       -0.1733440E-09 Eh
 * total energy  :   -83.8230749 Eh     change       -0.1325465E-01 Eh
 * total energy  :   -83.8281629 Eh     change       -0.5087993E-02 Eh
 * total energy  :   -83.8288474 Eh     change       -0.6845154E-03 Eh
 * total energy  :   -83.8293764 Eh     change       -0.5289373E-03 Eh
 * total energy  :   -83.8295064 Eh     change       -0.1300715E-03 Eh
 * total energy  :   -83.8296100 Eh     change       -0.1035368E-03 Eh
 * total energy  :   -83.8296491 Eh     change       -0.3912342E-04 Eh
 * total energy  :   -83.8296750 Eh     change       -0.2588708E-04 Eh
 * total energy  :   -83.8296889 Eh     change       -0.1396591E-04 Eh
 * total energy  :   -83.8296988 Eh     change       -0.9886349E-05 Eh
 * total energy  :   -83.8297060 Eh     change       -0.7134555E-05 Eh
 * total energy  :   -83.8297169 Eh     change       -0.1090542E-04 Eh
 * total energy  :   -83.8297249 Eh     change       -0.8052450E-05 Eh
 * total energy  :   -83.8297325 Eh     change       -0.7525224E-05 Eh
 * total energy  :   -83.8297416 Eh     change       -0.9125543E-05 Eh
 * total energy  :   -83.8297480 Eh     change       -0.6434346E-05 Eh
 * total energy  :   -83.8297526 Eh     change       -0.4608722E-05 Eh
 * total energy  :   -83.8297565 Eh     change       -0.3898247E-05 Eh
   *** GEOMETRY OPTIMIZATION CONVERGED AFTER 19 ITERATIONS ***

 final structure:
================
43
 xtb: 6.5.1 (579679a)
C           -6.02934697721849       -1.62920685903228       -1.43665105819531
O           -4.81325268102729       -0.97612873804427       -1.10311807495723
C           -4.86706646743284       -0.15823722022675       -0.00795336017282
O           -5.93064741741190       -0.02147842025892        0.62458954221397
C           -3.63335287527021        0.49180938114254        0.31727669645078
N           -2.52920576424555        0.24140971543311       -0.48368459626473
C           -1.41420987709389        0.81860631485335       -0.20285542024054
C           -0.19962945025556        0.61947285494036       -1.09217786412703
C           -0.17204059551162        1.79984978848259       -2.07886794265145
C           -0.31703749476763       -0.71528688800361       -1.84186599375859
N            0.97725078459307        0.65216973400606       -0.21946436941156
C            2.26216760036815        0.37934979771369       -0.79525156984872
O            2.51202910393932        0.58950355539218       -2.00917470931099
C            3.16766331115545       -0.06782990187295        0.16524423344319
N            2.91884992927722       -0.33228473538941        1.49803130175189
N            4.09007205134181       -0.77737659109821        1.95820760779978
C            4.20720883614499       -1.16607225980108        3.34414427758386
C            5.02666547129483       -0.81288651576919        1.03946246395529
C            6.43516366162709       -1.24606262562619        1.18883378321143
O            4.52934250230259       -0.37729321035495       -0.13093664604525
N           -1.27298755427126        1.68852581306115        0.84301768753019
C           -2.31087844530804        2.02084402924498        1.73222272748594
O           -2.07712101916536        2.81312241486479        2.65866699208159
C           -3.53715449785705        1.36953019358617        1.41814244642287
O           -4.61524536010798        1.62474702433719        2.21464609875941
H           -5.83506007347176       -2.23275808103646       -2.32283149341153
H           -6.81636423841397       -0.89909854892271       -1.65196914448797
H           -6.36184430978066       -2.27353309868923       -0.61631168908615
H           -1.12564476400311        1.85571062862631       -2.60366232728649
H            0.62531531722195        1.67531111429352       -2.80874395648710
H           -0.01256076585323        2.73057733411602       -1.53552570822104
H           -1.25633983254748       -0.74159463886727       -2.39371330272782
H           -0.30522759779379       -1.54344236903209       -1.13385669947919
H            0.51097277213997       -0.83021081431279       -2.53949099343393
H            0.83652298274684        0.08213935133259        0.60911025170729
H            3.28833615813945       -0.88362570179590        3.85251167318471
H            4.35391456077713       -2.24355660036361        3.40995453127314
H            5.05812790441973       -0.65759843708779        3.79382360246450
H            6.92548191081316       -1.20759133930344        0.21842745417071
H            6.96853036172302       -0.59556687206004        1.88382913621220
H            6.48547363758444       -2.26358419006544        1.57777609353327
H           -0.36819897502833        2.09795966279831        1.02244536401579
H           -5.37866882377221        1.10166494879064        1.86479795435482

          :  Hamiltonian                  GFN1-xTB          :
         :: total energy             -83.829756518187 Eh    ::
         :: gradient norm              0.000809214793 Eh/a0 ::
         :: HOMO-LUMO gap              0.036843046080 eV    ::
         :: SCC energy               -84.582602515276 Eh    ::
         :: -> Gsolv                  -0.125007771746 Eh    ::
         :: repulsion energy           0.778405544110 Eh    ::

    * Orbital Energies and Occupations

         #    Occupation            Energy/Eh            Energy/eV
      -------------------------------------------------------------
         1        2.0000           -0.8409898             -22.8845
       ...           ...                  ...                  ...
        56        2.0000           -0.4723012             -12.8520
        57        2.0000           -0.4662187             -12.6865
        58        2.0000           -0.4638850             -12.6230
        59        2.0000           -0.4479952             -12.1906
        60        2.0000           -0.4404912             -11.9864
        61        2.0000           -0.4367931             -11.8857
        62        2.0000           -0.4215644             -11.4714
        63        2.0000           -0.4142254             -11.2716
        64        2.0000           -0.4066368             -11.0651
        65        2.0000           -0.4031821             -10.9711
        66        2.0000           -0.3901597             -10.6168
        67        2.0000           -0.3828783             -10.4186
        68        1.3419           -0.2916405              -7.9359 (HOMO)
        69        0.6581           -0.2902866              -7.8991 (LUMO)
        70                         -0.2625372              -7.1440
        71                         -0.2369119              -6.4467
        72                         -0.1949229              -5.3041
        73                         -0.1539243              -4.1885
        74                         -0.1479554              -4.0261
        75                         -0.1394832              -3.7955
        76                         -0.1206231              -3.2823
        77                         -0.1113897              -3.0311
        78                         -0.1029748              -2.8021
        79                         -0.0996598              -2.7119
       ...                                ...                  ...
       136                          0.7052827              19.1917
      -------------------------------------------------------------
                  HL-Gap            0.0013540 Eh            0.0368 eV

Wiberg/Mayer (AO) data.
largest (>0.10) Wiberg bond orders for each atom

     #   Z sym  total        # sym  WBO       # sym  WBO       # sym  WBO
 ---------------------------------------------------------------------------
     1   6 C    3.898 --    26 H    0.987    28 H    0.980    27 H    0.980
                             2 O    0.927
     2   8 O    2.108 --     3 C    1.021     1 C    0.927
     3   6 C    3.726 --     4 O    1.470     5 C    1.167     2 O    1.021
     4   8 O    1.784 --     3 C    1.470
     5   6 C    3.822 --    24 C    1.296     3 C    1.167     6 N    1.135
     6   7 N    2.995 --     7 C    1.611     5 C    1.135
     7   6 C    3.912 --     6 N    1.611    21 N    1.152     8 C    0.977
     8   6 C    3.957 --    10 C    0.989     9 C    0.980     7 C    0.977
                            11 N    0.954
     9   6 C    3.991 --    29 H    0.988    31 H    0.986     8 C    0.980
                            30 H    0.977
    10   6 C    3.993 --     8 C    0.989    33 H    0.987    32 H    0.985
                            34 H    0.983
    11   7 N    3.084 --    12 C    0.999     8 C    0.954    35 H    0.928
    12   6 C    3.802 --    13 O    1.403    14 C    1.304    11 N    0.999
    13   8 O    1.658 --    12 C    1.403
    14   6 C    3.558 --    12 C    1.304    15 N    1.188    20 O    0.886
    15   7 N    2.680 --    14 C    1.188    16 N    1.159    18 C    0.194
    16   7 N    3.640 --    18 C    1.409    15 N    1.159    17 C    0.939
    17   6 C    3.935 --    36 H    0.983    38 H    0.980    37 H    0.977
                            16 N    0.939
    18   6 C    3.791 --    16 N    1.409    20 O    1.084    19 C    1.029
                            15 N    0.194
    19   6 C    3.987 --    18 C    1.029    39 H    0.980    41 H    0.968
                            40 H    0.964
    20   8 O    2.129 --    18 C    1.084    14 C    0.886
    21   7 N    3.329 --     7 C    1.152    22 C    1.037    42 H    0.896
    22   6 C    3.825 --    23 O    1.484    24 C    1.198    21 N    1.037
    23   8 O    1.737 --    22 C    1.484
    24   6 C    3.725 --     5 C    1.296    22 C    1.198    25 O    1.052
    25   8 O    1.978 --    24 C    1.052    43 H    0.788
    26   1 H    1.016 --     1 C    0.987
    27   1 H    1.013 --     1 C    0.980
    28   1 H    1.013 --     1 C    0.980
    29   1 H    1.007 --     9 C    0.988
    30   1 H    1.024 --     9 C    0.977
    31   1 H    1.009 --     9 C    0.986
    32   1 H    1.018 --    10 C    0.985
    33   1 H    1.007 --    10 C    0.987
    34   1 H    1.015 --    10 C    0.983
    35   1 H    0.976 --    11 N    0.928
    36   1 H    1.005 --    17 C    0.983
    37   1 H    0.999 --    17 C    0.977
    38   1 H    0.999 --    17 C    0.980
    39   1 H    0.997 --    19 C    0.980
    40   1 H    0.996 --    19 C    0.964
    41   1 H    0.996 --    19 C    0.968
    42   1 H    0.957 --    21 N    0.896
    43   1 H    0.879 --    25 O    0.788
 ---------------------------------------------------------------------------

           -------------------------------------------------
          | TOTAL ENERGY              -83.829756518187 Eh   |
          | GRADIENT NORM               0.000809214793 Eh/α |
          | HOMO-LUMO GAP               0.036843046080 eV   |
           -------------------------------------------------

 * finished run on 2023/06/20 at 15:10:40.710
