   * xtb version 6.5.1 (579679a) compiled by 'ehlert@majestix' on 2022-07-11
          program call               : /lustre/hpc/kemi/ree/PhD/git/ReactivityQM/dep/xtb-6.5.1/bin/xtb --gfn 1 /lustre/hpc/kemi/ree/PhD/git/ReactivityQM/calculations/R02methylcation/reac01prodE04/conf04/R02methylcation_reac01prodE04_conf04_gfn1.xyz --opt --vfukui --chrg -2 --uhf 0 --alpb DMSO

   ID    Z sym.   atoms
    1    6 C      1, 3, 5, 6, 8-11, 13, 15, 18, 19, 22, 24
    2    8 O      2, 4, 14, 20, 23, 25
    3    7 N      7, 12, 16, 17, 21
    4    1 H      26-42

      * Solvation model:               ALPB
        Solvent                        DMSO
        Solvent mass                       7.8130E+01 g/mol
          :  Hamiltonian                  GFN1-xTB          :
 * total energy  :   -83.5737468 Eh     change       -0.1845990E-10 Eh
 * total energy  :   -83.5951080 Eh     change       -0.2136119E-01 Eh
 * total energy  :   -83.6023125 Eh     change       -0.7204456E-02 Eh
 * total energy  :   -83.6039415 Eh     change       -0.1629008E-02 Eh
 * total energy  :   -83.6050454 Eh     change       -0.1103919E-02 Eh
 * total energy  :   -83.6055389 Eh     change       -0.4934733E-03 Eh
 * total energy  :   -83.6058527 Eh     change       -0.3138301E-03 Eh
 * total energy  :   -83.6061190 Eh     change       -0.2662868E-03 Eh
 * total energy  :   -83.6063507 Eh     change       -0.2317329E-03 Eh
 * total energy  :   -83.6065898 Eh     change       -0.2390309E-03 Eh
 * total energy  :   -83.6147505 Eh     change       -0.8862813E-05 Eh
 * total energy  :   -83.6147602 Eh     change       -0.9684331E-05 Eh
 * total energy  :   -83.6147697 Eh     change       -0.9511828E-05 Eh
 * total energy  :   -83.6147798 Eh     change       -0.1006421E-04 Eh
 * total energy  :   -83.6147916 Eh     change       -0.1177341E-04 Eh
 * total energy  :   -83.6148051 Eh     change       -0.1357750E-04 Eh
 * total energy  :   -83.6148154 Eh     change       -0.1029127E-04 Eh
 * total energy  :   -83.6148222 Eh     change       -0.6717785E-05 Eh
 * total energy  :   -83.6148268 Eh     change       -0.4647444E-05 Eh
   *** GEOMETRY OPTIMIZATION CONVERGED AFTER 82 ITERATIONS ***

 final structure:
================
42
 xtb: 6.5.1 (579679a)
C           -4.61270731501325        0.67528071151878        1.76449218557871
O           -3.55846670561581        0.35063760775494        0.86843147634983
C           -3.89760825392174        0.30384915529513       -0.44728168828460
O           -5.04457034131771        0.52476160156779       -0.81290856734293
C           -2.71486621655708        0.09557856944016       -1.37770657945714
C           -3.18718231475381       -0.56131390330030       -2.67833741383859
N           -1.69109516500368       -0.72716953247616       -0.75387465124339
C           -0.84494386769442       -0.13911959077355        0.00967557934225
C            0.11042404544227       -0.96920424630115        0.85503221951219
C           -0.45362757790286       -0.99302200138920        2.28293490895870
C            0.20801658120439       -2.40044513433220        0.31212128812928
N            1.41532111411139       -0.31198990237660        0.91357661659739
C            2.22846138019360       -0.27856357144554       -0.23496949250221
O            1.77427231945305       -0.43819467693789       -1.38429448566006
C            3.58550267416610        0.02204755489235        0.09337145749748
N            4.08093577246325        0.22527713314266        1.32070822030126
N            5.41850832236052        0.46600479001486        1.16236224011390
C            5.67624953254351        0.40092809539542       -0.10337766111954
C            6.99596100001301        0.58516014691331       -0.75741441263462
O            4.58376249043426        0.12817095753357       -0.85597557830860
N           -0.80183185272672        1.20368249942112        0.20843725442160
C           -1.37222884868286        2.13169363210444       -0.72126117063320
O           -0.93854946846051        3.32005821935136       -0.67293682007619
C           -2.31047161917313        1.57922563250408       -1.62389688728617
O           -2.86481928311849        2.20326871633816       -2.59171196627915
H           -4.19107307255566        0.68051934770719        2.76841709043956
H           -5.41024039163576       -0.07167434553378        1.70556248758521
H           -5.03397485271030        1.65907401777356        1.53329310488632
H           -2.36091574250901       -0.61337604321508       -3.38712315163662
H           -3.54581572348125       -1.57115920896296       -2.48244429914160
H           -3.99392631439541        0.02525333163299       -3.11775781817834
H           -1.46619969009989       -1.39546657808810        2.27218045254860
H           -0.48186914885002        0.01566264584766        2.69379035501163
H            0.16506495163039       -1.61676817885247        2.92600642820526
H           -0.77839958746803       -2.86261994021007        0.34089278425057
H            0.89395399689883       -2.98656283606323        0.92121322756090
H            0.55842267278391       -2.39674924829413       -0.71964135983903
H            1.92972368005093       -0.50123330820598        1.76228267983586
H            6.95432126537895        1.40011313967289       -1.48067586152724
H            7.74523222930587        0.81243856049234       -0.00322159247099
H            7.28643037501169       -0.32176770070667       -1.28836443420842
H           -0.05517904981043        1.56968388115932        0.78039483455758

          :  Hamiltonian                  GFN1-xTB          :
         :: total energy             -83.614826800472 Eh    ::
         :: gradient norm              0.000234054586 Eh/a0 ::
         :: HOMO-LUMO gap              0.034605165057 eV    ::
         :: SCC energy               -84.341349069815 Eh    ::
         :: -> Gsolv                  -0.289345771672 Eh    ::
         :: repulsion energy           0.753927607817 Eh    ::

    * Orbital Energies and Occupations

         #    Occupation            Energy/Eh            Energy/eV
      -------------------------------------------------------------
         1        2.0000           -0.8014470             -21.8085
       ...           ...                  ...                  ...
        56        2.0000           -0.4463402             -12.1455
        57        2.0000           -0.4440547             -12.0833
        58        2.0000           -0.4299230             -11.6988
        59        2.0000           -0.4246280             -11.5547
        60        2.0000           -0.4106187             -11.1735
        61        2.0000           -0.4050467             -11.0219
        62        2.0000           -0.4042534             -11.0003
        63        2.0000           -0.3979616             -10.8291
        64        2.0000           -0.3903794             -10.6228
        65        2.0000           -0.3778292             -10.2813
        66        2.0000           -0.3725506             -10.1376
        67        2.0000           -0.3448411              -9.3836
        68        1.3227           -0.2685611              -7.3079 (HOMO)
        69        0.6773           -0.2672893              -7.2733 (LUMO)
        70                         -0.2223892              -6.0515
        71                         -0.2103997              -5.7253
        72                         -0.1991519              -5.4192
        73                         -0.1402832              -3.8173
        74                         -0.1244770              -3.3872
        75                         -0.1230756              -3.3491
        76                         -0.1139954              -3.1020
        77                         -0.1065059              -2.8982
        78                         -0.0958510              -2.6082
        79                         -0.0879611              -2.3935
       ...                                ...                  ...
       134                          0.7139673              19.4280
      -------------------------------------------------------------
                  HL-Gap            0.0012717 Eh            0.0346 eV

Wiberg/Mayer (AO) data.
largest (>0.10) Wiberg bond orders for each atom

     #   Z sym  total        # sym  WBO       # sym  WBO       # sym  WBO
 ---------------------------------------------------------------------------
     1   6 C    3.898 --    26 H    0.987    27 H    0.981    28 H    0.981
                             2 O    0.922
     2   8 O    2.147 --     3 C    1.045     1 C    0.922     4 O    0.107
     3   6 C    3.775 --     4 O    1.594     2 O    1.045     5 C    0.946
     4   8 O    1.859 --     3 C    1.594     2 O    0.107
     5   6 C    3.959 --     6 C    0.991     7 N    0.981     3 C    0.946
                            24 C    0.876
     6   6 C    3.990 --     5 C    0.991    30 H    0.989    29 H    0.987
                            31 H    0.984
     7   7 N    2.936 --     8 C    1.654     5 C    0.981    21 N    0.145
     8   6 C    3.930 --     7 N    1.654    21 N    1.176     9 C    0.968
     9   6 C    3.952 --    11 C    0.991    10 C    0.986     8 C    0.968
                            12 N    0.946
    10   6 C    3.995 --    32 H    0.986     9 C    0.986    33 H    0.985
                            34 H    0.985
    11   6 C    3.993 --     9 C    0.991    36 H    0.988    35 H    0.985
                            37 H    0.980
    12   7 N    3.140 --    13 C    1.066     9 C    0.946    38 H    0.919
                            14 O    0.108
    13   6 C    3.750 --    14 O    1.463    15 C    1.153    12 N    1.066
    14   8 O    1.685 --    13 C    1.463    12 N    0.108
    15   6 C    3.692 --    16 N    1.391    13 C    1.153    20 O    0.977
    16   7 N    2.738 --    15 C    1.391    17 N    1.186
    17   7 N    2.980 --    18 C    1.627    16 N    1.186
    18   6 C    3.820 --    17 N    1.627    20 O    1.051    19 C    1.024
    19   6 C    3.994 --    18 C    1.024    40 H    0.986    39 H    0.972
                            41 H    0.971
    20   8 O    2.184 --    18 C    1.051    15 C    0.977
    21   7 N    3.327 --     8 C    1.176    22 C    0.966    42 H    0.911
                             7 N    0.145
    22   6 C    3.744 --    23 O    1.388    24 C    1.240    21 N    0.966
    23   8 O    1.599 --    22 C    1.388
    24   6 C    3.726 --    25 O    1.373    22 C    1.240     5 C    0.876
    25   8 O    1.573 --    24 C    1.373
    26   1 H    1.016 --     1 C    0.987
    27   1 H    1.014 --     1 C    0.981
    28   1 H    1.013 --     1 C    0.981
    29   1 H    1.012 --     6 C    0.987
    30   1 H    1.011 --     6 C    0.989
    31   1 H    1.027 --     6 C    0.984
    32   1 H    1.009 --    10 C    0.986
    33   1 H    1.007 --    10 C    0.985
    34   1 H    1.003 --    10 C    0.985
    35   1 H    1.018 --    11 C    0.985
    36   1 H    1.005 --    11 C    0.988
    37   1 H    1.022 --    11 C    0.980
    38   1 H    0.973 --    12 N    0.919
    39   1 H    1.001 --    19 C    0.972
    40   1 H    1.004 --    19 C    0.986
    41   1 H    1.001 --    19 C    0.971
    42   1 H    0.974 --    21 N    0.911
 ---------------------------------------------------------------------------

           -------------------------------------------------
          | TOTAL ENERGY              -83.614826800472 Eh   |
          | GRADIENT NORM               0.000234054586 Eh/α |
          | HOMO-LUMO GAP               0.034605165057 eV   |
           -------------------------------------------------

 * finished run on 2023/06/21 at 17:10:32.632
