   * xtb version 6.5.1 (579679a) compiled by 'ehlert@majestix' on 2022-07-11
          program call               : /lustre/hpc/kemi/ree/PhD/git/ReactivityQM/dep/xtb-6.5.1/bin/xtb --gfn 1 /lustre/hpc/kemi/ree/PhD/git/ReactivityQM/calculations/R03/reac02prodN16/conf02/R03_reac02prodN16_conf02_gfn1.xyz --opt --vfukui --chrg 1 --uhf 0 --alpb DMSO

   ID    Z sym.   atoms
    1    6 C      1, 2, 5, 6, 9-12, 14, 15, 18-20, 22, 25
    2    7 N      3, 4, 8, 13, 24
    3    8 O      7, 16, 17, 21, 23, 26
    4    1 H      27-46

      * Solvation model:               ALPB
        Solvent                        DMSO
        Solvent mass                       7.8130E+01 g/mol
          :  Hamiltonian                  GFN1-xTB          :
 * total energy  :   -86.2852116 Eh     change       -0.1161027E-10 Eh
 * total energy  :   -86.2983636 Eh     change       -0.1315202E-01 Eh
 * total energy  :   -86.3025438 Eh     change       -0.4180212E-02 Eh
 * total energy  :   -86.3036278 Eh     change       -0.1083925E-02 Eh
 * total energy  :   -86.3045378 Eh     change       -0.9100529E-03 Eh
 * total energy  :   -86.3052349 Eh     change       -0.6970315E-03 Eh
 * total energy  :   -86.3059090 Eh     change       -0.6741853E-03 Eh
 * total energy  :   -86.3064569 Eh     change       -0.5478793E-03 Eh
 * total energy  :   -86.3068724 Eh     change       -0.4155279E-03 Eh
 * total energy  :   -86.3071819 Eh     change       -0.3094205E-03 Eh
 * total energy  :   -86.3107931 Eh     change       -0.7141351E-05 Eh
 * total energy  :   -86.3107990 Eh     change       -0.5916751E-05 Eh
 * total energy  :   -86.3108062 Eh     change       -0.7220694E-05 Eh
 * total energy  :   -86.3108135 Eh     change       -0.7260857E-05 Eh
 * total energy  :   -86.3108220 Eh     change       -0.8526800E-05 Eh
 * total energy  :   -86.3108316 Eh     change       -0.9595028E-05 Eh
 * total energy  :   -86.3108406 Eh     change       -0.9007191E-05 Eh
 * total energy  :   -86.3108470 Eh     change       -0.6400751E-05 Eh
 * total energy  :   -86.3108499 Eh     change       -0.2829049E-05 Eh
   *** GEOMETRY OPTIMIZATION CONVERGED AFTER 68 ITERATIONS ***

 final structure:
================
46
 xtb: 6.5.1 (579679a)
C            5.34063243244415       -1.50447658979283        2.04892548684841
C            5.07325766280317       -0.69063107931687        0.84369000024704
N            5.92595387321879       -0.04896366740943        0.10746857875219
N            5.21373775995758        0.55831089551103       -0.88152062569658
C            3.96955523721169        0.24992202727892       -0.69097369658731
C            2.79268585815436        0.67060151176155       -1.48728562425956
O            2.88484619601626        1.39694874332928       -2.45799009750399
N            1.64086210228468        0.12242007388863       -1.01580554642039
C            0.31447474033592        0.54701405337374       -1.47472109517892
C            0.17212193197681        0.44574082249818       -3.00093652132448
C            0.09809821988429        2.00044781654301       -1.03341701283209
C           -0.72037773228793       -0.35413606857300       -0.81276525467106
N           -1.65852992171676        0.24761961624288       -0.15056391153075
C           -2.68898128226899       -0.45100432574820        0.42262711668389
C           -3.70747942768283        0.27505970559689        1.13644768748263
O           -4.75913751659032       -0.05418800263409        1.56120258203945
O           -3.34683220431311        1.73632553780419        1.31438921122700
C           -4.50597012951465        2.54773220371588        1.66279129052687
C           -2.19324516460659        1.98016614345480        2.17148670675719
C           -2.75914166088992       -1.81882874486015        0.27949070753947
O           -3.71862840151461       -2.56865652809795        0.78079899141769
C           -1.70027820236468       -2.51659434181917       -0.45235273649404
O           -1.71845292420986       -3.72851419485576       -0.58834431915907
N           -0.69665970341269       -1.71754464776790       -0.96141415391303
C            0.35152894007647       -2.48170762510572       -1.64989483264238
O            3.81592143583637       -0.54340800843662        0.39246198368251
H            6.40664946414041       -1.50544075348137        2.26484264277232
H            4.79343238619342       -1.09551132304062        2.89800391482604
H            4.99651538083631       -2.52621176094850        1.89048990159148
H            1.67798877924865       -0.29314966646304       -0.09948312582291
H            0.51069151042522       -0.51889458249751       -3.36977772875289
H            0.75759806625437        1.22817223562343       -3.48041266095949
H           -0.87592312867163        0.57844502497100       -3.26549028571995
H            0.84526870771448        2.63578844140158       -1.50710611489931
H            0.19675064381166        2.08021055971563        0.04697508395373
H           -0.89546558697145        2.33533668944309       -1.32420820198601
H           -4.85046703158368        2.28369409395674        2.66247667428126
H           -5.26941830668030        2.34153332691470        0.91620795153644
H           -4.18145131051305        3.58354238068644        1.61470079191388
H           -1.98005046362939        3.04428201802766        2.10705686857520
H           -1.37086059303756        1.40007930072164        1.76314346306514
H           -2.42743362778059        1.68327219903112        3.19345777193819
H           -3.54207766888954       -3.51060719940501        0.57984009961136
H           -0.03219051680061       -2.81542621454391       -2.61402544491973
H            1.24050037828683       -1.87643270422371       -1.77819397295255
H            0.57997979885110       -3.35233839246560       -1.03539154305055

          :  Hamiltonian                  GFN1-xTB          :
         :: total energy             -86.310849856295 Eh    ::
         :: gradient norm              0.000335937256 Eh/a0 ::
         :: HOMO-LUMO gap              2.065877411872 eV    ::
         :: SCC energy               -87.151550142637 Eh    ::
         :: -> Gsolv                  -0.121919217534 Eh    ::
         :: repulsion energy           0.870510335514 Eh    ::

    * Orbital Energies and Occupations

         #    Occupation            Energy/Eh            Energy/eV
      -------------------------------------------------------------
         1        2.0000           -0.9271580             -25.2293
       ...           ...                  ...                  ...
        58        2.0000           -0.5269350             -14.3386
        59        2.0000           -0.5188666             -14.1191
        60        2.0000           -0.5129161             -13.9572
        61        2.0000           -0.5093634             -13.8605
        62        2.0000           -0.5023064             -13.6685
        63        2.0000           -0.4911881             -13.3659
        64        2.0000           -0.4841911             -13.1755
        65        2.0000           -0.4808549             -13.0847
        66        2.0000           -0.4729878             -12.8707
        67        2.0000           -0.4663176             -12.6891
        68        2.0000           -0.4604687             -12.5300
        69        2.0000           -0.4569546             -12.4344
        70        2.0000           -0.4534477             -12.3389 (HOMO)
        71                         -0.3775281             -10.2731 (LUMO)
        72                         -0.3183551              -8.6629
        73                         -0.3161449              -8.6027
        74                         -0.2876225              -7.8266
        75                         -0.2602909              -7.0829
        76                         -0.2057067              -5.5976
        77                         -0.1975673              -5.3761
        78                         -0.1796887              -4.8896
        79                         -0.1723404              -4.6896
        80                         -0.1500493              -4.0831
        81                         -0.1436119              -3.9079
       ...                                ...                  ...
       144                          0.7617964              20.7295
      -------------------------------------------------------------
                  HL-Gap            0.0759196 Eh            2.0659 eV

Wiberg/Mayer (AO) data.
largest (>0.10) Wiberg bond orders for each atom

     #   Z sym  total        # sym  WBO       # sym  WBO       # sym  WBO
 ---------------------------------------------------------------------------
     1   6 C    3.985 --     2 C    1.032    27 H    0.982    28 H    0.962
                            29 H    0.962
     2   6 C    3.866 --     3 N    1.609    26 O    1.071     1 C    1.032
     3   7 N    2.983 --     2 C    1.609     4 N    1.201
     4   7 N    3.002 --     5 C    1.621     3 N    1.201
     5   6 C    3.874 --     4 N    1.621    26 O    1.045     6 C    0.997
     6   6 C    3.912 --     7 O    1.609     8 N    1.218     5 C    0.997
     7   8 O    1.921 --     6 C    1.609     8 N    0.166
     8   7 N    3.325 --     6 C    1.218     9 C    0.926    30 H    0.894
                             7 O    0.166
     9   6 C    3.934 --    11 C    0.990    10 C    0.980    12 C    0.976
                             8 N    0.926
    10   6 C    3.985 --    33 H    0.985    31 H    0.981     9 C    0.980
                            32 H    0.975
    11   6 C    3.988 --     9 C    0.990    36 H    0.984    35 H    0.983
                            34 H    0.980
    12   6 C    3.921 --    13 N    1.568    24 N    1.175     9 C    0.976
    13   7 N    3.035 --    12 C    1.568    14 C    1.163
    14   6 C    3.958 --    20 C    1.415    13 N    1.163    15 C    1.111
    15   6 C    3.803 --    16 O    1.819    14 C    1.111    17 O    0.732
    16   8 O    2.092 --    15 C    1.819
    17   8 O    2.486 --    18 C    0.819    19 C    0.812    15 C    0.732
    18   6 C    3.789 --    37 H    0.979    39 H    0.977    38 H    0.976
                            17 O    0.819
    19   6 C    3.786 --    42 H    0.981    40 H    0.976    41 H    0.968
                            17 O    0.812
    20   6 C    3.914 --    14 C    1.415    21 O    1.172    22 C    1.043
    21   8 O    2.145 --    20 C    1.172    43 H    0.783
    22   6 C    3.918 --    23 O    1.592    24 N    1.142    20 C    1.043
    23   8 O    1.937 --    22 C    1.592    24 N    0.142
    24   7 N    3.524 --    12 C    1.175    22 C    1.142    25 C    0.916
                            23 O    0.142
    25   6 C    3.904 --    45 H    0.975    44 H    0.972    46 H    0.972
                            24 N    0.916
    26   8 O    2.315 --     2 C    1.071     5 C    1.045
    27   1 H    0.998 --     1 C    0.982
    28   1 H    0.996 --     1 C    0.962
    29   1 H    0.996 --     1 C    0.962
    30   1 H    0.937 --     8 N    0.894
    31   1 H    1.000 --    10 C    0.981
    32   1 H    1.010 --    10 C    0.975
    33   1 H    1.000 --    10 C    0.985
    34   1 H    1.003 --    11 C    0.980
    35   1 H    1.006 --    11 C    0.983
    36   1 H    1.007 --    11 C    0.984
    37   1 H    0.996 --    18 C    0.979
    38   1 H    0.996 --    18 C    0.976
    39   1 H    0.994 --    18 C    0.977
    40   1 H    0.994 --    19 C    0.976
    41   1 H    1.016 --    19 C    0.968
    42   1 H    0.991 --    19 C    0.981
    43   1 H    0.823 --    21 O    0.783
    44   1 H    0.998 --    25 C    0.972
    45   1 H    1.008 --    25 C    0.975
    46   1 H    1.000 --    25 C    0.972
 ---------------------------------------------------------------------------

           -------------------------------------------------
          | TOTAL ENERGY              -86.310849856295 Eh   |
          | GRADIENT NORM               0.000335937256 Eh/α |
          | HOMO-LUMO GAP               2.065877411872 eV   |
           -------------------------------------------------

 * finished run on 2023/06/20 at 15:52:54.501
