   * xtb version 6.5.1 (579679a) compiled by 'ehlert@majestix' on 2022-07-11
          program call               : /lustre/hpc/kemi/ree/PhD/git/ReactivityQM/dep/xtb-6.5.1/bin/xtb --gfn 1 /lustre/hpc/kemi/ree/PhD/git/ReactivityQM/calculations/R03/reac01prodN02/conf08/R03_reac01prodN02_conf08_gfn1.xyz --opt --vfukui --chrg 1 --uhf 0 --alpb DMSO

   ID    Z sym.   atoms
    1    6 C      1-3, 5-7, 9, 10
    2    7 N      4
    3    9 F      8
    4    1 H      11-21

      * Solvation model:               ALPB
        Solvent                        DMSO
        Solvent mass                       7.8130E+01 g/mol
          :  Hamiltonian                  GFN1-xTB          :
 * total energy  :   -30.7613698 Eh     change       -0.6472689E-10 Eh
 * total energy  :   -30.7668131 Eh     change       -0.5443261E-02 Eh
 * total energy  :   -30.7692199 Eh     change       -0.2406848E-02 Eh
 * total energy  :   -30.7697977 Eh     change       -0.5778288E-03 Eh
 * total energy  :   -30.7711354 Eh     change       -0.1337690E-02 Eh
 * total energy  :   -30.7721716 Eh     change       -0.1036196E-02 Eh
 * total energy  :   -30.7729438 Eh     change       -0.7721654E-03 Eh
 * total energy  :   -30.7740494 Eh     change       -0.1105641E-02 Eh
 * total energy  :   -30.7744206 Eh     change       -0.3712169E-03 Eh
 * total energy  :   -30.7749355 Eh     change       -0.5148420E-03 Eh
 * total energy  :   -30.7784928 Eh     change       -0.3611914E-03 Eh
 * total energy  :   -30.7786202 Eh     change       -0.1274041E-03 Eh
 * total energy  :   -30.7787023 Eh     change       -0.8211115E-04 Eh
 * total energy  :   -30.7787357 Eh     change       -0.3341108E-04 Eh
 * total energy  :   -30.7787644 Eh     change       -0.2867755E-04 Eh
 * total energy  :   -30.7787924 Eh     change       -0.2803817E-04 Eh
 * total energy  :   -30.7788006 Eh     change       -0.8170398E-05 Eh
 * total energy  :   -30.7788117 Eh     change       -0.1113217E-04 Eh
 * total energy  :   -30.7788150 Eh     change       -0.3245827E-05 Eh
   *** GEOMETRY OPTIMIZATION CONVERGED AFTER 26 ITERATIONS ***

 final structure:
================
21
 xtb: 6.5.1 (579679a)
C           -0.45047610316158       -1.96600582470208       -0.04530230523514
C            0.08410434923467       -0.54424496970684       -0.09427815323076
C           -1.48871104219192        0.46714106285460       -0.27297581950851
N           -2.38386096705333        0.12426371454181        0.66736917303713
C            0.58096771090323        0.01870009755985        1.12981411942938
C            1.49428364904666        1.04461106613014        1.13036507766159
C            2.01512199241018        1.47088296425041       -0.08971484694184
F            2.90079404474039        2.44875531648967       -0.09174523864338
C            1.66281675503092        0.88744180323023       -1.30535356231271
C            0.75106997229771       -0.13989339785162       -1.30072252295646
H           -1.08276899943509       -2.10510039861626        0.82897402055210
H           -1.01873286005443       -2.19814927250774       -0.94400095510272
H            0.39214774986319       -2.65449256280699        0.02261444104347
H           -1.77040237116498        0.16825063843454       -1.27639074807489
H           -1.10175138696099        1.47655461126078       -0.19392424140807
H           -2.91552826628977       -0.72149550539490        0.56440986387863
H           -2.28817807805559        0.47422653836323        1.60423021825241
H            0.17218775329797       -0.34586341794790        2.06414157069271
H            1.83295193438186        1.50067460996376        2.05183815130431
H            2.13258329652430        1.22421588669589       -2.22086320981695
H            0.48138186663642       -0.63047496024060       -2.22848703262044

          :  Hamiltonian                  GFN1-xTB          :
         :: total energy             -30.778814971857 Eh    ::
         :: gradient norm              0.000529922914 Eh/a0 ::
         :: HOMO-LUMO gap              2.375094960845 eV    ::
         :: SCC energy               -31.190496371594 Eh    ::
         :: -> Gsolv                  -0.089272449158 Eh    ::
         :: repulsion energy           0.422457626542 Eh    ::

    * Orbital Energies and Occupations

         #    Occupation            Energy/Eh            Energy/eV
      -------------------------------------------------------------
         1        2.0000           -0.9124470             -24.8289
       ...           ...                  ...                  ...
        15        2.0000           -0.5995289             -16.3140
        16        2.0000           -0.5867940             -15.9675
        17        2.0000           -0.5798890             -15.7796
        18        2.0000           -0.5774168             -15.7123
        19        2.0000           -0.5718945             -15.5620
        20        2.0000           -0.5566484             -15.1472
        21        2.0000           -0.5390115             -14.6672
        22        2.0000           -0.5383755             -14.6499
        23        2.0000           -0.5289999             -14.3948
        24        2.0000           -0.5276918             -14.3592
        25        2.0000           -0.5116259             -13.9221
        26        2.0000           -0.4964826             -13.5100
        27        2.0000           -0.4698661             -12.7857 (HOMO)
        28                         -0.3825830             -10.4106 (LUMO)
        29                         -0.3149872              -8.5712
        30                         -0.2477148              -6.7407
        31                         -0.1726179              -4.6972
        32                         -0.1615575              -4.3962
        33                         -0.1530908              -4.1658
        34                         -0.1426637              -3.8821
        35                         -0.1279835              -3.4826
        36                         -0.1264949              -3.4421
        37                         -0.1209098              -3.2901
        38                         -0.1097827              -2.9873
       ...                                ...                  ...
        62                          0.5783567              15.7379
      -------------------------------------------------------------
                  HL-Gap            0.0872831 Eh            2.3751 eV

Wiberg/Mayer (AO) data.
largest (>0.10) Wiberg bond orders for each atom

     #   Z sym  total        # sym  WBO       # sym  WBO       # sym  WBO
 ---------------------------------------------------------------------------
     1   6 C    3.984 --     2 C    0.993    12 H    0.982    11 H    0.980
                            13 H    0.970
     2   6 C    3.978 --     5 C    1.204    10 C    1.203     1 C    0.993
                             3 C    0.462
     3   6 C    3.921 --     4 N    1.338    15 H    0.976    14 H    0.970
                             2 C    0.462
     4   7 N    3.362 --     3 C    1.338    17 H    0.896    16 H    0.895
     5   6 C    3.977 --     6 C    1.531     2 C    1.204    18 H    0.966
     6   6 C    3.987 --     5 C    1.531     7 C    1.338    19 H    0.961
     7   6 C    3.861 --     6 C    1.338     9 C    1.337     8 F    0.987
     8   9 F    1.130 --     7 C    0.987
     9   6 C    3.987 --    10 C    1.533     7 C    1.337    20 H    0.961
    10   6 C    3.977 --     9 C    1.533     2 C    1.203    21 H    0.966
    11   1 H    0.999 --     1 C    0.980
    12   1 H    0.995 --     1 C    0.982
    13   1 H    0.997 --     1 C    0.970
    14   1 H    0.999 --     3 C    0.970
    15   1 H    1.002 --     3 C    0.976
    16   1 H    0.921 --     4 N    0.895
    17   1 H    0.921 --     4 N    0.896
    18   1 H    0.994 --     5 C    0.966
    19   1 H    0.990 --     6 C    0.961
    20   1 H    0.990 --     9 C    0.961
    21   1 H    0.992 --    10 C    0.966
 ---------------------------------------------------------------------------

           -------------------------------------------------
          | TOTAL ENERGY              -30.778814971857 Eh   |
          | GRADIENT NORM               0.000529922914 Eh/α |
          | HOMO-LUMO GAP               2.375094960845 eV   |
           -------------------------------------------------

 * finished run on 2023/06/20 at 15:14:11.912
