   * xtb version 6.5.1 (579679a) compiled by 'ehlert@majestix' on 2022-07-11
          program call               : /lustre/hpc/kemi/ree/PhD/git/ReactivityQM/dep/xtb-6.5.1/bin/xtb --gfn 1 /lustre/hpc/kemi/ree/PhD/git/ReactivityQM/calculations/R02deprot/reac01prodE13/conf02/R02deprot_reac01prodE13_conf02_gfn1.xyz --opt --vfukui --chrg -2 --uhf 0 --alpb DMSO

   ID    Z sym.   atoms
    1    6 C      1, 3, 5, 6, 8, 10, 12-15, 17, 19, 22, 23
    2    8 O      2, 4, 7, 9, 18, 24
    3    7 N      11, 16, 20, 21, 25
    4    1 H      26-42

      * Solvation model:               ALPB
        Solvent                        DMSO
        Solvent mass                       7.8130E+01 g/mol
          :  Hamiltonian                  GFN1-xTB          :
 * total energy  :   -83.5742960 Eh     change       -0.3632294E-10 Eh
 * total energy  :   -83.5867291 Eh     change       -0.1243310E-01 Eh
 * total energy  :   -83.5907144 Eh     change       -0.3985272E-02 Eh
 * total energy  :   -83.5912695 Eh     change       -0.5550736E-03 Eh
 * total energy  :   -83.5918086 Eh     change       -0.5391465E-03 Eh
 * total energy  :   -83.5920261 Eh     change       -0.2174465E-03 Eh
 * total energy  :   -83.5922264 Eh     change       -0.2003952E-03 Eh
 * total energy  :   -83.5923756 Eh     change       -0.1491154E-03 Eh
 * total energy  :   -83.5924822 Eh     change       -0.1066319E-03 Eh
 * total energy  :   -83.5925689 Eh     change       -0.8666904E-04 Eh
 * total energy  :   -83.5944654 Eh     change       -0.1124780E-04 Eh
 * total energy  :   -83.5944765 Eh     change       -0.1109858E-04 Eh
 * total energy  :   -83.5944890 Eh     change       -0.1242770E-04 Eh
 * total energy  :   -83.5945033 Eh     change       -0.1432792E-04 Eh
 * total energy  :   -83.5945155 Eh     change       -0.1218189E-04 Eh
 * total energy  :   -83.5945241 Eh     change       -0.8623608E-05 Eh
 * total energy  :   -83.5945304 Eh     change       -0.6267774E-05 Eh
 * total energy  :   -83.5945359 Eh     change       -0.5481777E-05 Eh
 * total energy  :   -83.5945408 Eh     change       -0.4980759E-05 Eh
   *** GEOMETRY OPTIMIZATION CONVERGED AFTER 56 ITERATIONS ***

 final structure:
================
42
 xtb: 6.5.1 (579679a)
C           -5.39281001577297        2.64766280489153       -0.18031646378685
O           -4.14581436482253        2.01109182876915       -0.35654962752119
C           -3.92424537854680        0.91268396037663        0.48988608679195
O           -4.84029170319122        0.58703851303682        1.31394575036856
C           -2.69547788650809        0.26864193772822        0.34462319511045
C           -2.36111063806870       -0.86955817180239        1.17214483396521
O           -3.28641435104840       -1.30062847381305        2.09311239427060
C           -1.14156314107015       -1.46253229212390        0.99732853440605
O           -0.64517799615080       -2.55976952186759        1.69163737229385
C           -1.50567964820200       -3.33464035213742        2.49773427476692
N           -0.23859663838734       -0.99897074292948        0.07900507395126
C           -0.62013278809232        0.06060232090683       -0.64920734095644
C            0.40806981323447        0.51592522284796       -1.68693967768575
C            0.40014906718554       -0.51464101622814       -2.83341387110775
C            0.06128535282475        1.91356926910351       -2.21096627662839
N            1.70637131815655        0.53417143647414       -1.01249535698794
C            2.89702841822385        0.73510146550032       -1.69743821575277
O            2.94618784440248        1.20780891493541       -2.86047510409435
C            4.06696705969536        0.42672437973313       -0.93528115145673
N            5.34813804348534        0.53568793279197       -1.31511596997512
N            6.10372508264092        0.11481929730217       -0.25564141081993
C            5.29389804643669       -0.22367249096914        0.69368142994798
C            5.65635363151060       -0.73504136770492        2.03977953316596
O            3.98715600703829       -0.06371656558973        0.36143975550146
N           -1.75579508455929        0.70649601955028       -0.59120102188127
H           -5.44149128012071        3.47464558459093       -0.89147908892197
H           -5.50152236866702        3.04287383804329        0.83798827383753
H           -6.22588280530907        1.95927330727180       -0.37220018895494
H           -4.07447881986449       -0.67642449853072        1.98623198445433
H           -1.82528794979298       -2.79412586722036        3.39732072768527
H           -0.93546824435971       -4.21557663443724        2.80622523704726
H           -2.39504906225839       -3.66796353827102        1.94875416004045
H            0.65803551938979       -1.49895581920466       -2.44096927567700
H            1.11298417424519       -0.24166377946304       -3.61100632697370
H           -0.59660069559716       -0.56300987035262       -3.27216649669046
H            0.75098267182861        2.21752747517100       -2.99735506411618
H           -0.95328289880526        1.91018301581987       -2.60996315003734
H            0.10952508170993        2.63696719707274       -1.39603408129657
H            1.75406282308192       -0.10665029501739       -0.22481464923898
H            5.26911415071715       -0.07414901756414        2.81612554747796
H            6.73887207622001       -0.79042016736954        2.12550240505768
H            5.23326757718821       -1.72738623933599        2.20021624042326

          :  Hamiltonian                  GFN1-xTB          :
         :: total energy             -83.594540832213 Eh    ::
         :: gradient norm              0.000356602182 Eh/a0 ::
         :: HOMO-LUMO gap              0.032399032642 eV    ::
         :: SCC energy               -84.310327722911 Eh    ::
         :: -> Gsolv                  -0.256901656777 Eh    ::
         :: repulsion energy           0.740462073976 Eh    ::

    * Orbital Energies and Occupations

         #    Occupation            Energy/Eh            Energy/eV
      -------------------------------------------------------------
         1        2.0000           -0.7961023             -21.6630
       ...           ...                  ...                  ...
        56        2.0000           -0.4352469             -11.8437
        57        2.0000           -0.4301867             -11.7060
        58        2.0000           -0.4228722             -11.5069
        59        2.0000           -0.4011193             -10.9150
        60        2.0000           -0.3967802             -10.7969
        61        2.0000           -0.3942245             -10.7274
        62        2.0000           -0.3910682             -10.6415
        63        2.0000           -0.3858656             -10.4999
        64        2.0000           -0.3811449             -10.3715
        65        2.0000           -0.3755768             -10.2200
        66        2.0000           -0.3581074              -9.7446
        67        2.0000           -0.3461748              -9.4199
        68        1.3034           -0.2605222              -7.0892 (HOMO)
        69        0.6966           -0.2593316              -7.0568 (LUMO)
        70                         -0.2058015              -5.6001
        71                         -0.1933038              -5.2601
        72                         -0.1575029              -4.2859
        73                         -0.1329526              -3.6178
        74                         -0.1231405              -3.3508
        75                         -0.1055901              -2.8733
        76                         -0.1048311              -2.8526
        77                         -0.0896849              -2.4405
        78                         -0.0844820              -2.2989
        79                         -0.0716128              -1.9487
       ...                                ...                  ...
       134                          0.6906439              18.7934
      -------------------------------------------------------------
                  HL-Gap            0.0011906 Eh            0.0324 eV

Wiberg/Mayer (AO) data.
largest (>0.10) Wiberg bond orders for each atom

     #   Z sym  total        # sym  WBO       # sym  WBO       # sym  WBO
 ---------------------------------------------------------------------------
     1   6 C    3.919 --    26 H    0.987    27 H    0.980    28 H    0.980
                             2 O    0.952
     2   8 O    2.044 --     1 C    0.952     3 C    0.939
     3   6 C    3.707 --     4 O    1.337     5 C    1.327     2 O    0.939
     4   8 O    1.708 --     3 C    1.337    29 H    0.125
     5   6 C    3.800 --     3 C    1.327     6 C    1.144    25 N    1.117
     6   6 C    3.823 --     8 C    1.482     5 C    1.144     7 O    1.024
     7   8 O    1.961 --     6 C    1.024    29 H    0.748
     8   6 C    3.801 --     6 C    1.482    11 N    1.186     9 O    0.959
     9   8 O    2.061 --     8 C    0.959    10 C    0.946
    10   6 C    3.915 --    31 H    0.985    32 H    0.981    30 H    0.980
                             9 O    0.946
    11   7 N    2.796 --    12 C    1.326     8 C    1.186
    12   6 C    3.956 --    25 N    1.508    11 N    1.326    13 C    0.966
    13   6 C    3.946 --    15 C    0.998    14 C    0.978    12 C    0.966
                            16 N    0.941
    14   6 C    3.992 --    35 H    0.988    33 H    0.986    34 H    0.983
                            13 C    0.978
    15   6 C    3.995 --    13 C    0.998    38 H    0.987    37 H    0.986
                            36 H    0.984
    16   7 N    3.167 --    17 C    1.118    13 C    0.941    39 H    0.906
                            18 O    0.115
    17   6 C    3.764 --    18 O    1.420    19 C    1.156    16 N    1.118
    18   8 O    1.668 --    17 C    1.420    16 N    0.115
    19   6 C    3.672 --    20 N    1.387    17 C    1.156    24 O    0.962
    20   7 N    2.716 --    19 C    1.387    21 N    1.190
    21   7 N    2.981 --    22 C    1.627    20 N    1.190
    22   6 C    3.810 --    21 N    1.627    24 O    1.039    23 C    1.023
    23   6 C    3.994 --    22 C    1.023    41 H    0.986    40 H    0.972
                            42 H    0.972
    24   8 O    2.168 --    22 C    1.039    19 C    0.962
    25   7 N    2.875 --    12 C    1.508     5 C    1.117
    26   1 H    1.020 --     1 C    0.987
    27   1 H    1.019 --     1 C    0.980
    28   1 H    1.020 --     1 C    0.980
    29   1 H    0.887 --     7 O    0.748     4 O    0.125
    30   1 H    1.023 --    10 C    0.980
    31   1 H    1.020 --    10 C    0.985
    32   1 H    1.018 --    10 C    0.981
    33   1 H    1.016 --    14 C    0.986
    34   1 H    1.018 --    14 C    0.983
    35   1 H    1.009 --    14 C    0.988
    36   1 H    1.024 --    15 C    0.984
    37   1 H    1.026 --    15 C    0.986
    38   1 H    1.016 --    15 C    0.987
    39   1 H    0.987 --    16 N    0.906
    40   1 H    1.001 --    23 C    0.972
    41   1 H    1.005 --    23 C    0.986
    42   1 H    1.001 --    23 C    0.972
 ---------------------------------------------------------------------------

           -------------------------------------------------
          | TOTAL ENERGY              -83.594540832213 Eh   |
          | GRADIENT NORM               0.000356602182 Eh/α |
          | HOMO-LUMO GAP               0.032399032642 eV   |
           -------------------------------------------------

 * finished run on 2023/06/20 at 18:01:03.641
