   * xtb version 6.5.1 (579679a) compiled by 'ehlert@majestix' on 2022-07-11
          program call               : /lustre/hpc/kemi/ree/PhD/git/ReactivityQM/dep/xtb-6.5.1/bin/xtb --gfn 1 /lustre/hpc/kemi/ree/PhD/git/ReactivityQM/calculations/R02deprot/reac01prodN19/conf15/R02deprot_reac01prodN19_conf15_gfn1.xyz --opt --vfukui --chrg 0 --uhf 0 --alpb DMSO

   ID    Z sym.   atoms
    1    6 C      1, 3, 5, 7-10, 12, 14, 17, 18, 21, 23, 24
    2    8 O      2, 4, 13, 19, 22, 25
    3    7 N      6, 11, 15, 16, 20
    4    1 H      26-42

      * Solvation model:               ALPB
        Solvent                        DMSO
        Solvent mass                       7.8130E+01 g/mol
          :  Hamiltonian                  GFN1-xTB          :
 * total energy  :   -82.9895280 Eh     change       -0.6551204E-11 Eh
 * total energy  :   -83.0034832 Eh     change       -0.1395520E-01 Eh
 * total energy  :   -83.0084183 Eh     change       -0.4935050E-02 Eh
 * total energy  :   -83.0094646 Eh     change       -0.1046354E-02 Eh
 * total energy  :   -83.0102493 Eh     change       -0.7846239E-03 Eh
 * total energy  :   -83.0106414 Eh     change       -0.3921351E-03 Eh
 * total energy  :   -83.0109629 Eh     change       -0.3214799E-03 Eh
 * total energy  :   -83.0112297 Eh     change       -0.2668419E-03 Eh
 * total energy  :   -83.0114015 Eh     change       -0.1717494E-03 Eh
 * total energy  :   -83.0114990 Eh     change       -0.9750546E-04 Eh
 * total energy  :   -83.0125985 Eh     change       -0.1018396E-04 Eh
 * total energy  :   -83.0126079 Eh     change       -0.9372226E-05 Eh
 * total energy  :   -83.0126188 Eh     change       -0.1094093E-04 Eh
 * total energy  :   -83.0126316 Eh     change       -0.1274478E-04 Eh
 * total energy  :   -83.0126443 Eh     change       -0.1267784E-04 Eh
 * total energy  :   -83.0126543 Eh     change       -0.1000662E-04 Eh
 * total energy  :   -83.0126635 Eh     change       -0.9236515E-05 Eh
 * total energy  :   -83.0126724 Eh     change       -0.8860622E-05 Eh
 * total energy  :   -83.0126763 Eh     change       -0.3883320E-05 Eh
   *** GEOMETRY OPTIMIZATION CONVERGED AFTER 44 ITERATIONS ***

 final structure:
================
42
 xtb: 6.5.1 (579679a)
C           -5.53163867312919       -2.28240383485202       -0.42876042274620
O           -4.23973419989800       -1.70997673947755       -0.19515903454407
C           -4.06700123796156       -0.45842348088228       -0.58790041279894
O           -4.94480709156749        0.20237923239328       -1.11507879531427
C           -2.70088857418310        0.06685460239376       -0.33692537254549
N           -1.81498983486244       -0.74702905432423        0.26440284135385
C           -0.59650425350700       -0.29213352939534        0.45786880449907
C            0.39418146942765       -1.18704674836644        1.17558023361230
C            0.14077803488128       -2.65682308128907        0.82672439095658
C            0.24312334126901       -0.94113569079682        2.68628494211373
N            1.73063984248178       -0.78390464521176        0.73775033624445
C            2.86585652853447       -1.34752222392458        1.18004244513258
O            2.93851093393208       -2.26180958881668        1.98812820430134
C            4.08302771232294       -0.75199414112427        0.56487743927766
N            5.31930345529655       -1.07563685743413        0.78580277737965
N            6.08426273629218       -0.28107855108650       -0.01688604240898
C            5.26739505330735        0.47722741921256       -0.67849779470180
C            5.60047429692537        1.50656363545224       -1.68719626813881
O            3.98632975982455        0.23171516089067       -0.35627286135258
N           -0.17658086004207        0.93139492574729        0.11697269704482
C           -1.02042738174391        1.76923713379262       -0.46080305679201
O           -0.49683443188430        2.96584922788554       -0.74167465847236
C           -1.24562517035537        4.03498728229203       -1.31572954830323
C           -2.35661097053565        1.35841292350833       -0.72676601988052
O           -3.21944793770202        2.18879384416156       -1.32884828984121
H           -6.29799499130331       -1.69400328771872        0.08005370332638
H           -5.49998037166733       -3.29431378023307       -0.03031814692982
H           -5.74121382694385       -2.30019422123873       -1.50042366045479
H           -0.89118638115138       -2.90739476327443        1.06726459893416
H            0.80755054416889       -3.30314813001369        1.39466254962918
H            0.30364987466533       -2.81913292845455       -0.23770496954926
H           -0.77549562156133       -1.17812566825079        2.98921467252779
H            0.93675704123311       -1.57015009780284        3.24177839606882
H            0.44672110373916        0.10479261389082        2.91121256333164
H            1.77562896214730        0.00653590986307        0.10878284838481
H            5.09575833504207        1.28211912801740       -2.62646322683618
H            5.26093559517219        2.48522215315361       -1.34861658884299
H            6.67578919827370        1.52960122344012       -1.84605207721311
H           -1.59873422988070        3.77498880637590       -2.31594389062071
H           -2.09311329696132        4.30511789077008       -0.68185450819885
H           -0.55404275566727        4.87603362125535       -1.37982700041033
H           -4.09381972642633        1.74555430947467       -1.44631179721913

          :  Hamiltonian                  GFN1-xTB          :
         :: total energy             -83.012676255949 Eh    ::
         :: gradient norm              0.000304521250 Eh/a0 ::
         :: HOMO-LUMO gap              2.778696408591 eV    ::
         :: SCC energy               -83.785546757147 Eh    ::
         :: -> Gsolv                  -0.049519305156 Eh    ::
         :: repulsion energy           0.797563555787 Eh    ::

    * Orbital Energies and Occupations

         #    Occupation            Energy/Eh            Energy/eV
      -------------------------------------------------------------
         1        2.0000           -0.8643928             -23.5213
       ...           ...                  ...                  ...
        55        2.0000           -0.5004181             -13.6171
        56        2.0000           -0.4999351             -13.6039
        57        2.0000           -0.4969571             -13.5229
        58        2.0000           -0.4831717             -13.1478
        59        2.0000           -0.4789886             -13.0339
        60        2.0000           -0.4721787             -12.8486
        61        2.0000           -0.4696735             -12.7805
        62        2.0000           -0.4604362             -12.5291
        63        2.0000           -0.4579175             -12.4606
        64        2.0000           -0.4495134             -12.2319
        65        2.0000           -0.4445205             -12.0960
        66        2.0000           -0.4318254             -11.7506
        67        2.0000           -0.4277229             -11.6389 (HOMO)
        68                         -0.3256077              -8.8602 (LUMO)
        69                         -0.3073905              -8.3645
        70                         -0.2814794              -7.6594
        71                         -0.2562115              -6.9719
        72                         -0.2411091              -6.5609
        73                         -0.1955658              -5.3216
        74                         -0.1557015              -4.2369
        75                         -0.1432422              -3.8978
        76                         -0.1377433              -3.7482
        77                         -0.1332025              -3.6246
        78                         -0.1207868              -3.2868
       ...                                ...                  ...
       134                          0.7263062              19.7638
      -------------------------------------------------------------
                  HL-Gap            0.1021152 Eh            2.7787 eV

Wiberg/Mayer (AO) data.
largest (>0.10) Wiberg bond orders for each atom

     #   Z sym  total        # sym  WBO       # sym  WBO       # sym  WBO
 ---------------------------------------------------------------------------
     1   6 C    3.865 --    27 H    0.986    26 H    0.979    28 H    0.979
                             2 O    0.891
     2   8 O    2.223 --     3 C    1.142     1 C    0.891     4 O    0.132
     3   6 C    3.845 --     4 O    1.611     2 O    1.142     5 C    1.009
     4   8 O    1.951 --     3 C    1.611     2 O    0.132
     5   6 C    3.969 --    24 C    1.382     6 N    1.299     3 C    1.009
     6   7 N    3.029 --     7 C    1.455     5 C    1.299
     7   6 C    3.946 --     6 N    1.455    20 N    1.327     8 C    0.982
     8   6 C    3.935 --     9 C    0.990     7 C    0.982    10 C    0.973
                            11 N    0.926
     9   6 C    3.990 --     8 C    0.990    31 H    0.986    29 H    0.983
                            30 H    0.982
    10   6 C    3.989 --    32 H    0.986    34 H    0.986    33 H    0.980
                             8 C    0.973
    11   7 N    3.367 --    12 C    1.280     8 C    0.926    35 H    0.883
                            13 O    0.181
    12   6 C    3.920 --    13 O    1.571    11 N    1.280    14 C    0.988
    13   8 O    1.891 --    12 C    1.571    11 N    0.181
    14   6 C    3.870 --    15 N    1.626    19 O    1.047    12 C    0.988
    15   7 N    2.997 --    14 C    1.626    16 N    1.195
    16   7 N    2.981 --    17 C    1.615    15 N    1.195
    17   6 C    3.870 --    16 N    1.615    19 O    1.072    18 C    1.031
    18   6 C    3.987 --    17 C    1.031    38 H    0.983    36 H    0.964
                            37 H    0.963
    19   8 O    2.315 --    17 C    1.072    14 C    1.047
    20   7 N    3.032 --    21 C    1.394     7 C    1.327
    21   6 C    3.907 --    20 N    1.394    24 C    1.212    22 O    1.092
    22   8 O    2.190 --    21 C    1.092    23 C    0.899
    23   6 C    3.871 --    41 H    0.984    40 H    0.980    39 H    0.979
                            22 O    0.899
    24   6 C    3.926 --     5 C    1.382    21 C    1.212    25 O    1.099
    25   8 O    2.071 --    24 C    1.099    42 H    0.767
    26   1 H    1.006 --     1 C    0.979
    27   1 H    1.010 --     1 C    0.986
    28   1 H    1.006 --     1 C    0.979
    29   1 H    1.013 --     9 C    0.983
    30   1 H    1.010 --     9 C    0.982
    31   1 H    1.003 --     9 C    0.986
    32   1 H    1.003 --    10 C    0.986
    33   1 H    1.009 --    10 C    0.980
    34   1 H    1.004 --    10 C    0.986
    35   1 H    0.957 --    11 N    0.883
    36   1 H    0.997 --    18 C    0.964
    37   1 H    0.997 --    18 C    0.963
    38   1 H    0.999 --    18 C    0.983
    39   1 H    1.012 --    23 C    0.979
    40   1 H    1.011 --    23 C    0.980
    41   1 H    1.012 --    23 C    0.984
    42   1 H    0.847 --    25 O    0.767
 ---------------------------------------------------------------------------

           -------------------------------------------------
          | TOTAL ENERGY              -83.012676255949 Eh   |
          | GRADIENT NORM               0.000304521250 Eh/α |
          | HOMO-LUMO GAP               2.778696408591 eV   |
           -------------------------------------------------

 * finished run on 2023/06/20 at 18:31:19.830
